Title
82341
    1SAPS     N    1   3.004   5.303  10.640 -0.6497 -0.5219  0.5307
    1SAPS   HN1    2   3.106   5.283  10.638 -0.5674 -0.0928  0.3542
    1SAPS   HN2    3   2.945   5.244  10.578 -1.2321 -0.7973  1.3395
    1SAPS   HN3    4   2.993   5.401  10.607 -0.6491 -0.9119 -0.6834
    1SAPS   C12    5   2.979   5.287  10.783 -0.3918  0.2756 -0.6916
    1SAPS  H12A    6   3.003   5.184  10.804  3.7539  1.3964  1.0949
    1SAPS   C13    7   3.067   5.369  10.883 -0.4696 -0.0251  0.4767
    1SAPS  O13A    8   3.165   5.430  10.838 -0.3153  0.0627  0.3658
    1SAPS  O13B    9   3.047   5.372  11.004 -0.7334  0.0214 -0.0038
    1SAPS   C11   10   2.831   5.300  10.810  0.3499  0.1841  0.7325
    1SAPS  H11A   11   2.802   5.406  10.796 -0.5434 -0.2114 -0.6791
    1SAPS  H11B   12   2.817   5.271  10.916  1.3980 -1.7065  0.4102
    1SAPS     P   13   2.600   5.194  10.742 -0.1953 -0.1061 -0.1275
    1SAPS   O13   14   2.558   5.052  10.735 -0.2679 -0.0076 -0.0588
    1SAPS   O14   15   2.552   5.273  10.859 -0.2262 -0.7085 -0.0004
    1SAPS   O12   16   2.756   5.210  10.731 -0.4547 -0.4447  0.1220
    1SAPS   O11   17   2.553   5.264  10.614  0.9142 -0.3666 -0.2893
    1SAPS    C1   18   2.614   5.252  10.483 -0.4727 -0.0500 -0.2106
    1SAPS    HA   19   2.699   5.323  10.473  0.5175 -1.1302  0.3576
    1SAPS    HB   20   2.655   5.150  10.471  2.3001  0.8495  0.7372
    1SAPS    C2   21   2.513   5.285  10.373  0.4751  0.2643 -0.4676
    1SAPS    HS   22   2.482   5.391  10.376 -2.4095 -0.4648  3.4549
    1SAPS   O21   23   2.399   5.197  10.371  0.2551  0.5518  0.3037
    1SAPS   C21   24   2.310   5.227  10.467 -0.3045  0.4078  0.5642
    1SAPS   O22   25   2.319   5.327  10.537 -0.2794  0.1413 -0.7923
    1SAPS   C22   26   2.208   5.127  10.463 -0.3149  0.0297  0.3618
    1SAPS   H2R   27   2.249   5.031  10.501 -0.0856 -0.0004  0.0313
    1SAPS   H2S   28   2.128   5.162  10.532 -0.6031  1.3945 -0.6320
    1SAPS    C3   29   2.568   5.283  10.235 -0.6519 -0.0287 -0.0152
    1SAPS    HX   30   2.502   5.318  10.154  2.2475  2.0137 -1.6635
    1SAPS    HY   31   2.583   5.176  10.207  0.0919  0.0257  0.1444
    1SAPS   O31   32   2.694   5.352  10.221 -0.2947 -0.1205 -0.3095
    1SAPS   C31   33   2.684   5.489  10.195  0.5621 -0.1015  0.2995
    1SAPS   O32   34   2.578   5.540  10.172  0.1236 -0.3026  0.0561
    1SAPS   C32   35   2.823   5.545  10.199 -0.4186  0.1309 -0.4131
    1SAPS   H2X   36   2.890   5.496  10.124  0.4399  2.6274 -1.4119
    1SAPS   H2Y   37   2.867   5.531  10.300  0.0607  0.4117 -0.5794
    1SAPS   C23   38   2.140   5.107  10.327 -0.3150 -0.4795 -0.0354
    1SAPS   H3R   39   2.078   5.016  10.338 -2.1516  0.4879 -1.7204
    1SAPS   H3S   40   2.217   5.078  10.253 -0.2087  2.1335 -1.0563
    1SAPS   C24   41   2.055   5.220  10.266 -0.5367 -0.1664  0.8224
    1SAPS   H4R   42   1.990   5.264  10.345 -0.7770 -0.4550  0.7902
    1SAPS   H4S   43   1.977   5.187  10.195 -0.5356  0.5410  0.4859
    1SAPS   C25   44   2.141   5.318  10.193 -0.6107  0.4403 -0.1951
    1SAPS   H5R   45   2.197   5.385  10.260  0.9169  1.0282 -1.9450
    1SAPS   C26   46   2.171   5.324  10.059  0.7814 -0.4811 -0.8892
    1SAPS   H6R   47   2.235   5.410  10.031 -1.1312  1.6205  0.8038
    1SAPS   C27   48   2.118   5.237   9.947  0.3018 -0.1486 -0.5093
    1SAPS   H7R   49   2.064   5.301   9.875  0.9156  1.0846  0.0903
    1SAPS   H7S   50   2.051   5.156   9.984 -1.5773  1.7305  0.3819
    1SAPS   C28   51   2.237   5.168   9.876  0.0651 -0.4546  0.6511
    1SAPS   H8R   52   2.285   5.086   9.932  1.6031  0.4101  0.6455
    1SAPS   C29   53   2.279   5.194   9.749  0.5446  0.3066 -0.1251
    1SAPS   H9R   54   2.352   5.125   9.704  1.0902  0.9549 -0.2378
    1SAPS  C210   55   2.208   5.285   9.648 -0.2935 -1.0153  0.3812
    1SAPS  H10R   56   2.109   5.315   9.688 -0.7249 -0.6104 -0.9462
    1SAPS  H10S   57   2.180   5.239   9.551 -1.6539 -1.2220  0.8495
    1SAPS  C211   58   2.279   5.416   9.617 -0.0060  0.4560  0.0252
    1SAPS  H11R   59   2.265   5.491   9.696 -1.1489  0.2934 -0.0061
    1SAPS  C212   60   2.359   5.443   9.506  0.6053  0.6618 -0.1807
    1SAPS  H12R   61   2.397   5.545   9.492 -0.7876  1.1158 -0.8110
    1SAPS  C213   62   2.387   5.346   9.399  0.1107 -0.1471 -0.6007
    1SAPS  H13R   63   2.382   5.241   9.434 -1.3284  0.7468  2.1915
    1SAPS  H13S   64   2.494   5.353   9.372 -0.1631  0.6698 -1.5383
    1SAPS  C214   65   2.308   5.361   9.277 -0.2677  0.1062 -0.6555
    1SAPS  H14R   66   2.199   5.366   9.288 -0.2949 -1.6550  0.4839
    1SAPS  C215   67   2.355   5.370   9.153 -0.5752  0.4995 -0.8095
    1SAPS  H15R   68   2.277   5.366   9.075 -1.2870  2.6021 -0.2866
    1SAPS  C216   69   2.499   5.357   9.106  0.0675  0.2755 -0.4883
    1SAPS  H16R   70   2.536   5.268   9.161 -0.4074  0.6151  0.4162
    1SAPS  H16S   71   2.544   5.449   9.148 -1.5316  1.3916 -1.1185
    1SAPS  C217   72   2.534   5.348   8.954  0.2200 -0.0776 -0.6190
    1SAPS  H17R   73   2.481   5.420   8.889  0.7034  0.5120 -0.3748
    1SAPS  H17S   74   2.511   5.248   8.914 -0.7103 -0.1785  0.1290
    1SAPS  C218   75   2.681   5.380   8.934 -0.6001 -0.4696 -0.0645
    1SAPS  H18R   76   2.742   5.315   8.999  1.7502  1.5712 -0.0512
    1SAPS  H18S   77   2.708   5.485   8.961  1.7757 -1.3668  1.3371
    1SAPS  C219   78   2.731   5.353   8.795  1.1492 -0.5887  0.3620
    1SAPS  H19R   79   2.678   5.410   8.716  1.8219  0.4526  0.6346
    1SAPS  H19S   80   2.713   5.246   8.771 -1.3265 -0.1401 -0.0363
    1SAPS  C220   81   2.878   5.384   8.774 -0.4819 -1.3023 -0.0223
    1SAPS  H20R   82   2.940   5.323   8.844  2.0459  0.9311 -0.1372
    1SAPS  H20S   83   2.903   5.489   8.799  1.2328 -1.8458  0.7197
    1SAPS  H20T   84   2.905   5.364   8.669  0.2405 -1.4300  0.1810
    1SAPS   C33   85   2.836   5.695  10.189 -0.2736 -0.7979  0.9755
    1SAPS   H3X   86   2.942   5.726  10.203 -0.3322 -0.3445  0.4553
    1SAPS   H3Y   87   2.771   5.749  10.262 -1.9540  0.5922 -1.3787
    1SAPS   C34   88   2.805   5.747  10.047  1.1501 -0.0046 -0.2675
    1SAPS   H4X   89   2.780   5.855  10.048 -1.9980 -0.6464 -0.2725
    1SAPS   H4Y   90   2.713   5.697  10.013 -0.1777  2.8723 -1.2531
    1SAPS   C35   91   2.915   5.710   9.942 -0.5022  0.7384  0.6357
    1SAPS   H5X   92   2.954   5.606   9.941  0.6370  1.1312  1.8472
    1SAPS   H5Y   93   2.995   5.785   9.963 -1.0957  1.4839  0.3128
    1SAPS   C36   94   2.851   5.734   9.802 -0.3143 -0.3447 -0.0272
    1SAPS   H6X   95   2.815   5.839   9.795 -1.0943 -0.7036 -2.2300
    1SAPS   H6Y   96   2.767   5.662   9.794  0.8304 -1.6962 -0.1596
    1SAPS   C37   97   2.961   5.712   9.694 -0.2081 -0.0629 -0.5622
    1SAPS   H7X   98   2.988   5.604   9.697 -0.8999 -0.2331  1.8102
    1SAPS   H7Y   99   3.050   5.772   9.724 -0.0592 -0.9014  0.7501
    1SAPS   C38  100   2.907   5.752   9.556  0.2040  0.9062 -0.3659
    1SAPS   H8X  101   2.868   5.856   9.551  1.2116  1.2384 -1.8814
    1SAPS   H8Y  102   2.817   5.689   9.540 -0.3059  1.4370  0.3182
    1SAPS   C39  103   3.009   5.722   9.442 -0.3034  0.6279  0.1167
    1SAPS   H9X  104   3.050   5.623   9.471 -1.0480  0.0883 -0.6191
    1SAPS   H9Y  105   3.085   5.802   9.430 -0.3831  0.7107  0.1599
    1SAPS  C310  106   2.949   5.703   9.304 -0.1351  0.3080 -0.3106
    1SAPS  H10X  107   2.877   5.785   9.285 -2.4181 -1.2781  0.9608
    1SAPS  H10Y  108   2.889   5.610   9.301  1.1890 -0.5889  0.2396
    1SAPS  C311  109   3.050   5.681   9.199 -0.1466  0.0228 -0.5371
    1SAPS  H11X  110   3.111   5.593   9.229  0.8815  1.3698  1.6219
    1SAPS  H11Y  111   3.119   5.768   9.205  1.0351 -0.9303  0.2420
    1SAPS  C312  112   2.984   5.665   9.059 -0.0064  0.4382 -1.0282
    1SAPS  H12X  113   2.908   5.585   9.060  0.6219 -0.1694 -1.1696
    1SAPS  H12Y  114   3.054   5.617   8.987 -1.5540 -1.9989 -1.0053
    1SAPS  C313  115   2.932   5.795   8.988 -0.3200 -0.1716 -0.2197
    1SAPS  H13X  116   3.024   5.856   8.977 -1.2288  1.3850  0.5189
    1SAPS  H13Y  117   2.869   5.856   9.056  1.9063  0.9624  0.9323
    1SAPS  C314  118   2.866   5.779   8.849  0.0045 -0.3501  0.0916
    1SAPS  H14X  119   2.786   5.705   8.872 -0.2190  0.1800  1.0832
    1SAPS  H14Y  120   2.936   5.735   8.775  0.5482  1.9443 -0.8505
    1SAPS  C315  121   2.800   5.910   8.809 -0.2009  0.0879 -0.1521
    1SAPS  H15X  122   2.864   6.000   8.823 -2.6129  2.3032 -2.3372
    1SAPS  H15Y  123   2.701   5.922   8.857 -0.2324 -2.9226  0.7064
    1SAPS  C316  124   2.771   5.913   8.665 -0.0170 -0.2643 -0.0946
    1SAPS  H16X  125   2.691   5.842   8.636 -0.2716  0.3934 -1.0611
    1SAPS  H16Y  126   2.855   5.877   8.602 -0.7158  0.0183 -1.2136
    1SAPS  C317  127   2.727   6.047   8.606  0.0852 -0.6503 -0.2077
    1SAPS  H17X  128   2.809   6.118   8.630  0.5385 -0.5459 -1.9731
    1SAPS  H17Y  129   2.636   6.092   8.652  0.3524  0.7150 -0.9567
    1SAPS  C318  130   2.707   6.048   8.446  0.2572 -0.4565 -0.6550
    1SAPS  H18X  131   2.625   5.981   8.413 -1.4318  0.0475  2.1834
    1SAPS  H18Y  132   2.804   6.024   8.398 -0.2697 -2.7501 -0.6698
    1SAPS  H18Z  133   2.676   6.150   8.413  0.4941 -0.4689 -0.9141
    2SAPS     N  134   1.722   6.180  10.752 -0.0358 -0.0394  0.1492
    2SAPS   HN1  135   1.686   6.228  10.667  1.7283  0.1999 -0.5123
    2SAPS   HN2  136   1.707   6.253  10.824 -0.0936 -1.0111  1.1550
    2SAPS   HN3  137   1.824   6.171  10.729 -0.3142  1.8215 -2.2674
    2SAPS   C12  138   1.669   6.047  10.760 -0.2973 -0.1827  0.3407
    2SAPS  H12A  139   1.730   5.986  10.825 -3.0263 -1.6896  1.6950
    2SAPS   C13  140   1.533   6.030  10.830 -1.1346  0.5495 -0.1924
    2SAPS  O13A  141   1.496   6.123  10.900 -0.1098 -0.3997 -0.6160
    2SAPS  O13B  142   1.488   5.913  10.848  0.5830 -0.2483  1.0015
    2SAPS   C11  143   1.648   5.981  10.619  0.0644 -0.0913 -0.3962
    2SAPS  H11A  144   1.575   6.048  10.569 -0.8352 -1.9348 -1.6390
    2SAPS  H11B  145   1.593   5.885  10.618  0.6407 -0.5199  2.0027
    2SAPS     P  146   1.861   5.849  10.559  0.0626 -0.0003  0.0872
    2SAPS   O13  147   1.937   5.861  10.682  0.3170  0.1370  0.3352
    2SAPS   O14  148   1.778   5.729  10.539  0.7105 -0.1269 -1.2198
    2SAPS   O12  149   1.762   5.976  10.543  0.0822 -0.0037 -0.5363
    2SAPS   O11  150   1.964   5.853  10.440  0.1825 -0.6173  0.7500
    2SAPS    C1  151   1.931   5.933  10.324 -0.1032  0.2006  0.7675
    2SAPS    HA  152   1.890   6.032  10.352 -0.5932 -0.4410  2.4457
    2SAPS    HB  153   2.032   5.943  10.279 -0.7045  0.5753 -0.5326
    2SAPS    C2  154   1.836   5.854  10.237  0.2134  0.2799  0.4820
    2SAPS    HS  155   1.824   5.749  10.272  3.7577 -0.6539 -0.6812
    2SAPS   O21  156   1.883   5.854  10.101 -0.4134 -0.0692  0.5066
    2SAPS   C21  157   1.987   5.764  10.077 -0.5951 -0.2583 -0.2387
    2SAPS   O22  158   2.039   5.696  10.163 -0.1019  0.6187 -0.0350
    2SAPS   C22  159   2.030   5.768   9.928  0.5641 -0.2670 -0.0524
    2SAPS   H2R  160   2.037   5.874   9.898  0.2406 -0.0380  0.6683
    2SAPS   H2S  161   2.129   5.719   9.919 -0.4828 -2.4610 -0.4273
    2SAPS    C3  162   1.691   5.920  10.219 -0.3136 -0.0606  0.0645
    2SAPS    HX  163   1.635   5.927  10.315 -0.1552  1.1325  0.0858
    2SAPS    HY  164   1.620   5.856  10.162  0.1998  0.1303 -0.8171
    2SAPS   O31  165   1.705   6.059  10.163  0.0511 -0.5119 -0.0127
    2SAPS   C31  166   1.592   6.114  10.135 -0.1043 -0.2144  0.7745
    2SAPS   O32  167   1.486   6.061  10.150  0.2392  0.1251 -0.0637
    2SAPS   C32  168   1.616   6.250  10.085 -0.9094  0.3454  0.0068
    2SAPS   H2X  169   1.714   6.247  10.031  0.1924 -0.2945  1.9555
    2SAPS   H2Y  170   1.635   6.310  10.177 -0.0738 -0.6203  0.4853
    2SAPS   C23  171   1.918   5.692   9.840 -0.1637  0.2072  0.4726
    2SAPS   H3R  172   1.818   5.704   9.887 -0.7538 -0.8079 -0.4730
    2SAPS   H3S  173   1.928   5.581   9.837 -0.9185  0.1431  0.1356
    2SAPS   C24  174   1.921   5.737   9.690  0.8916 -0.2316  0.1032
    2SAPS   H4R  175   2.026   5.718   9.661  1.7812 -0.0044  2.8814
    2SAPS   H4S  176   1.895   5.845   9.683 -0.3971 -0.5759 -0.7421
    2SAPS   C25  177   1.826   5.656   9.602  0.8128  0.5531  0.2866
    2SAPS   H5R  178   1.732   5.660   9.658 -0.0139 -0.8078 -0.9432
    2SAPS   C26  179   1.840   5.590   9.485  0.1625 -0.2492 -0.1484
    2SAPS   H6R  180   1.743   5.553   9.448 -0.3140  0.9893 -0.1905
    2SAPS   C27  181   1.964   5.581   9.400 -0.7357  0.0467 -0.4946
    2SAPS   H7R  182   1.986   5.472   9.404 -1.2756 -0.0514  2.3581
    2SAPS   H7S  183   2.051   5.635   9.442 -0.3651 -1.2328  0.4518
    2SAPS   C28  184   1.936   5.616   9.255  1.0426  0.5583 -0.3420
    2SAPS   H8R  185   1.945   5.722   9.226  1.2933  0.3878 -0.8944
    2SAPS   C29  186   1.886   5.531   9.162  0.6029 -0.3988 -0.4393
    2SAPS   H9R  187   1.882   5.576   9.062  3.3963 -1.0461 -0.9288
    2SAPS  C210  188   1.844   5.383   9.185  0.0635 -0.4273 -0.1269
    2SAPS  H10R  189   1.778   5.352   9.101  1.5334 -1.2493 -1.0071
    2SAPS  H10S  190   1.789   5.368   9.280  1.0723 -1.8319  0.2594
    2SAPS  C211  191   1.949   5.283   9.211  0.1950  0.0461  0.2882
    2SAPS  H11R  192   1.989   5.285   9.314  0.3836  0.0063  0.2159
    2SAPS  C212  193   1.993   5.186   9.121 -0.3983 -0.1856  0.4409
    2SAPS  H12R  194   2.069   5.117   9.161 -1.1376 -0.8622  0.7070
    2SAPS  C213  195   1.950   5.164   8.974 -0.8358  0.8464 -0.4455
    2SAPS  H13R  196   1.882   5.249   8.953 -2.3591  0.4111  2.2617
    2SAPS  H13S  197   1.902   5.064   8.969 -1.6176  1.2029 -0.2105
    2SAPS  C214  198   2.077   5.150   8.889  0.6705 -0.2147  0.2577
    2SAPS  H14R  199   2.128   5.053   8.893  0.5557 -0.3464 -1.1011
    2SAPS  C215  200   2.127   5.244   8.807  0.4354  0.0501  0.6164
    2SAPS  H15R  201   2.219   5.218   8.752  0.9611 -1.4515  2.0789
    2SAPS  C216  202   2.067   5.385   8.783 -0.0803  0.0119 -0.3166
    2SAPS  H16R  203   1.992   5.412   8.861 -1.0240  0.2473 -1.2931
    2SAPS  H16S  204   2.021   5.392   8.682 -0.5660 -0.7693 -0.1624
    2SAPS  C217  205   2.176   5.497   8.797  0.7778  0.5913  0.3843
    2SAPS  H17R  206   2.236   5.478   8.888  1.9531 -0.3518 -0.5586
    2SAPS  H17S  207   2.119   5.591   8.816 -0.4965  0.2151 -1.3008
    2SAPS  C218  208   2.270   5.512   8.677 -0.8854  0.3519  0.4067
    2SAPS  H18R  209   2.217   5.514   8.580 -2.0004 -3.7653  0.7232
    2SAPS  H18S  210   2.333   5.421   8.669 -2.9541 -1.2334  1.3021
    2SAPS  C219  211   2.349   5.635   8.692  0.7155  0.1111 -0.0510
    2SAPS  H19R  212   2.442   5.606   8.745  1.5098 -1.2104 -2.0415
    2SAPS  H19S  213   2.293   5.703   8.759  0.0031 -1.7889  1.3841
    2SAPS  C220  214   2.407   5.698   8.568  0.1292 -0.3671 -0.1174
    2SAPS  H20R  215   2.442   5.620   8.498  0.5196 -0.7760  0.5235
    2SAPS  H20S  216   2.488   5.771   8.591 -0.4714  0.3880 -0.3570
    2SAPS  H20T  217   2.321   5.739   8.511 -1.7012 -2.1464  1.2441
    2SAPS   C33  218   1.498   6.305   9.994  0.4608 -0.4629  0.8623
    2SAPS   H3X  219   1.507   6.415   9.994 -3.8672  0.0489  0.5232
    2SAPS   H3Y  220   1.401   6.281  10.043 -0.0304 -2.4521 -0.9055
    2SAPS   C34  221   1.493   6.256   9.849 -0.9615 -0.0405 -0.0883
    2SAPS   H4X  222   1.402   6.297   9.800 -1.0631 -0.8965 -0.6384
    2SAPS   H4Y  223   1.472   6.147   9.848  1.3425 -0.5390 -0.5666
    2SAPS   C35  224   1.620   6.278   9.763 -0.1258 -0.3833  0.4015
    2SAPS   H5X  225   1.699   6.236   9.830  0.1643  2.6116  2.1276
    2SAPS   H5Y  226   1.644   6.386   9.753  0.3496 -0.2087  2.6743
    2SAPS   C36  227   1.612   6.213   9.630 -0.0805 -0.4052 -0.6516
    2SAPS   H6X  228   1.602   6.104   9.650 -2.6328  0.2578  2.6008
    2SAPS   H6Y  229   1.702   6.232   9.568  0.2216 -0.0643 -0.1107
    2SAPS   C37  230   1.502   6.264   9.533 -0.0126  0.2405 -0.2118
    2SAPS   H7X  231   1.483   6.370   9.560  1.7609  0.7476 -0.8574
    2SAPS   H7Y  232   1.407   6.206   9.539  1.3675 -1.9893  1.8990
    2SAPS   C38  233   1.544   6.255   9.384  0.0349 -0.0887  0.0566
    2SAPS   H8X  234   1.649   6.286   9.369 -0.5658  1.1557 -1.9305
    2SAPS   H8Y  235   1.471   6.316   9.326 -0.6410 -0.3931  0.5674
    2SAPS   C39  236   1.531   6.113   9.332 -0.3933  0.6884  0.2826
    2SAPS   H9X  237   1.442   6.054   9.363 -0.0304 -1.3248 -2.2216
    2SAPS   H9Y  238   1.612   6.044   9.364  0.0784  1.4888  0.8609
    2SAPS  C310  239   1.530   6.111   9.177  0.1157 -0.5039  0.2916
    2SAPS  H10X  240   1.634   6.135   9.147  1.5669 -2.6985  3.0953
    2SAPS  H10Y  241   1.451   6.186   9.153  0.5770  0.3149  1.2302
    2SAPS  C311  242   1.487   5.978   9.108  0.1168 -0.3324  0.2031
    2SAPS  H11X  243   1.388   5.943   9.145 -0.4294  2.1462  1.2915
    2SAPS  H11Y  244   1.565   5.901   9.125 -0.9681 -2.4285 -3.3399
    2SAPS  C312  245   1.466   6.019   8.952 -0.0360  0.5743  0.3265
    2SAPS  H12X  246   1.569   6.048   8.921  0.6674 -0.4067  1.6321
    2SAPS  H12Y  247   1.395   6.104   8.943 -2.9616 -1.7686 -0.5905
    2SAPS  C313  248   1.402   5.897   8.878 -0.1690  0.1971 -0.3744
    2SAPS  H13X  249   1.298   5.875   8.910 -1.0657  2.5167 -1.4934
    2SAPS  H13Y  250   1.462   5.804   8.891  1.8965  1.7904  3.0113
    2SAPS  C314  251   1.402   5.932   8.731  0.2346  0.1475 -0.1011
    2SAPS  H14X  252   1.484   6.006   8.721  0.3899 -0.2980 -2.7110
    2SAPS  H14Y  253   1.307   5.985   8.710 -0.1441 -0.8881 -1.1206
    2SAPS  C315  254   1.416   5.819   8.622  0.5133  0.1131 -0.1309
    2SAPS  H15X  255   1.326   5.753   8.621  0.1509  0.5895  0.3651
    2SAPS  H15Y  256   1.507   5.770   8.660  0.6229  0.8799  0.6224
    2SAPS  C316  257   1.438   5.875   8.481  1.0272  0.8478  0.0175
    2SAPS  H16X  258   1.469   5.982   8.483 -1.4210  1.6249  1.1752
    2SAPS  H16Y  259   1.333   5.874   8.443  0.4286 -4.2932  1.1089
    2SAPS  C317  260   1.504   5.779   8.384 -0.1832 -0.4955 -0.8264
    2SAPS  H17X  261   1.461   5.677   8.392  2.1362 -1.5461 -1.0727
    2SAPS  H17Y  262   1.611   5.767   8.410 -0.2616  1.4323  0.6313
    2SAPS  C318  263   1.499   5.816   8.236  0.2424 -0.0237 -0.6634
    2SAPS  H18X  264   1.529   5.724   8.182  0.9767 -1.2379  1.6882
    2SAPS  H18Y  265   1.578   5.892   8.217  0.9989 -0.7448 -0.4738
    2SAPS  H18Z  266   1.402   5.863   8.209 -0.8758 -0.5113  2.1016
    3SAPS     N  267   3.159   0.853  10.979 -0.0783  0.2215  0.6262
    3SAPS   HN1  268   3.234   0.912  10.939 -0.8433 -0.3456 -1.8321
    3SAPS   HN2  269   3.072   0.878  10.929  1.2835  1.4053 -1.2671
    3SAPS   HN3  270   3.148   0.875  11.080 -3.8848  1.3717  0.1161
    3SAPS   C12  271   3.191   0.708  10.954  0.5492  0.3415 -0.3375
    3SAPS  H12A  272   3.275   0.677  11.013 -0.4236 -0.2719  0.7805
    3SAPS   C13  273   3.079   0.602  10.976  0.0325  0.1349  0.0066
    3SAPS  O13A  274   2.963   0.641  10.995  0.1057  0.2309  0.0616
    3SAPS  O13B  275   3.121   0.483  10.988  0.6389 -0.5276 -0.0190
    3SAPS   C11  276   3.240   0.692  10.810  0.1298  0.1132  0.4367
    3SAPS  H11A  277   3.152   0.715  10.745 -0.8207 -1.3881  1.1295
    3SAPS  H11B  278   3.269   0.586  10.797 -0.9866 -0.1677  0.0681
    3SAPS     P  279   3.431   0.794  10.646  0.1707  0.2167  0.0462
    3SAPS   O13  280   3.571   0.782  10.682  0.1840 -0.1503  0.6385
    3SAPS   O14  281   3.381   0.688  10.551  0.0068  0.0604 -0.0660
    3SAPS   O12  282   3.349   0.779  10.784 -0.5295  0.3790  0.7062
    3SAPS   O11  283   3.379   0.935  10.603 -0.5037 -0.2214  0.8109
    3SAPS    C1  284   3.247   0.960  10.552  0.8540  0.6734  0.3750
    3SAPS    HA  285   3.188   0.867  10.567  1.3699  0.4206  0.8625
    3SAPS    HB  286   3.190   1.039  10.605 -0.4642  0.7538 -1.0833
    3SAPS    C2  287   3.238   0.985  10.395 -0.0387 -0.2276 -0.2611
    3SAPS    HS  288   3.311   0.919  10.344 -0.2955 -0.1751 -0.6943
    3SAPS   O21  289   3.257   1.129  10.374  0.5583 -0.3363  0.0145
    3SAPS   C21  290   3.339   1.161  10.274 -1.1399  0.1778 -0.2013
    3SAPS   O22  291   3.386   1.086  10.194  0.4614 -0.2274  0.1438
    3SAPS   C22  292   3.362   1.312  10.273  0.0684  0.2586  0.3326
    3SAPS   H2R  293   3.287   1.355  10.343 -1.5487 -0.8582 -0.6616
    3SAPS   H2S  294   3.462   1.322  10.320 -1.0484  0.8852  2.7202
    3SAPS    C3  295   3.091   0.944  10.350  0.0543 -0.8468 -0.2890
    3SAPS    HX  296   3.018   0.991  10.419 -1.5486 -1.6806 -1.3275
    3SAPS    HY  297   3.070   0.839  10.379 -1.4377 -0.3599  0.4953
    3SAPS   O31  298   3.061   0.992  10.219  0.0139  0.7647  0.2262
    3SAPS   C31  299   3.127   0.921  10.127 -0.3314 -0.4499  0.7905
    3SAPS   O32  300   3.194   0.822  10.148 -0.0748 -0.4287 -0.5787
    3SAPS   C32  301   3.081   0.967   9.990  0.5422 -0.1481 -0.3263
    3SAPS   H2X  302   3.126   1.068   9.977  1.9528 -0.7360 -0.1609
    3SAPS   H2Y  303   2.970   0.972   9.990  0.4160 -2.2964  0.4665
    3SAPS   C23  304   3.358   1.363  10.131 -0.1789 -0.5080 -0.0965
    3SAPS   H3R  305   3.431   1.308  10.067  0.2760 -1.1188  0.9346
    3SAPS   H3S  306   3.390   1.470  10.133 -1.0383 -0.2213 -1.0461
    3SAPS   C24  307   3.217   1.373  10.066 -0.5863 -0.1707  0.4322
    3SAPS   H4R  308   3.149   1.413  10.145  1.0297 -1.9220  2.8653
    3SAPS   H4S  309   3.174   1.275  10.035  1.7540 -0.8983 -0.6818
    3SAPS   C25  310   3.198   1.480   9.957 -0.3957 -0.1352  0.1843
    3SAPS   H5R  311   3.156   1.576   9.989  1.9114  1.4450 -1.1894
    3SAPS   C26  312   3.208   1.456   9.821  0.4008  0.0491  0.1063
    3SAPS   H6R  313   3.210   1.551   9.765 -0.0939  0.3958  0.6577
    3SAPS   C27  314   3.233   1.326   9.747 -0.8460  0.4603  0.0547
    3SAPS   H7R  315   3.141   1.293   9.693  0.2381 -0.9983 -0.9858
    3SAPS   H7S  316   3.258   1.245   9.818  0.7912  0.6674 -0.2455
    3SAPS   C28  317   3.342   1.333   9.644 -0.2823 -0.1627 -0.1571
    3SAPS   H8R  318   3.439   1.320   9.695  0.2102 -1.5529 -1.3655
    3SAPS   C29  319   3.345   1.348   9.513  0.2199 -0.1387 -0.3421
    3SAPS   H9R  320   3.436   1.345   9.451 -0.9752 -0.3661 -2.1584
    3SAPS  C210  321   3.211   1.365   9.437 -0.2302  0.0124 -0.4436
    3SAPS  H10R  322   3.122   1.394   9.497  0.3933  0.8488  0.0991
    3SAPS  H10S  323   3.185   1.275   9.378 -2.4797 -1.3076  2.2826
    3SAPS  C211  324   3.240   1.472   9.338  0.3226 -0.2122  0.7785
    3SAPS  H11R  325   3.259   1.567   9.390  1.8356 -1.4284  2.5766
    3SAPS  C212  326   3.234   1.463   9.202 -0.4577  0.1302 -1.1003
    3SAPS  H12R  327   3.274   1.544   9.139 -3.0889  0.0513 -3.0232
    3SAPS  C213  328   3.194   1.344   9.116 -0.2398  0.5524  0.1988
    3SAPS  H13R  329   3.109   1.290   9.161 -0.3984  1.5585  1.1601
    3SAPS  H13S  330   3.280   1.276   9.132 -1.6002 -0.8907  1.7349
    3SAPS  C214  331   3.161   1.367   8.967  0.5908  0.0352 -0.3567
    3SAPS  H14R  332   3.056   1.396   8.947  0.1428  0.1246  1.8436
    3SAPS  C215  333   3.243   1.378   8.861 -0.3801 -0.1156  0.4167
    3SAPS  H15R  334   3.202   1.384   8.760  1.1174  0.9464 -0.1711
    3SAPS  C216  335   3.397   1.366   8.869  0.3105  1.0622  0.9971
    3SAPS  H16R  336   3.428   1.369   8.976  0.4531  0.1141  0.9885
    3SAPS  H16S  337   3.448   1.449   8.816  0.4184  0.2337 -0.2277
    3SAPS  C217  338   3.456   1.230   8.814  0.1354 -0.8033 -0.3106
    3SAPS  H17R  339   3.403   1.143   8.858  1.1973 -0.8251  0.9783
    3SAPS  H17S  340   3.557   1.221   8.859  0.1687  1.2651  0.1444
    3SAPS  C218  341   3.457   1.216   8.664  0.0795  0.3869 -0.6304
    3SAPS  H18R  342   3.531   1.283   8.616 -1.0651  1.8114 -0.4765
    3SAPS  H18S  343   3.357   1.242   8.622  0.4335 -1.1690 -2.5855
    3SAPS  C219  344   3.500   1.076   8.617  0.3886  0.2456  0.3344
    3SAPS  H19R  345   3.458   1.009   8.695  0.3297  0.4045  0.4401
    3SAPS  H19S  346   3.611   1.081   8.628  0.4692  1.8247 -0.7888
    3SAPS  C220  347   3.465   1.036   8.478  0.0306  0.3740  0.2164
    3SAPS  H20R  348   3.355   1.042   8.467 -0.0556  1.9389  1.5206
    3SAPS  H20S  349   3.509   0.936   8.462 -1.5045 -0.4422  0.8971
    3SAPS  H20T  350   3.507   1.109   8.406  0.7548 -0.7941 -0.5683
    3SAPS   C33  351   3.115   0.881   9.867  0.0576  0.7476 -1.0776
    3SAPS   H3X  352   3.039   0.800   9.855 -0.8701  1.0867  1.7556
    3SAPS   H3Y  353   3.215   0.836   9.881  0.1845  1.0703 -0.9338
    3SAPS   C34  354   3.115   0.968   9.739 -0.2952  0.1746  0.3771
    3SAPS   H4X  355   3.178   1.059   9.748 -1.5745  0.9774  1.7943
    3SAPS   H4Y  356   3.010   1.001   9.723 -0.8538 -1.1368  1.1586
    3SAPS   C35  357   3.166   0.893   9.622 -0.1605  0.1350 -0.7941
    3SAPS   H5X  358   3.136   0.787   9.641  0.3326  0.4098  1.9634
    3SAPS   H5Y  359   3.276   0.887   9.637 -0.3295  1.6549  1.5502
    3SAPS   C36  360   3.133   0.947   9.481 -0.5151  0.3291 -0.2396
    3SAPS   H6X  361   3.134   1.057   9.470  0.4386  0.3737  0.1540
    3SAPS   H6Y  362   3.029   0.910   9.469 -0.1485 -1.0140  0.4709
    3SAPS   C37  363   3.213   0.881   9.363 -0.2799  0.3899 -0.0139
    3SAPS   H7X  364   3.201   0.771   9.371 -0.2478  0.3464 -0.5448
    3SAPS   H7Y  365   3.321   0.899   9.378 -0.0515  0.7026 -1.8874
    3SAPS   C38  366   3.168   0.914   9.222 -0.1032 -0.1299 -0.4419
    3SAPS   H8X  367   3.156   1.024   9.209  1.0830  0.1591  0.6585
    3SAPS   H8Y  368   3.069   0.873   9.195 -0.7802  1.7901 -1.0718
    3SAPS   C39  369   3.274   0.871   9.118 -0.1066  0.2089 -0.4765
    3SAPS   H9X  370   3.328   0.779   9.151 -0.0650  0.1102 -0.8218
    3SAPS   H9Y  371   3.352   0.949   9.107 -0.1963  0.0439 -2.4737
    3SAPS  C310  372   3.200   0.848   8.989 -0.6382  0.5645 -0.9995
    3SAPS  H10X  373   3.136   0.931   8.951 -1.8566 -0.1050 -0.4650
    3SAPS  H10Y  374   3.143   0.755   9.008  2.9773 -1.4689  1.0625
    3SAPS  C311  375   3.294   0.816   8.874  0.3993 -0.6359  0.9239
    3SAPS  H11X  376   3.384   0.766   8.916  2.1482  0.2788 -1.5614
    3SAPS  H11Y  377   3.330   0.912   8.830 -0.9297  1.2390  3.6154
    3SAPS  C312  378   3.228   0.720   8.770 -0.3892 -0.1733  0.1780
    3SAPS  H12X  379   3.207   0.624   8.821 -0.1233 -0.1686  0.2937
    3SAPS  H12Y  380   3.292   0.703   8.681 -2.5869  0.6230 -1.6638
    3SAPS  C313  381   3.094   0.776   8.715  0.0649  0.5703 -0.1253
    3SAPS  H13X  382   3.101   0.882   8.684  0.0344  1.3148  2.2424
    3SAPS  H13Y  383   3.018   0.773   8.796  1.0966  0.1025  0.8450
    3SAPS  C314  384   3.043   0.700   8.592 -0.2020  0.1418  0.2007
    3SAPS  H14X  385   3.012   0.599   8.626 -2.0052  0.8495  0.7554
    3SAPS  H14Y  386   3.129   0.710   8.522 -1.7293  1.4060 -1.5670
    3SAPS  C315  387   2.911   0.761   8.539  0.2845 -0.3325 -0.1947
    3SAPS  H15X  388   2.879   0.715   8.443 -1.9927  2.8287 -1.1062
    3SAPS  H15Y  389   2.924   0.866   8.507  0.0785  0.2960  1.6573
    3SAPS  C316  390   2.801   0.744   8.646 -0.0858 -0.5671 -0.0259
    3SAPS  H16X  391   2.821   0.808   8.735 -2.8108  0.8763 -0.3327
    3SAPS  H16Y  392   2.812   0.637   8.673  0.3887 -0.7291 -0.8433
    3SAPS  C317  393   2.659   0.777   8.600  0.2926 -0.5645 -0.1838
    3SAPS  H17X  394   2.580   0.757   8.676  1.2630 -1.6431  0.5765
    3SAPS  H17Y  395   2.638   0.704   8.519  0.2842 -1.0995  0.2917
    3SAPS  C318  396   2.636   0.918   8.540  0.1287 -0.3078  0.0372
    3SAPS  H18X  397   2.670   0.909   8.435 -2.4674 -3.4578 -0.6804
    3SAPS  H18Y  398   2.689   0.998   8.596  0.4459  0.1000 -0.8369
    3SAPS  H18Z  399   2.527   0.932   8.526  0.4244  0.1343 -2.1234
    4SAPS     N  400   3.968   1.227  10.641 -0.2947 -0.4815 -0.1075
    4SAPS   HN1  401   4.068   1.256  10.644 -0.7809  1.1971  0.6070
    4SAPS   HN2  402   3.962   1.153  10.715  1.6883 -0.2606  0.3422
    4SAPS   HN3  403   3.943   1.182  10.551 -0.6215 -2.3082  0.8287
    4SAPS   C12  404   3.872   1.336  10.660  0.5357  0.3966 -0.7076
    4SAPS  H12A  405   3.870   1.399  10.572 -1.3154  0.9503 -0.3066
    4SAPS   C13  406   3.728   1.290  10.698  0.8015 -0.0841  0.1010
    4SAPS  O13A  407   3.698   1.161  10.694 -0.8884  0.5479 -0.4588
    4SAPS  O13B  408   3.642   1.380  10.716 -0.1359 -0.1395  0.2639
    4SAPS   C11  409   3.928   1.422  10.785  0.4834 -0.4432  0.5761
    4SAPS  H11A  410   3.918   1.361  10.876 -0.0219  1.1614  1.6455
    4SAPS  H11B  411   3.857   1.507  10.799  0.9357 -0.0744  0.6454
    4SAPS     P  412   4.115   1.611  10.721 -0.2427  0.0423  0.2670
    4SAPS   O13  413   4.067   1.705  10.825 -0.6993 -0.5950  0.5313
    4SAPS   O14  414   4.259   1.602  10.712 -0.2775 -0.8201  0.0812
    4SAPS   O12  415   4.062   1.464  10.758  0.3464  0.2419  0.0536
    4SAPS   O11  416   4.054   1.642  10.580  0.3269  0.5306 -0.0501
    4SAPS    C1  417   4.032   1.768  10.529  1.0385 -0.1096 -0.6584
    4SAPS    HA  418   4.075   1.847  10.593  1.6587 -0.6613 -0.3856
    4SAPS    HB  419   4.068   1.779  10.424  0.7969  0.7654 -0.6624
    4SAPS    C2  420   3.878   1.799  10.518  0.2022 -0.0813 -0.4698
    4SAPS    HS  421   3.846   1.815  10.623 -1.2270  0.9268 -1.0251
    4SAPS   O21  422   3.817   1.682  10.463  0.3604  0.1184  0.0112
    4SAPS   C21  423   3.686   1.669  10.473  0.3360 -0.3210 -0.3448
    4SAPS   O22  424   3.621   1.721  10.565  0.6814 -0.5211 -0.2575
    4SAPS   C22  425   3.625   1.574  10.366  0.1271 -0.1468 -0.2798
    4SAPS   H2R  426   3.596   1.479  10.415  1.2407 -0.4844 -0.2341
    4SAPS   H2S  427   3.536   1.616  10.315 -1.1964 -1.2951  0.9779
    4SAPS    C3  428   3.852   1.927  10.441 -0.2377  0.2074  0.0054
    4SAPS    HX  429   3.900   2.003  10.507  0.9450 -0.0037 -0.5817
    4SAPS    HY  430   3.744   1.951  10.437 -0.2480  0.0901 -3.1705
    4SAPS   O31  431   3.914   1.925  10.308  0.0585  0.1852 -0.0058
    4SAPS   C31  432   3.830   1.898  10.213 -0.2820 -1.1245  0.4523
    4SAPS   O32  433   3.709   1.884  10.220  0.3421  0.0343  0.3982
    4SAPS   C32  434   3.922   1.870  10.088 -0.1828 -0.0818  0.1940
    4SAPS   H2X  435   3.959   1.969  10.054  0.6599 -0.8606 -1.2515
    4SAPS   H2Y  436   3.865   1.812  10.012 -0.6814 -0.3959  0.7958
    4SAPS   C23  437   3.736   1.532  10.262  0.9456 -0.2441  0.4279
    4SAPS   H3R  438   3.814   1.469  10.310 -1.8029 -3.4695  1.0356
    4SAPS   H3S  439   3.774   1.626  10.217 -2.7169 -0.0943 -2.8751
    4SAPS   C24  440   3.677   1.449  10.148  0.0327 -0.0474 -0.3592
    4SAPS   H4R  441   3.590   1.511  10.118  0.0848  0.8529  1.2478
    4SAPS   H4S  442   3.645   1.351  10.190  2.1520 -0.5841  0.1210
    4SAPS   C25  443   3.782   1.408  10.044 -0.6394 -0.2954  0.9820
    4SAPS   H5R  444   3.870   1.356  10.085  1.4292  1.0973 -1.3747
    4SAPS   C26  445   3.801   1.440   9.912  0.0671  0.0800  0.4144
    4SAPS   H6R  446   3.889   1.400   9.860  1.0291 -0.3095  2.2438
    4SAPS   C27  447   3.711   1.534   9.833  0.3802 -0.1781 -0.1738
    4SAPS   H7R  448   3.639   1.591   9.895 -1.5591 -0.8458 -1.7013
    4SAPS   H7S  449   3.645   1.474   9.767  1.9280  1.0696 -3.0169
    4SAPS   C28  450   3.787   1.634   9.756  0.7573  0.4596  0.2023
    4SAPS   H8R  451   3.810   1.723   9.816  1.6798  2.1312 -2.4608
    4SAPS   C29  452   3.815   1.635   9.624 -0.4094  0.2161  0.1928
    4SAPS   H9R  453   3.872   1.719   9.581 -0.8704  1.6330  2.2179
    4SAPS  C210  454   3.795   1.533   9.515 -0.3201  0.3392  0.8008
    4SAPS  H10R  455   3.811   1.433   9.559 -0.2499 -0.2865 -0.5826
    4SAPS  H10S  456   3.872   1.548   9.436 -0.2247  4.6968  1.4785
    4SAPS  C211  457   3.657   1.553   9.448  0.2461  0.8374 -0.2705
    4SAPS  H11R  458   3.573   1.577   9.515 -1.0782 -1.0597 -1.1739
    4SAPS  C212  459   3.633   1.549   9.304 -0.2298  0.1390 -0.3949
    4SAPS  H12R  460   3.533   1.577   9.268 -0.0084  1.6694  0.1236
    4SAPS  C213  461   3.748   1.526   9.209  0.1152  0.9746  0.1422
    4SAPS  H13R  462   3.780   1.421   9.225 -2.5576 -0.0499 -0.6221
    4SAPS  H13S  463   3.840   1.586   9.223 -0.7638  2.9124 -1.7540
    4SAPS  C214  464   3.706   1.516   9.065  0.0268  0.5648 -0.2844
    4SAPS  H14R  465   3.664   1.421   9.031  0.8766 -0.3955  1.2373
    4SAPS  C215  466   3.697   1.620   8.983 -0.2997 -0.1533 -0.0200
    4SAPS  H15R  467   3.648   1.605   8.885 -3.5278 -0.0005  1.4323
    4SAPS  C216  468   3.740   1.751   9.021  0.0803  0.0980 -0.4012
    4SAPS  H16R  469   3.818   1.750   9.100 -1.8250 -2.4807  1.6002
    4SAPS  H16S  470   3.649   1.793   9.069 -0.1454 -1.5535  0.6774
    4SAPS  C217  471   3.779   1.840   8.907  0.1840 -0.0273  0.4884
    4SAPS  H17R  472   3.797   1.941   8.951  1.1654  0.7005 -1.4478
    4SAPS  H17S  473   3.689   1.840   8.842 -0.6581  3.0104  1.4734
    4SAPS  C218  474   3.901   1.808   8.818  0.0674  0.0189 -0.1404
    4SAPS  H18R  475   3.897   1.703   8.783  1.6647 -0.8235  1.9265
    4SAPS  H18S  476   3.991   1.816   8.882 -0.5209 -0.2702  0.7456
    4SAPS  C219  477   3.939   1.916   8.713  0.2931  0.1170  0.0723
    4SAPS  H19R  478   3.930   2.017   8.759 -0.2509  0.5147 -0.8740
    4SAPS  H19S  479   3.862   1.911   8.633  0.2422  0.7767  0.0737
    4SAPS  C220  480   4.074   1.896   8.653 -0.4480  0.3273 -0.6916
    4SAPS  H20R  481   4.151   1.884   8.732 -1.1608  0.6078  0.0523
    4SAPS  H20S  482   4.099   1.981   8.586  0.9401 -0.6579 -1.4906
    4SAPS  H20T  483   4.071   1.800   8.597  1.2730  0.1369 -0.5284
    4SAPS   C33  484   4.038   1.778  10.106 -0.0218  0.3546  0.0074
    4SAPS   H3X  485   3.997   1.675  10.118  0.0694  0.2954 -0.1970
    4SAPS   H3Y  486   4.088   1.806  10.201 -0.3430 -1.0945  0.6371
    4SAPS   C34  487   4.140   1.789   9.991  0.1643  0.2425  0.2846
    4SAPS   H4X  488   4.076   1.785   9.900  1.5864  0.1796 -0.7495
    4SAPS   H4Y  489   4.207   1.701   9.994 -0.9632 -0.6070  2.6085
    4SAPS   C35  490   4.239   1.903  10.003 -0.4101 -0.8797  0.1859
    4SAPS   H5X  491   4.286   1.890  10.103 -1.2351  3.1185  1.2879
    4SAPS   H5Y  492   4.186   2.001  10.008  1.7945  0.3157  1.8293
    4SAPS   C36  493   4.354   1.899   9.899  0.2980 -0.1012 -0.2774
    4SAPS   H6X  494   4.388   1.793   9.896 -0.5364 -0.3565 -2.9330
    4SAPS   H6Y  495   4.436   1.967   9.930  2.7807 -1.5132 -3.1644
    4SAPS   C37  496   4.313   1.901   9.754  0.4295 -0.0918 -0.4820
    4SAPS   H7X  497   4.272   2.003   9.736  0.0922 -0.4754 -2.0937
    4SAPS   H7Y  498   4.236   1.824   9.733 -0.1344  0.6093 -1.0265
    4SAPS   C38  499   4.434   1.879   9.663 -0.0679 -0.1342  0.1963
    4SAPS   H8X  500   4.484   1.780   9.671  2.2624  0.9803  0.0356
    4SAPS   H8Y  501   4.519   1.948   9.681 -0.6921  1.5444 -2.6074
    4SAPS   C39  502   4.397   1.905   9.518 -0.1089 -0.1602 -0.6878
    4SAPS   H9X  503   4.388   2.014   9.500 -3.1740 -0.2922 -0.4589
    4SAPS   H9Y  504   4.298   1.855   9.505 -1.2680  2.1597 -1.3509
    4SAPS  C310  505   4.502   1.857   9.422  0.3008  0.7887  0.5949
    4SAPS  H10X  506   4.539   1.754   9.440 -1.1380  0.2919  0.9021
    4SAPS  H10Y  507   4.595   1.917   9.424  0.7867  0.2890 -2.4984
    4SAPS  C311  508   4.454   1.862   9.274 -0.1061 -0.0827  0.3575
    4SAPS  H11X  509   4.429   1.967   9.248 -1.2486 -0.6102 -0.7757
    4SAPS  H11Y  510   4.358   1.810   9.250 -0.8398  1.9458 -1.4610
    4SAPS  C312  511   4.577   1.817   9.190  0.1962 -0.9524  0.7633
    4SAPS  H12X  512   4.598   1.712   9.219 -0.4706 -1.6995 -1.3321
    4SAPS  H12Y  513   4.661   1.878   9.230 -1.3657  1.2969  0.8044
    4SAPS  C313  514   4.565   1.821   9.035 -0.5730  0.1367  0.0089
    4SAPS  H13X  515   4.506   1.739   8.988 -0.1370 -0.6285  0.7720
    4SAPS  H13Y  516   4.667   1.798   8.997 -0.5987 -0.9947  0.6084
    4SAPS  C314  517   4.514   1.953   8.974 -0.3322  0.8905  0.5245
    4SAPS  H14X  518   4.544   2.047   9.025 -2.1120  0.4508  2.5344
    4SAPS  H14Y  519   4.404   1.943   8.962 -0.3242 -0.7800  1.4281
    4SAPS  C315  520   4.569   1.965   8.823 -0.1434  0.0980  0.1751
    4SAPS  H15X  521   4.519   1.881   8.771 -1.6700  1.2096 -0.2269
    4SAPS  H15Y  522   4.679   1.962   8.806 -0.5214  1.7503 -3.7352
    4SAPS  C316  523   4.512   2.087   8.744  0.3825  0.0867 -0.1770
    4SAPS  H16X  524   4.515   2.190   8.785 -1.1249  1.1602 -2.5320
    4SAPS  H16Y  525   4.403   2.067   8.734  0.3444  0.7248 -1.2019
    4SAPS  C317  526   4.575   2.104   8.598  1.3150 -0.9451 -0.1254
    4SAPS  H17X  527   4.547   2.008   8.551 -0.6404 -0.1722 -0.6296
    4SAPS  H17Y  528   4.684   2.123   8.611  0.8574  0.8923  1.4436
    4SAPS  C318  529   4.519   2.219   8.518  0.1285  0.7973 -0.0881
    4SAPS  H18X  530   4.543   2.316   8.567  2.8702 -0.2491  0.8336
    4SAPS  H18Y  531   4.414   2.200   8.485  0.2725  0.8380 -0.5752
    4SAPS  H18Z  532   4.580   2.215   8.426  0.3491 -0.4554  0.0984
    5SAPS     N  533   1.140   6.627  10.696  0.4243  0.0344 -0.5669
    5SAPS   HN1  534   1.114   6.573  10.611 -1.1989  1.2935 -0.9276
    5SAPS   HN2  535   1.061   6.685  10.730 -1.6010 -1.4416 -2.4865
    5SAPS   HN3  536   1.222   6.686  10.669  1.1452 -1.8373 -2.8454
    5SAPS   C12  537   1.190   6.526  10.799  0.0795  0.9499  0.1571
    5SAPS  H12A  538   1.173   6.562  10.899  0.8865  3.1365 -0.4343
    5SAPS   C13  539   1.131   6.384  10.803 -0.4150 -0.5031 -0.3103
    5SAPS  O13A  540   1.025   6.357  10.736  0.2368  0.3052  0.1010
    5SAPS  O13B  541   1.164   6.307  10.895  0.7587 -0.3027 -0.2187
    5SAPS   C11  542   1.345   6.515  10.780 -0.3362  0.2498  0.7477
    5SAPS  H11A  543   1.373   6.464  10.685  1.0057  0.0639  1.2204
    5SAPS  H11B  544   1.389   6.445  10.854  0.3242 -2.1839 -1.7738
    5SAPS     P  545   1.539   6.677  10.862 -0.0645  0.1967  0.3273
    5SAPS   O13  546   1.519   6.807  10.928 -0.7498  0.2791  0.6744
    5SAPS   O14  547   1.577   6.568  10.955 -0.5437  0.6110  0.3698
    5SAPS   O12  548   1.404   6.651  10.792  0.2154 -0.0994 -0.5809
    5SAPS   O11  549   1.646   6.681  10.749  0.0424  0.3128 -0.7333
    5SAPS    C1  550   1.745   6.787  10.752  0.3419 -0.4130  0.7284
    5SAPS    HA  551   1.774   6.824  10.853  0.0601  2.3421 -0.1429
    5SAPS    HB  552   1.834   6.750  10.698  0.0872 -0.9706  0.6803
    5SAPS    C2  553   1.715   6.918  10.658  0.6547 -0.2292 -0.6038
    5SAPS    HS  554   1.608   6.949  10.658  0.5857 -0.4695 -0.5439
    5SAPS   O21  555   1.765   6.888  10.529  0.1278 -0.6003  0.4483
    5SAPS   C21  556   1.689   6.803  10.464  0.5426 -0.0460  0.4729
    5SAPS   O22  557   1.566   6.789  10.478  0.2752  0.5156  0.6066
    5SAPS   C22  558   1.770   6.721  10.367 -0.1726 -0.2815  0.2226
    5SAPS   H2R  559   1.846   6.793  10.330 -1.2906  1.2592  0.7971
    5SAPS   H2S  560   1.823   6.638  10.418  1.5563  1.2724  1.0728
    5SAPS    C3  561   1.778   7.050  10.717 -0.4053  0.3504  0.3326
    5SAPS    HX  562   1.886   7.031  10.738 -0.7936 -0.5536  1.5956
    5SAPS    HY  563   1.726   7.067  10.813 -0.9417 -0.3610  0.1720
    5SAPS   O31  564   1.764   7.170  10.623 -0.3667 -0.3521 -0.6925
    5SAPS   C31  565   1.822   7.275  10.678 -0.1341 -0.5982  0.1515
    5SAPS   O32  566   1.886   7.279  10.781 -0.1931 -0.3260 -0.2162
    5SAPS   C32  567   1.809   7.394  10.579  0.4796  0.3944 -0.4261
    5SAPS   H2X  568   1.725   7.448  10.625  2.2737  2.6746  0.3260
    5SAPS   H2Y  569   1.769   7.361  10.480  0.2609 -1.1891  0.1612
    5SAPS   C23  570   1.695   6.672  10.242  0.5056 -0.2993 -1.0383
    5SAPS   H3R  571   1.635   6.755  10.199 -0.5130  0.0873  1.0276
    5SAPS   H3S  572   1.618   6.596  10.266 -0.2116  0.4590 -0.9201
    5SAPS   C24  573   1.785   6.619  10.125 -0.5401 -0.5839 -0.0158
    5SAPS   H4R  574   1.714   6.560  10.064 -3.7374 -0.1288  2.9724
    5SAPS   H4S  575   1.862   6.554  10.173  2.4978  1.5174 -1.6846
    5SAPS   C25  576   1.856   6.733  10.047  0.9964  0.4750  0.0758
    5SAPS   H5R  577   1.930   6.784  10.110 -0.3011  0.7876  1.3932
    5SAPS   C26  578   1.836   6.776   9.919 -0.2756  0.5090  0.0983
    5SAPS   H6R  579   1.866   6.881   9.902  0.6485  0.9087  3.5233
    5SAPS   C27  580   1.755   6.718   9.807 -0.2580  0.5555  0.2391
    5SAPS   H7R  581   1.726   6.795   9.731 -2.9814 -0.9107 -0.3188
    5SAPS   H7S  582   1.652   6.707   9.847 -0.5328  0.3376 -0.5111
    5SAPS   C28  583   1.817   6.595   9.733 -0.3774  0.5697 -0.0349
    5SAPS   H8R  584   1.872   6.539   9.810 -1.6854  0.4581  0.8507
    5SAPS   C29  585   1.814   6.564   9.599  0.3155  0.4888  0.3098
    5SAPS   H9R  586   1.852   6.464   9.571 -0.7826 -0.2409  1.3128
    5SAPS  C210  587   1.732   6.629   9.490 -0.4900  0.4333 -0.1293
    5SAPS  H10R  588   1.655   6.698   9.532 -1.5839 -0.6875 -0.2255
    5SAPS  H10S  589   1.660   6.549   9.464  0.5393  0.2144 -2.6025
    5SAPS  C211  590   1.802   6.684   9.370  0.3882  0.3490 -1.1498
    5SAPS  H11R  591   1.867   6.770   9.394 -0.8282  0.6088  1.6008
    5SAPS  C212  592   1.787   6.636   9.244  0.5251 -0.7280  0.7572
    5SAPS  H12R  593   1.843   6.689   9.165  2.0756 -0.2133  2.1456
    5SAPS  C213  594   1.705   6.521   9.194 -0.2305 -0.7422  0.1948
    5SAPS  H13R  595   1.703   6.447   9.276 -1.9121  1.4286  2.2605
    5SAPS  H13S  596   1.750   6.473   9.104  2.7590  0.4813  0.9042
    5SAPS  C214  597   1.567   6.562   9.169 -0.1226 -0.3205  0.3986
    5SAPS  H14R  598   1.525   6.639   9.236 -2.6293 -0.7952 -0.5151
    5SAPS  C215  599   1.470   6.511   9.080 -0.2817 -0.8747 -0.3163
    5SAPS  H15R  600   1.372   6.560   9.073 -0.1694 -0.6043 -0.0103
    5SAPS  C216  601   1.491   6.400   8.982  0.1892  0.6305 -0.2792
    5SAPS  H16R  602   1.407   6.328   8.995  1.3023 -0.5152  0.8260
    5SAPS  H16S  603   1.586   6.344   8.997 -0.7863 -1.0118  0.0022
    5SAPS  C217  604   1.500   6.443   8.838 -0.1645 -0.8931 -1.0685
    5SAPS  H17R  605   1.572   6.527   8.835  0.0276 -0.9235  1.0912
    5SAPS  H17S  606   1.406   6.486   8.798  0.0457  2.6364  1.7312
    5SAPS  C218  607   1.552   6.328   8.749  0.5785  0.3469  0.7051
    5SAPS  H18R  608   1.484   6.240   8.759 -1.4256  2.0549  3.6018
    5SAPS  H18S  609   1.533   6.361   8.645  1.0251 -0.1548  0.4596
    5SAPS  C219  610   1.694   6.292   8.755  0.3383  0.7277  0.7618
    5SAPS  H19R  611   1.711   6.235   8.848  0.6331  1.1491  0.9683
    5SAPS  H19S  612   1.748   6.389   8.753 -0.5889  1.2478 -0.1970
    5SAPS  C220  613   1.733   6.198   8.646 -0.6850  0.0672  0.4912
    5SAPS  H20R  614   1.734   6.251   8.549  1.6148 -0.9633 -0.1141
    5SAPS  H20S  615   1.664   6.112   8.643  0.7687 -1.1250 -0.2550
    5SAPS  H20T  616   1.835   6.154   8.656 -0.9063 -0.9626 -1.3745
    5SAPS   C33  617   1.933   7.479  10.561 -0.0416  0.6359 -0.1999
    5SAPS   H3X  618   1.972   7.514  10.659  1.5758 -0.3985 -0.4483
    5SAPS   H3Y  619   1.902   7.572  10.508 -0.9708  0.3746 -0.1174
    5SAPS   C34  620   2.051   7.409  10.488  0.4576 -0.1678  0.2360
    5SAPS   H4X  621   2.075   7.323  10.554 -1.8546 -1.7339 -0.8169
    5SAPS   H4Y  622   2.133   7.484  10.481 -0.0877  0.3531 -0.6459
    5SAPS   C35  623   2.018   7.372  10.341  0.3635 -0.1866  0.7332
    5SAPS   H5X  624   1.931   7.302  10.343  1.5712 -1.7294  2.2246
    5SAPS   H5Y  625   2.099   7.307  10.302 -1.0798 -0.1124 -2.6655
    5SAPS   C36  626   1.997   7.499  10.249 -0.5301  0.1661 -0.2338
    5SAPS   H6X  627   2.088   7.561  10.263 -1.2192  0.6782  2.4981
    5SAPS   H6Y  628   1.907   7.550  10.288  0.5623  0.2174  2.4134
    5SAPS   C37  629   1.978   7.450  10.109 -0.3487 -0.2121 -0.0285
    5SAPS   H7X  630   1.894   7.380  10.095  0.8712 -1.3803 -1.9393
    5SAPS   H7Y  631   2.062   7.381  10.085  0.9349  0.9119  1.0376
    5SAPS   C38  632   1.975   7.570  10.013 -0.2831  0.1429 -0.1162
    5SAPS   H8X  633   2.073   7.621  10.020 -0.1415  0.0825 -1.3730
    5SAPS   H8Y  634   1.892   7.643  10.027  0.1619  0.5673  0.3333
    5SAPS   C39  635   1.968   7.517   9.875  0.0135 -1.0749  0.7601
    5SAPS   H9X  636   1.871   7.465   9.858 -1.3144  0.7201  2.4108
    5SAPS   H9Y  637   2.053   7.446   9.864  1.3867  0.5306  0.6344
    5SAPS  C310  638   1.997   7.630   9.776 -0.5349  0.0723 -0.1825
    5SAPS  H10X  639   2.093   7.673   9.812 -0.4058 -1.5055  1.5356
    5SAPS  H10Y  640   1.918   7.706   9.789 -1.0102 -0.5735  0.8395
    5SAPS  C311  641   2.029   7.588   9.631  0.1605  0.6157  0.4174
    5SAPS  H11X  642   2.109   7.512   9.638 -0.1753  0.1425 -0.7765
    5SAPS  H11Y  643   2.076   7.668   9.569  0.1430  0.3081  0.0064
    5SAPS  C312  644   1.910   7.536   9.548  0.4074 -0.1344 -0.0597
    5SAPS  H12X  645   1.838   7.620   9.533  0.2439 -0.1817  0.4490
    5SAPS  H12Y  646   1.865   7.455   9.608  0.5970 -0.4260 -0.3100
    5SAPS  C313  647   1.949   7.495   9.406  0.2830  0.4715  0.4053
    5SAPS  H13X  648   2.013   7.404   9.408 -0.1772  0.0895 -0.8549
    5SAPS  H13Y  649   2.009   7.577   9.360  0.3956 -0.2225 -0.7226
    5SAPS  C314  650   1.837   7.476   9.304  0.1681  0.5500 -0.1513
    5SAPS  H14X  651   1.766   7.561   9.299  0.6282  1.0148  0.8750
    5SAPS  H14Y  652   1.774   7.388   9.328  0.9450 -0.0916 -0.4206
    5SAPS  C315  653   1.901   7.454   9.168 -0.4044  0.4101 -0.4019
    5SAPS  H15X  654   1.821   7.419   9.100  0.4171  0.7408 -1.5735
    5SAPS  H15Y  655   1.987   7.384   9.177 -2.2089 -1.8676 -0.1885
    5SAPS  C316  656   1.955   7.589   9.104  0.0063  0.5846 -0.2110
    5SAPS  H16X  657   1.994   7.570   9.001 -1.7985 -2.7416 -0.4075
    5SAPS  H16Y  658   2.037   7.627   9.168  0.7507  1.0430 -1.3977
    5SAPS  C317  659   1.847   7.694   9.064  0.6516 -0.0955 -0.0740
    5SAPS  H17X  660   1.900   7.780   9.019  2.5761 -1.9480 -1.5202
    5SAPS  H17Y  661   1.776   7.736   9.139  0.1366  1.4054 -1.3381
    5SAPS  C318  662   1.745   7.633   8.958 -0.1571 -0.5133 -1.0656
    5SAPS  H18X  663   1.802   7.571   8.886 -0.5569 -2.9694  0.6032
    5SAPS  H18Y  664   1.695   7.718   8.906  1.5511  0.7119 -0.7946
    5SAPS  H18Z  665   1.671   7.575   9.018  0.1306  1.4323  1.3228
    6SAPS     N  666   6.456   1.388  10.676  0.2060 -0.4086 -0.2590
    6SAPS   HN1  667   6.363   1.397  10.632  0.2875 -1.1785 -0.6056
    6SAPS   HN2  668   6.530   1.380  10.603 -0.3678  2.6593 -1.3314
    6SAPS   HN3  669   6.463   1.304  10.736  0.5028  0.6862  1.3269
    6SAPS   C12  670   6.495   1.513  10.752 -0.3042 -0.0076 -0.1153
    6SAPS  H12A  671   6.424   1.548  10.826  0.5531  1.9211 -0.1354
    6SAPS   C13  672   6.642   1.495  10.818  0.3898 -0.4519 -0.0802
    6SAPS  O13A  673   6.713   1.397  10.795 -0.5145 -0.4966 -0.4942
    6SAPS  O13B  674   6.682   1.595  10.878 -0.0601  0.3265  0.1899
    6SAPS   C11  675   6.497   1.629  10.659  0.2426  0.1430  0.5651
    6SAPS  H11A  676   6.581   1.611  10.589 -0.1025 -1.0948  0.4480
    6SAPS  H11B  677   6.521   1.725  10.711  0.6837 -2.0600  4.8777
    6SAPS     P  678   6.245   1.732  10.617  0.5683  0.1897 -0.2266
    6SAPS   O13  679   6.146   1.706  10.510 -0.0642 -0.2076  0.4775
    6SAPS   O14  680   6.206   1.698  10.757 -0.4485 -0.8442  0.7462
    6SAPS   O12  681   6.380   1.643  10.585  0.6065  0.2000  1.0635
    6SAPS   O11  682   6.299   1.879  10.609  0.3515 -0.6591 -0.0034
    6SAPS    C1  683   6.340   1.936  10.483  0.2210  0.7889 -0.0311
    6SAPS    HA  684   6.396   1.858  10.426  0.1482  1.7062 -1.3860
    6SAPS    HB  685   6.261   1.966  10.412  1.3970 -0.6825 -2.0962
    6SAPS    C2  686   6.455   2.043  10.505  0.4117  0.2586  0.5080
    6SAPS    HS  687   6.402   2.106  10.579 -1.7311 -1.0466  0.1913
    6SAPS   O21  688   6.470   2.109  10.378 -0.1900 -0.1990  0.4072
    6SAPS   C21  689   6.522   2.232  10.406  0.9335  0.1896 -0.4301
    6SAPS   O22  690   6.535   2.275  10.519 -0.4134 -0.3934 -0.0912
    6SAPS   C22  691   6.551   2.306  10.285  0.3660  0.5724 -0.1779
    6SAPS   H2R  692   6.552   2.246  10.191  1.1416  1.5693 -0.8250
    6SAPS   H2S  693   6.458   2.365  10.270 -0.3048  0.1232  1.9117
    6SAPS    C3  694   6.582   1.972  10.572  0.2847 -0.7426  0.0688
    6SAPS    HX  695   6.550   1.932  10.670  0.7207  0.9635  0.9419
    6SAPS    HY  696   6.661   2.046  10.596  1.7932 -1.8728 -1.1673
    6SAPS   O31  697   6.633   1.879  10.479  0.3139 -0.1835  1.0428
    6SAPS   C31  698   6.714   1.923  10.382 -0.3593 -0.5651  0.0600
    6SAPS   O32  699   6.751   2.041  10.377 -0.7108 -0.5654  0.2403
    6SAPS   C32  700   6.776   1.812  10.301 -0.2315 -0.5956  0.3298
    6SAPS   H2X  701   6.755   1.711  10.340 -0.1241 -1.1673 -1.0596
    6SAPS   H2Y  702   6.885   1.833  10.300 -0.5601  1.4676 -1.6855
    6SAPS   C23  703   6.678   2.403  10.292  0.2004  0.7159 -0.4126
    6SAPS   H3R  704   6.771   2.343  10.296 -0.4652 -0.3909 -1.0197
    6SAPS   H3S  705   6.670   2.474  10.377 -2.2940 -0.8909  0.7969
    6SAPS   C24  706   6.693   2.481  10.168  0.2507  0.3341 -0.0136
    6SAPS   H4R  707   6.778   2.552  10.180  0.9636 -0.8347  2.6252
    6SAPS   H4S  708   6.607   2.550  10.153  0.8880  0.9655 -0.8825
    6SAPS   C25  709   6.719   2.400  10.042 -0.5693 -0.1781  0.1082
    6SAPS   H5R  710   6.743   2.294  10.060  2.3676  0.4559  0.5858
    6SAPS   C26  711   6.738   2.459   9.918  1.0648  0.1510  0.3496
    6SAPS   H6R  712   6.768   2.401   9.829 -0.1651  0.6740 -0.4377
    6SAPS   C27  713   6.717   2.607   9.896 -0.1096 -0.3494 -0.3548
    6SAPS   H7R  714   6.794   2.643   9.825 -0.5490 -1.0134 -1.1892
    6SAPS   H7S  715   6.723   2.663   9.992 -1.8133 -2.1226  0.8557
    6SAPS   C28  716   6.580   2.619   9.835 -0.0644 -0.6075  0.1250
    6SAPS   H8R  717   6.501   2.609   9.912 -1.2241 -1.4186 -1.1269
    6SAPS   C29  718   6.552   2.639   9.704 -0.0006  0.4164  0.6155
    6SAPS   H9R  719   6.448   2.622   9.672  0.4756 -0.5795 -0.4322
    6SAPS  C210  720   6.656   2.638   9.595 -0.4397 -0.3638  0.2820
    6SAPS  H10R  721   6.758   2.666   9.629  0.5532 -3.7266  0.4785
    6SAPS  H10S  722   6.619   2.711   9.520 -2.1324 -0.2904  1.1529
    6SAPS  C211  723   6.680   2.509   9.530  0.4375  0.7254 -0.0351
    6SAPS  H11R  724   6.683   2.426   9.602  1.0905 -0.1941 -1.0840
    6SAPS  C212  725   6.696   2.478   9.400  0.0400  0.0927 -0.1300
    6SAPS  H12R  726   6.713   2.371   9.381  0.8485  0.3682 -1.0395
    6SAPS  C213  727   6.686   2.573   9.283  0.2886 -0.1513 -0.3697
    6SAPS  H13R  728   6.747   2.665   9.299 -2.0523  1.1802  1.5823
    6SAPS  H13S  729   6.588   2.624   9.292  0.3537 -0.1084  0.1369
    6SAPS  C214  730   6.717   2.504   9.143 -0.2963 -0.7208 -2.1321
    6SAPS  H14R  731   6.750   2.399   9.154 -1.6789 -1.0337 -0.3769
    6SAPS  C215  732   6.683   2.566   9.028 -0.4794  0.4080 -0.7386
    6SAPS  H15R  733   6.715   2.516   8.935  0.3839  1.0215 -0.7811
    6SAPS  C216  734   6.625   2.710   9.020  0.4314  0.8052  0.1018
    6SAPS  H16R  735   6.704   2.781   9.050  2.4660 -0.8559 -1.0650
    6SAPS  H16S  736   6.544   2.723   9.096  0.8638  2.0253  0.3711
    6SAPS  C217  737   6.573   2.742   8.881  0.5498  0.3786  0.3030
    6SAPS  H17R  738   6.483   2.684   8.851  1.0415 -0.1354 -0.1885
    6SAPS  H17S  739   6.657   2.718   8.813 -1.7605 -0.4037 -2.4690
    6SAPS  C218  740   6.527   2.889   8.865 -0.7592  0.0327  0.6971
    6SAPS  H18R  741   6.469   2.918   8.955 -1.8401  0.1712 -0.0168
    6SAPS  H18S  742   6.465   2.891   8.772  1.2578 -2.7875 -0.8564
    6SAPS  C219  743   6.643   2.987   8.847  0.8218 -0.0884 -0.5869
    6SAPS  H19R  744   6.720   2.958   8.922  3.0556  2.4369 -1.7632
    6SAPS  H19S  745   6.609   3.091   8.864 -1.3814 -0.7914 -0.3882
    6SAPS  C220  746   6.712   2.986   8.707 -0.0110  0.6468  0.4396
    6SAPS  H20R  747   6.811   3.035   8.718  0.2731  0.8144 -2.2104
    6SAPS  H20S  748   6.654   3.040   8.630  0.2318  1.0226  0.5188
    6SAPS  H20T  749   6.731   2.882   8.671 -1.3100  0.2893  0.7184
    6SAPS   C33  750   6.738   1.830  10.151 -0.2272 -0.4208 -0.5523
    6SAPS   H3X  751   6.811   1.775  10.088 -0.4858 -1.1713 -0.2156
    6SAPS   H3Y  752   6.732   1.936  10.119 -1.5180 -0.3977 -0.2821
    6SAPS   C34  753   6.604   1.774  10.121 -0.3300 -0.3743  0.3881
    6SAPS   H4X  754   6.533   1.835  10.181 -2.0256  0.1093 -1.9500
    6SAPS   H4Y  755   6.596   1.666  10.146  1.4578 -0.4182  0.8850
    6SAPS   C35  756   6.557   1.787   9.977  0.3260 -0.1831 -0.4207
    6SAPS   H5X  757   6.631   1.757   9.900 -0.0227  0.2581 -0.9344
    6SAPS   H5Y  758   6.540   1.896   9.960 -2.4237 -0.3113  0.9327
    6SAPS   C36  759   6.433   1.704   9.941  0.0596 -0.7290  0.1007
    6SAPS   H6X  760   6.345   1.737  10.001  0.2092 -0.6210  0.2596
    6SAPS   H6Y  761   6.451   1.597   9.963 -0.7543 -1.1310 -1.0975
    6SAPS   C37  762   6.395   1.720   9.796  0.8470 -0.1560 -0.3003
    6SAPS   H7X  763   6.476   1.685   9.729  0.3934 -1.3660 -0.2361
    6SAPS   H7Y  764   6.391   1.829   9.774  1.6410  0.0858  0.6570
    6SAPS   C38  765   6.267   1.635   9.756  0.2962  0.4013 -0.2757
    6SAPS   H8X  766   6.177   1.692   9.789  1.5884  1.7725  1.0718
    6SAPS   H8Y  767   6.284   1.540   9.811  1.8042  0.4668 -0.5974
    6SAPS   C39  768   6.272   1.590   9.609  0.4038 -0.9170 -0.0470
    6SAPS   H9X  769   6.206   1.501   9.598 -0.4186 -0.3508  0.2066
    6SAPS   H9Y  770   6.372   1.547   9.589  1.6717  0.9853  1.7399
    6SAPS  C310  771   6.240   1.692   9.496 -0.0502 -0.1940 -1.0404
    6SAPS  H10X  772   6.291   1.787   9.523 -3.0129  0.8686  1.4055
    6SAPS  H10Y  773   6.130   1.707   9.496 -0.3353 -1.8505  1.0070
    6SAPS  C311  774   6.287   1.649   9.355 -0.0794 -0.3025  0.5758
    6SAPS  H11X  775   6.262   1.542   9.340 -0.3577 -0.2296  0.5087
    6SAPS  H11Y  776   6.394   1.673   9.338 -0.4073  2.1294  1.4480
    6SAPS  C312  777   6.210   1.725   9.247  0.5065 -0.4635  0.0231
    6SAPS  H12X  778   6.170   1.816   9.296 -1.9612 -1.8348  0.7021
    6SAPS  H12Y  779   6.113   1.677   9.223 -0.3108  1.2160 -0.1866
    6SAPS  C313  780   6.288   1.753   9.116  0.2935 -0.4125  0.4843
    6SAPS  H13X  781   6.325   1.661   9.067  0.1419  0.8192 -2.0769
    6SAPS  H13Y  782   6.376   1.816   9.142  1.6383 -2.0535  0.0741
    6SAPS  C314  783   6.193   1.822   9.015 -0.2856  0.1222  0.2843
    6SAPS  H14X  784   6.166   1.925   9.048 -0.7181 -0.4497  1.7947
    6SAPS  H14Y  785   6.106   1.754   9.010 -0.0582 -0.2039  0.7556
    6SAPS  C315  786   6.255   1.825   8.870  0.4587 -0.6447 -0.4126
    6SAPS  H15X  787   6.217   1.729   8.827  2.6983 -1.4899 -0.6587
    6SAPS  H15Y  788   6.366   1.810   8.872  0.6365  0.0661 -2.6674
    6SAPS  C316  789   6.213   1.941   8.786  0.3231 -0.1393 -0.2251
    6SAPS  H16X  790   6.239   2.036   8.837 -0.5287 -0.3839  0.6957
    6SAPS  H16Y  791   6.103   1.939   8.766  0.2041  1.5951  0.1226
    6SAPS  C317  792   6.270   1.941   8.642  0.5040 -0.5340 -0.0406
    6SAPS  H17X  793   6.381   1.948   8.639  0.3955  1.8460 -0.3306
    6SAPS  H17Y  794   6.241   2.042   8.607  2.2715  0.8030  2.1333
    6SAPS  C318  795   6.226   1.824   8.558 -0.4193  0.3188  0.0895
    6SAPS  H18X  796   6.115   1.820   8.548 -0.4276 -3.1388  0.3701
    6SAPS  H18Y  797   6.256   1.724   8.597  1.3806  0.8699  0.2149
    6SAPS  H18Z  798   6.277   1.835   8.460 -0.2366 -2.4905 -0.2163
    7SAPS     N  799   2.554   3.062  10.512 -0.1402  0.2268 -0.8720
    7SAPS   HN1  800   2.539   3.131  10.435  0.6124  3.0550  1.3546
    7SAPS   HN2  801   2.599   2.976  10.474  1.1475  0.2839  0.4316
    7SAPS   HN3  802   2.463   3.024  10.546  0.6214 -0.2613  0.7246
    7SAPS   C12  803   2.606   3.132  10.642 -1.2085 -0.3767 -1.0694
    7SAPS  H12A  804   2.714   3.123  10.651 -1.3775 -0.9075  0.8599
    7SAPS   C13  805   2.576   3.293  10.659 -0.1605 -0.0047  0.1190
    7SAPS  O13A  806   2.510   3.359  10.579  0.7385  0.3759  0.5112
    7SAPS  O13B  807   2.623   3.344  10.765 -0.0091  0.8040  0.0636
    7SAPS   C11  808   2.529   3.064  10.770 -0.1751 -0.0030 -0.3296
    7SAPS  H11A  809   2.419   3.085  10.766  0.4160  3.7355 -0.6961
    7SAPS  H11B  810   2.572   3.119  10.856  1.1268 -1.8818  0.2855
    7SAPS     P  811   2.540   2.831  10.889  0.2025 -0.0035  0.1358
    7SAPS   O13  812   2.649   2.870  10.984 -0.1023  0.2204  0.4266
    7SAPS   O14  813   2.403   2.840  10.939  0.2711 -0.0348  0.6610
    7SAPS   O12  814   2.561   2.918  10.766  0.0934 -0.7623 -0.8959
    7SAPS   O11  815   2.563   2.675  10.841 -0.8079  0.5746 -0.0109
    7SAPS    C1  816   2.651   2.660  10.731 -0.4743 -0.0942 -0.1743
    7SAPS    HA  817   2.725   2.741  10.718 -1.9315  1.3759  0.4144
    7SAPS    HB  818   2.704   2.563  10.744  1.6108  1.0255  0.2033
    7SAPS    C2  819   2.569   2.640  10.597  0.1635  0.5073  0.4997
    7SAPS    HS  820   2.524   2.736  10.565  1.2448  0.8128 -0.1339
    7SAPS   O21  821   2.466   2.539  10.619 -0.0237 -0.4925 -0.0550
    7SAPS   C21  822   2.341   2.569  10.585  0.8282 -0.7056 -0.4869
    7SAPS   O22  823   2.301   2.677  10.534 -0.3568  0.0888  0.3912
    7SAPS   C22  824   2.243   2.469  10.654  0.2729  0.0643  0.3507
    7SAPS   H2R  825   2.300   2.405  10.724 -0.4773 -1.7244 -0.6081
    7SAPS   H2S  826   2.160   2.529  10.697  0.6804 -0.6060  2.1701
    7SAPS    C3  827   2.666   2.597  10.484 -0.1116 -0.3023  0.8577
    7SAPS    HX  828   2.710   2.499  10.510 -0.1455 -0.0937  1.7529
    7SAPS    HY  829   2.744   2.677  10.487 -0.7461  0.3792  0.0014
    7SAPS   O31  830   2.603   2.599  10.350  0.0523  0.0827  0.1396
    7SAPS   C31  831   2.566   2.722  10.307  0.0839  0.7549  0.3055
    7SAPS   O32  832   2.589   2.826  10.368  0.2125 -0.4036  0.4673
    7SAPS   C32  833   2.483   2.705  10.179 -0.0834 -0.0513 -0.0001
    7SAPS   H2X  834   2.418   2.796  10.170  0.2171  0.3784  1.7348
    7SAPS   H2Y  835   2.413   2.619  10.183  0.9413 -0.9351 -0.8349
    7SAPS   C23  836   2.183   2.385  10.541 -0.2308  0.5348  0.0422
    7SAPS   H3R  837   2.109   2.444  10.482 -0.4906  1.2153  1.0271
    7SAPS   H3S  838   2.129   2.300  10.587  1.4295 -1.4318 -1.4123
    7SAPS   C24  839   2.279   2.323  10.440 -0.5106 -0.7278 -0.2075
    7SAPS   H4R  840   2.355   2.263  10.495 -0.3927  1.4369  2.1682
    7SAPS   H4S  841   2.350   2.398  10.399  1.1732 -1.6375  0.9176
    7SAPS   C25  842   2.212   2.231  10.341 -0.1898 -0.2945  0.2659
    7SAPS   H5R  843   2.163   2.143  10.386  1.1585 -0.8032  0.7632
    7SAPS   C26  844   2.206   2.254  10.213 -0.2518 -0.1969  0.1145
    7SAPS   H6R  845   2.148   2.180  10.156  0.4066 -2.5330  2.3208
    7SAPS   C27  846   2.263   2.380  10.141 -0.5558 -0.0277  0.1764
    7SAPS   H7R  847   2.372   2.366  10.126 -0.6645 -1.2192  0.4195
    7SAPS   H7S  848   2.245   2.472  10.201 -2.6584 -0.3552  0.1345
    7SAPS   C28  849   2.194   2.414  10.018  0.1370 -0.7388  0.4704
    7SAPS   H8R  850   2.094   2.456  10.035  0.8464  1.6044 -0.7220
    7SAPS   C29  851   2.243   2.395   9.890  0.1706  0.2165 -0.5945
    7SAPS   H9R  852   2.182   2.437   9.809 -0.2096 -1.5193 -1.2293
    7SAPS  C210  853   2.376   2.338   9.857  0.3409  0.8358  0.5295
    7SAPS  H10R  854   2.432   2.308   9.948  0.1000 -0.2379  0.3362
    7SAPS  H10S  855   2.433   2.415   9.800 -2.0876  1.9350 -0.5985
    7SAPS  C211  856   2.348   2.211   9.782 -0.5198 -0.0835  0.1893
    7SAPS  H11R  857   2.334   2.121   9.844 -0.5713 -0.2131 -0.0131
    7SAPS  C212  858   2.354   2.205   9.646 -0.7767  0.9822  0.4867
    7SAPS  H12R  859   2.342   2.105   9.600  0.1499  1.7523 -1.5709
    7SAPS  C213  860   2.387   2.321   9.552  0.9942 -0.1142 -0.2251
    7SAPS  H13R  861   2.487   2.309   9.505  0.7048  3.1249 -1.9169
    7SAPS  H13S  862   2.379   2.418   9.606 -0.8453  1.3900 -2.9882
    7SAPS  C214  863   2.286   2.338   9.435  0.1664 -0.6934 -0.2728
    7SAPS  H14R  864   2.180   2.321   9.456  0.5186 -1.8172  0.7533
    7SAPS  C215  865   2.322   2.381   9.314 -0.2891  0.3168 -0.4181
    7SAPS  H15R  866   2.243   2.371   9.238 -1.1008  1.6575  0.2275
    7SAPS  C216  867   2.459   2.420   9.284 -0.2648 -0.0046 -0.2228
    7SAPS  H16R  868   2.536   2.348   9.319  0.4617  0.8656  0.0291
    7SAPS  H16S  869   2.482   2.517   9.334  2.6898 -0.3114 -0.8199
    7SAPS  C217  870   2.501   2.450   9.141  0.5604  0.0162  0.3140
    7SAPS  H17R  871   2.442   2.543   9.124  1.4457  0.5931  0.3214
    7SAPS  H17S  872   2.471   2.376   9.063 -1.0520  1.1545 -0.1970
    7SAPS  C218  873   2.648   2.478   9.120 -0.8507 -0.7000  0.4880
    7SAPS  H18R  874   2.707   2.384   9.126  1.7192  0.8361  0.7754
    7SAPS  H18S  875   2.683   2.553   9.194 -0.5670  0.8115 -1.1129
    7SAPS  C219  876   2.689   2.540   8.983 -0.2194 -0.1953  0.0785
    7SAPS  H19R  877   2.800   2.551   8.988  0.1387 -2.6534 -0.9005
    7SAPS  H19S  878   2.649   2.643   8.967  1.7896  0.6159 -0.0194
    7SAPS  C220  879   2.650   2.439   8.868 -0.3128 -0.2865  0.1130
    7SAPS  H20R  880   2.540   2.430   8.855 -0.1466 -1.0318 -0.8863
    7SAPS  H20S  881   2.700   2.346   8.902 -2.2922 -3.2587 -4.1879
    7SAPS  H20T  882   2.692   2.471   8.770  0.2073 -2.3801 -0.3984
    7SAPS   C33  883   2.572   2.688  10.062  1.2561  0.0300  0.8390
    7SAPS   H3X  884   2.602   2.582  10.048 -0.4239 -0.3370 -0.2843
    7SAPS   H3Y  885   2.652   2.764  10.077 -1.0561  3.0055 -0.8107
    7SAPS   C34  886   2.506   2.722   9.919 -0.2502  0.4390 -0.6969
    7SAPS   H4X  887   2.461   2.823   9.924 -2.6006 -0.2711 -3.8535
    7SAPS   H4Y  888   2.432   2.644   9.890  0.5571 -0.7087  0.2378
    7SAPS   C35  889   2.619   2.728   9.815 -0.4948  0.2736 -0.4370
    7SAPS   H5X  890   2.668   2.629   9.821  2.8924  1.8647  2.0184
    7SAPS   H5Y  891   2.696   2.798   9.854 -1.0154  0.8828 -0.4848
    7SAPS   C36  892   2.584   2.765   9.677  0.2971  0.1116  0.0740
    7SAPS   H6X  893   2.528   2.861   9.689 -0.7025 -0.1504 -2.0861
    7SAPS   H6Y  894   2.521   2.687   9.629 -1.1073  0.8833  0.5746
    7SAPS   C37  895   2.698   2.802   9.583 -0.1214 -1.2649  0.1470
    7SAPS   H7X  896   2.764   2.716   9.555  0.1699 -0.6688 -1.0635
    7SAPS   H7Y  897   2.757   2.886   9.626  0.0855 -1.4377  0.2051
    7SAPS   C38  898   2.648   2.852   9.440  0.6822  0.0127  0.6019
    7SAPS   H8X  899   2.581   2.939   9.457  1.5754  0.6829  0.8010
    7SAPS   H8Y  900   2.591   2.761   9.413 -0.4753  0.8466  0.1851
    7SAPS   C39  901   2.754   2.879   9.327 -0.2587  0.0544 -0.7242
    7SAPS   H9X  902   2.823   2.792   9.322 -1.5985 -1.0269 -0.9242
    7SAPS   H9Y  903   2.817   2.965   9.358 -0.8663  0.5470 -0.8403
    7SAPS  C310  904   2.699   2.898   9.186  0.0704  0.5870 -0.6252
    7SAPS  H10X  905   2.624   2.979   9.176  1.7019  1.9720 -2.5673
    7SAPS  H10Y  906   2.649   2.801   9.165 -0.8002  1.2228 -1.5576
    7SAPS  C311  907   2.795   2.913   9.074  0.0678  0.5385  0.0332
    7SAPS  H11X  908   2.856   2.819   9.070 -0.6826 -0.1525  2.8570
    7SAPS  H11Y  909   2.869   2.992   9.098  0.1220  0.9949 -1.5138
    7SAPS  C312  910   2.739   2.939   8.940  0.0750  0.0174  0.3863
    7SAPS  H12X  911   2.700   3.043   8.928 -2.0416 -0.6129  1.2198
    7SAPS  H12Y  912   2.649   2.873   8.944  0.6043 -0.6934  3.9615
    7SAPS  C313  913   2.837   2.891   8.827  0.4789 -0.4487  0.3489
    7SAPS  H13X  914   2.851   2.783   8.848  1.2793 -0.2223  1.0090
    7SAPS  H13Y  915   2.926   2.956   8.840  0.1835  0.3582 -1.4468
    7SAPS  C314  916   2.792   2.897   8.680  0.8603  0.0142  0.1903
    7SAPS  H14X  917   2.692   2.849   8.672  0.5696  0.5874  0.3618
    7SAPS  H14Y  918   2.868   2.852   8.611  0.4505  1.1881 -1.0733
    7SAPS  C315  919   2.779   3.042   8.631  0.2069 -0.8700 -0.2468
    7SAPS  H15X  920   2.876   3.092   8.655  0.4891 -2.1773  1.5802
    7SAPS  H15Y  921   2.703   3.100   8.687 -2.0243 -2.7450 -1.1709
    7SAPS  C316  922   2.768   3.045   8.475 -0.6595 -0.7736 -0.7449
    7SAPS  H16X  923   2.668   3.010   8.441 -1.4166 -1.9075  2.2992
    7SAPS  H16Y  924   2.841   2.983   8.420 -0.8818 -0.8434 -0.9653
    7SAPS  C317  925   2.785   3.192   8.417  0.2553  0.1952  0.2608
    7SAPS  H17X  926   2.883   3.236   8.444 -0.2297  2.7978 -1.7773
    7SAPS  H17Y  927   2.705   3.257   8.459 -1.3962 -0.6413 -1.4757
    7SAPS  C318  928   2.767   3.197   8.260 -0.0982 -0.2506  0.2316
    7SAPS  H18X  929   2.790   3.298   8.219  1.0880 -0.5381  0.1439
    7SAPS  H18Y  930   2.665   3.167   8.230  0.7737 -1.2059 -2.0264
    7SAPS  H18Z  931   2.837   3.123   8.214 -0.6662  0.2422 -1.4750
    8SAPS     N  932   0.226   3.700  11.014 -0.3562 -0.1080  0.4826
    8SAPS   HN1  933   0.222   3.762  10.930  2.6566 -0.7037 -0.2195
    8SAPS   HN2  934   0.190   3.605  10.991  0.1180  0.2795 -2.3049
    8SAPS   HN3  935   0.169   3.746  11.087 -2.1905  0.0260 -0.9601
    8SAPS   C12  936   0.366   3.673  11.053  0.5090  0.6196 -0.0768
    8SAPS  H12A  937   0.426   3.761  11.042  2.1331 -0.4703 -0.2372
    8SAPS   C13  938   0.380   3.622  11.196 -0.2925  0.3458 -0.0821
    8SAPS  O13A  939   0.272   3.601  11.252 -0.1400 -0.5853 -0.5375
    8SAPS  O13B  940   0.491   3.601  11.252 -0.0372  0.3229 -0.1429
    8SAPS   C11  941   0.409   3.560  10.951  0.1258 -0.6949  0.0957
    8SAPS  H11A  942   0.509   3.528  10.988  0.6963  0.4306 -0.4154
    8SAPS  H11B  943   0.435   3.606  10.854 -0.6760 -1.7223 -0.6212
    8SAPS     P  944   0.368   3.333  10.846  0.0329  0.1210  0.1401
    8SAPS   O13  945   0.495   3.273  10.903 -0.6260  0.3644 -0.2382
    8SAPS   O14  946   0.254   3.243  10.824 -0.0575  0.2051  0.2093
    8SAPS   O12  947   0.319   3.451  10.939  0.6271 -0.2026  0.0170
    8SAPS   O11  948   0.404   3.405  10.713 -0.4026 -0.7624  0.3351
    8SAPS    C1  949   0.307   3.484  10.640  0.0051  0.0667  0.0683
    8SAPS    HA  950   0.239   3.545  10.704  0.4413  0.2523  0.3586
    8SAPS    HB  951   0.358   3.561  10.578  1.3916  0.5749  1.7577
    8SAPS    C2  952   0.217   3.401  10.541 -0.2522 -0.0525  0.4225
    8SAPS    HS  953   0.162   3.331  10.606 -1.8837  1.3126  0.5643
    8SAPS   O21  954   0.301   3.350  10.435 -0.4500 -0.2421 -0.5599
    8SAPS   C21  955   0.282   3.224  10.399 -0.4336 -0.0689  0.1749
    8SAPS   O22  956   0.196   3.154  10.442  0.0259 -0.1908 -0.2188
    8SAPS   C22  957   0.377   3.178  10.287 -0.2190 -0.2732  0.1200
    8SAPS   H2R  958   0.329   3.090  10.238 -1.8262  0.0195  1.1060
    8SAPS   H2S  959   0.381   3.255  10.207 -2.1317 -0.8358 -0.5600
    8SAPS    C3  960   0.102   3.493  10.489  0.2835 -0.1031 -0.5153
    8SAPS    HX  961   0.158   3.578  10.446  0.8487  0.5412  1.3869
    8SAPS    HY  962   0.040   3.536  10.571 -1.7496  0.3949 -2.2383
    8SAPS   O31  963   0.028   3.432  10.379 -0.0525  0.1262  0.2168
    8SAPS   C31  964  -0.053   3.334  10.418  0.6624 -0.0464 -0.4887
    8SAPS   O32  965  -0.063   3.290  10.529 -0.2423 -0.1620 -0.8551
    8SAPS   C32  966  -0.132   3.303  10.299 -0.0240 -0.1599 -0.6733
    8SAPS   H2X  967  -0.062   3.257  10.227 -0.7103  0.9500 -2.1190
    8SAPS   H2Y  968  -0.164   3.400  10.256 -0.3023 -0.6506 -1.5837
    8SAPS   C23  969   0.526   3.157  10.335  0.1698  0.2749  0.5029
    8SAPS   H3R  970   0.533   3.122  10.440  2.2117 -0.2823  0.2353
    8SAPS   H3S  971   0.561   3.262  10.339 -0.3073  0.4648 -0.1641
    8SAPS   C24  972   0.615   3.077  10.239  0.2162  0.5104 -0.2122
    8SAPS   H4R  973   0.719   3.098  10.269  0.0241 -0.9056  1.6249
    8SAPS   H4S  974   0.592   3.119  10.138 -2.6852 -3.1547 -1.3228
    8SAPS   C25  975   0.596   2.925  10.236 -0.2179  0.4503 -0.6936
    8SAPS   H5R  976   0.565   2.877  10.330 -0.5498 -0.0315 -1.0418
    8SAPS   C26  977   0.623   2.842  10.135 -0.4301  0.1673  0.0082
    8SAPS   H6R  978   0.577   2.742  10.141  2.9503 -1.5389 -0.0715
    8SAPS   C27  979   0.676   2.873   9.997 -0.0483 -0.6077  0.0997
    8SAPS   H7R  980   0.681   2.984   9.995  0.8304 -0.6478 -0.0575
    8SAPS   H7S  981   0.601   2.831   9.927 -1.2391 -0.7207  1.3808
    8SAPS   C28  982   0.810   2.807   9.987 -0.6175  0.6561 -0.2481
    8SAPS   H8R  983   0.879   2.837  10.066 -1.2811 -1.4522  1.2178
    8SAPS   C29  984   0.853   2.730   9.891  0.2669 -0.0205  0.2576
    8SAPS   H9R  985   0.957   2.693   9.891  0.8171  1.4259  0.9707
    8SAPS  C210  986   0.766   2.670   9.777  0.1007 -0.1260  0.0345
    8SAPS  H10R  987   0.804   2.708   9.680 -0.5623  0.6284  0.0601
    8SAPS  H10S  988   0.662   2.709   9.773 -0.0231 -0.5050 -0.3932
    8SAPS  C211  989   0.765   2.520   9.757  0.3235 -0.5739  0.1866
    8SAPS  H11R  990   0.804   2.466   9.845  1.5872  1.3554  0.8946
    8SAPS  C212  991   0.737   2.461   9.646  0.0186 -0.1689 -0.2128
    8SAPS  H12R  992   0.739   2.351   9.643  0.3854 -0.1984  0.7368
    8SAPS  C213  993   0.704   2.516   9.510 -0.1400  0.8479  0.9019
    8SAPS  H13R  994   0.686   2.625   9.503  0.8051  0.9712  0.1080
    8SAPS  H13S  995   0.607   2.478   9.471  0.6046 -1.0674  0.8042
    8SAPS  C214  996   0.810   2.469   9.405 -0.2463  0.1910 -0.4623
    8SAPS  H14R  997   0.915   2.491   9.429 -0.6523  2.3846 -0.5188
    8SAPS  C215  998   0.785   2.406   9.288  0.1371  0.3051  0.4195
    8SAPS  H15R  999   0.869   2.375   9.223 -0.6657  0.9084 -0.9360
    8SAPS  C216 1000   0.653   2.370   9.227 -0.4780 -0.0762  0.5899
    8SAPS  H16R 1001   0.596   2.465   9.228  1.1028  0.9064  0.2190
    8SAPS  H16S 1002   0.607   2.282   9.277  0.0489 -2.0122 -2.1044
    8SAPS  C217 1003   0.685   2.327   9.086 -0.0658  0.2480 -0.7425
    8SAPS  H17R 1004   0.594   2.285   9.038 -0.7145 -0.2451  0.8711
    8SAPS  H17S 1005   0.768   2.253   9.084  0.3511  0.7065 -0.8169
    8SAPS  C218 1006   0.719   2.445   8.997  0.0318  0.0262 -0.0301
    8SAPS  H18R 1007   0.823   2.478   9.018  0.0387 -0.8823  1.5081
    8SAPS  H18S 1008   0.648   2.531   9.006  0.3286  0.3082 -0.3394
    8SAPS  C219 1009   0.715   2.417   8.840  0.0915  0.0337 -0.0805
    8SAPS  H19R 1010   0.608   2.425   8.810  0.1276  1.7366  0.1293
    8SAPS  H19S 1011   0.760   2.317   8.823  0.7435  0.0777  1.2821
    8SAPS  C220 1012   0.799   2.520   8.765  0.3229  0.4740  0.3609
    8SAPS  H20R 1013   0.895   2.524   8.820 -0.2773  0.5203  1.4187
    8SAPS  H20S 1014   0.745   2.616   8.760  1.0724  0.8453 -2.0817
    8SAPS  H20T 1015   0.826   2.490   8.661 -0.0924  0.6737  0.1920
    8SAPS   C33 1016  -0.239   3.196  10.320  0.0131  0.0875  0.8513
    8SAPS   H3X 1017  -0.304   3.225  10.405 -0.3415 -0.9016  0.9299
    8SAPS   H3Y 1018  -0.186   3.102  10.347 -2.0325 -2.3264 -2.6938
    8SAPS   C34 1019  -0.338   3.180  10.202  0.5348  0.5368 -0.3508
    8SAPS   H4X 1020  -0.391   3.278  10.203  1.4117  1.0450 -1.6690
    8SAPS   H4Y 1021  -0.406   3.094  10.218  2.0980 -0.5575  0.6952
    8SAPS   C35 1022  -0.268   3.167  10.061 -0.1731 -0.7840  0.6131
    8SAPS   H5X 1023  -0.204   3.254  10.034 -2.0792 -0.0714 -2.0791
    8SAPS   H5Y 1024  -0.359   3.172   9.997 -0.5641  0.6622  1.2483
    8SAPS   C36 1025  -0.195   3.034  10.026  0.0233 -0.1628 -0.2249
    8SAPS   H6X 1026  -0.267   2.950  10.023 -0.7025  0.4479 -2.8330
    8SAPS   H6Y 1027  -0.123   3.020  10.109  0.5247  0.2956 -0.5755
    8SAPS   C37 1028  -0.129   3.041   9.886  0.1269 -0.4700  0.0309
    8SAPS   H7X 1029  -0.067   2.949   9.877  1.1032  0.2669 -1.1535
    8SAPS   H7Y 1030  -0.062   3.130   9.884 -1.5121  0.8199  0.1330
    8SAPS   C38 1031  -0.219   3.053   9.765 -0.3272 -0.4132  0.3083
    8SAPS   H8X 1032  -0.274   3.150   9.766 -0.5271 -0.5055 -0.9210
    8SAPS   H8Y 1033  -0.302   2.980   9.780 -0.8684  0.0881 -0.2062
    8SAPS   C39 1034  -0.139   3.056   9.642 -0.8019 -0.2586  0.0457
    8SAPS   H9X 1035  -0.090   2.958   9.623  0.1936  0.6999 -3.0252
    8SAPS   H9Y 1036  -0.055   3.129   9.638 -1.2955  0.2864 -0.7656
    8SAPS  C310 1037  -0.230   3.078   9.522 -0.2701  0.2685  0.0172
    8SAPS  H10X 1038  -0.266   3.183   9.527  0.6882  0.6301 -0.3200
    8SAPS  H10Y 1039  -0.323   3.018   9.524 -0.3054  0.3224 -0.0166
    8SAPS  C311 1040  -0.163   3.059   9.385 -0.2901 -0.2897 -0.5909
    8SAPS  H11X 1041  -0.244   3.025   9.316 -1.5099 -0.1585  0.7404
    8SAPS  H11Y 1042  -0.080   2.986   9.395  0.6465  0.9951  1.9108
    8SAPS  C312 1043  -0.097   3.187   9.337 -0.2455  0.2560  0.0334
    8SAPS  H12X 1044  -0.041   3.253   9.408  1.5413  1.2201 -2.1401
    8SAPS  H12Y 1045  -0.184   3.252   9.311 -1.7414 -2.5218 -2.4445
    8SAPS  C313 1046  -0.022   3.179   9.204 -0.1521  0.3616  0.2216
    8SAPS  H13X 1047  -0.085   3.126   9.130 -0.1522  0.1481  0.3718
    8SAPS  H13Y 1048   0.074   3.124   9.217 -0.2786 -0.2409 -1.1909
    8SAPS  C314 1049   0.022   3.314   9.152 -0.1681 -0.1116 -0.1135
    8SAPS  H14X 1050   0.085   3.294   9.063 -0.8029 -1.5856 -0.2510
    8SAPS  H14Y 1051   0.073   3.374   9.231  1.0693 -1.4996  0.1756
    8SAPS  C315 1052  -0.090   3.398   9.096  0.0883 -0.4413 -0.3088
    8SAPS  H15X 1053  -0.168   3.410   9.173  0.1313  1.4868 -0.5116
    8SAPS  H15Y 1054  -0.140   3.350   9.009 -0.8640 -0.4476  0.2365
    8SAPS  C316 1055  -0.031   3.541   9.059  0.6337  0.1017  0.0724
    8SAPS  H16X 1056   0.063   3.520   9.004  0.4271 -0.2028 -0.1623
    8SAPS  H16Y 1057   0.001   3.597   9.150  0.8748  0.2530 -0.1052
    8SAPS  C317 1058  -0.116   3.644   8.980  0.0782  0.9721 -0.2446
    8SAPS  H17X 1059  -0.216   3.659   9.026  0.5358  1.1963  0.7007
    8SAPS  H17Y 1060  -0.141   3.587   8.888  0.5615 -2.0158  1.3207
    8SAPS  C318 1061  -0.042   3.775   8.952 -0.1537  0.1454  0.2033
    8SAPS  H18X 1062  -0.116   3.846   8.909 -0.3132  0.3888  0.8596
    8SAPS  H18Y 1063   0.047   3.769   8.885 -1.8011  0.8530 -2.1867
    8SAPS  H18Z 1064  -0.011   3.818   9.050 -1.2236  3.3249 -0.7453
    9SAPS     N 1065   2.548   0.001   6.454  0.4962  0.4547 -0.1111
    9SAPS   HN1 1066   2.506   0.017   6.361  1.7295 -0.6185 -0.8828
    9SAPS   HN2 1067   2.506  -0.086   6.493  2.3214 -1.0877 -1.3883
    9SAPS   HN3 1068   2.538   0.088   6.511 -1.9822 -0.5274  1.0996
    9SAPS   C12 1069   2.701  -0.011   6.435 -0.2235  0.6160 -0.1248
    9SAPS  H12A 1070   2.739  -0.033   6.534  0.8895 -0.7991 -0.8138
    9SAPS   C13 1071   2.758  -0.110   6.334 -0.3891 -0.1843 -0.5372
    9SAPS  O13A 1072   2.681  -0.165   6.255  0.2497  0.5589  0.4010
    9SAPS  O13B 1073   2.884  -0.118   6.321  0.7307  0.2634 -0.3163
    9SAPS   C11 1074   2.750   0.131   6.394 -0.4414 -0.2035 -0.5657
    9SAPS  H11A 1075   2.712   0.166   6.296 -1.8232  2.9837  0.9720
    9SAPS  H11B 1076   2.861   0.124   6.394 -0.3974  0.1585  1.0951
    9SAPS     P 1077   2.731   0.389   6.471  0.1775 -0.0047  0.5508
    9SAPS   O13 1078   2.775   0.412   6.329 -0.1849  0.6107 -0.2405
    9SAPS   O14 1079   2.604   0.452   6.505  0.4354  0.2863  0.2153
    9SAPS   O12 1080   2.711   0.228   6.494 -0.4052 -0.0148 -0.3671
    9SAPS   O11 1081   2.841   0.431   6.568  0.6561 -0.5040 -0.5493
    9SAPS    C1 1082   2.973   0.375   6.555 -0.2038  0.7867  0.6518
    9SAPS    HA 1083   2.977   0.276   6.505 -0.8681  2.3457 -2.8251
    9SAPS    HB 1084   3.037   0.440   6.491  0.9475  0.4695  1.4534
    9SAPS    C2 1085   3.046   0.359   6.692 -0.2834 -0.5663 -0.4896
    9SAPS    HS 1086   3.139   0.301   6.675  1.1153  1.0648  1.1761
    9SAPS   O21 1087   2.963   0.297   6.788  0.0676  0.4227  0.0101
    9SAPS   C21 1088   2.928   0.172   6.764  0.3868 -0.1774 -0.6781
    9SAPS   O22 1089   2.974   0.097   6.677  0.5327 -0.0383 -0.1048
    9SAPS   C22 1090   2.818   0.141   6.864  0.2801  0.5978 -0.0855
    9SAPS   H2R 1091   2.871   0.103   6.954  2.5231 -1.4839 -2.1659
    9SAPS   H2S 1092   2.766   0.235   6.893  0.6956  0.2260  2.0570
    9SAPS    C3 1093   3.093   0.495   6.730 -0.3407 -0.0220  0.1668
    9SAPS    HX 1094   3.009   0.560   6.761  0.1011 -0.4364  2.3866
    9SAPS    HY 1095   3.150   0.531   6.642 -1.3898  0.2266 -0.4160
    9SAPS   O31 1096   3.195   0.488   6.835  0.0934  0.0931  0.5816
    9SAPS   C31 1097   3.146   0.508   6.959  0.6410  0.1244  0.2102
    9SAPS   O32 1098   3.030   0.516   6.987  0.2383 -0.3363 -0.4836
    9SAPS   C32 1099   3.261   0.510   7.060 -0.2676  0.0478 -0.9551
    9SAPS   H2X 1100   3.322   0.599   7.033  2.9343 -1.1757  1.5648
    9SAPS   H2Y 1101   3.319   0.419   7.033 -1.8882 -0.9391 -1.2119
    9SAPS   C23 1102   2.719   0.041   6.804 -0.5799  0.9563 -0.0425
    9SAPS   H3R 1103   2.778  -0.041   6.759  0.8167  0.8542  1.8255
    9SAPS   H3S 1104   2.658   0.089   6.724 -2.5008  0.8154  1.2522
    9SAPS   C24 1105   2.613  -0.019   6.901  0.7796 -0.4172  0.4388
    9SAPS   H4R 1106   2.538  -0.066   6.834  0.5426  0.0350  0.3813
    9SAPS   H4S 1107   2.555   0.057   6.957  2.0336  0.8703  0.0546
    9SAPS   C25 1108   2.672  -0.136   6.982 -0.2368 -0.5895 -0.1609
    9SAPS   H5R 1109   2.719  -0.209   6.915 -0.4631 -0.1327 -0.8234
    9SAPS   C26 1110   2.669  -0.155   7.116 -0.2221 -0.0229  0.0785
    9SAPS   H6R 1111   2.716  -0.244   7.160  1.6361  0.3388 -1.0588
    9SAPS   C27 1112   2.592  -0.056   7.204  0.4303  0.0121  0.3065
    9SAPS   H7R 1113   2.535  -0.116   7.277 -0.8208 -0.1799 -0.7846
    9SAPS   H7S 1114   2.507   0.001   7.159  1.1186  1.2902  0.5585
    9SAPS   C28 1115   2.677   0.053   7.267  0.0843  0.7268  0.3989
    9SAPS   H8R 1116   2.724   0.128   7.201  0.2785 -0.5695 -1.0059
    9SAPS   C29 1117   2.689   0.065   7.406  0.2092 -0.2710  0.7009
    9SAPS   H9R 1118   2.753   0.146   7.443  1.1371 -1.7501  2.5394
    9SAPS  C210 1119   2.626  -0.020   7.509  0.4292 -0.3325 -0.5938
    9SAPS  H10R 1120   2.670   0.000   7.609  0.5454 -0.5936 -0.5903
    9SAPS  H10S 1121   2.651  -0.123   7.476 -0.0379 -0.2182 -1.3287
    9SAPS  C211 1122   2.476  -0.001   7.525  0.7256 -0.1896 -0.3652
    9SAPS  H11R 1123   2.426   0.032   7.432  1.4454 -1.1928 -1.1291
    9SAPS  C212 1124   2.405  -0.038   7.633  0.5923  0.1191  0.0370
    9SAPS  H12R 1125   2.298  -0.013   7.640  0.2881 -1.5388  2.6248
    9SAPS  C213 1126   2.459  -0.120   7.753 -0.2098  0.5552  0.1807
    9SAPS  H13R 1127   2.568  -0.143   7.742 -0.7960 -1.8745 -1.4370
    9SAPS  H13S 1128   2.413  -0.221   7.752 -1.0738  0.9157 -1.7666
    9SAPS  C214 1129   2.431  -0.056   7.888 -0.0513  0.0942  0.1475
    9SAPS  H14R 1130   2.336  -0.075   7.941 -0.2199  1.8012  0.5257
    9SAPS  C215 1131   2.511   0.029   7.952  0.5121 -0.3684  0.3439
    9SAPS  H15R 1132   2.478   0.066   8.050  2.7541  0.5791  0.8069
    9SAPS  C216 1133   2.642   0.076   7.899  0.4899  0.0586 -0.2787
    9SAPS  H16R 1134   2.642   0.111   7.794 -1.9667  1.2677  0.0658
    9SAPS  H16S 1135   2.701  -0.018   7.894 -1.2228 -0.9874 -2.2446
    9SAPS  C217 1136   2.706   0.177   7.994  0.2722  0.3809 -0.2345
    9SAPS  H17R 1137   2.697   0.142   8.099 -2.3114 -0.9368 -0.8083
    9SAPS  H17S 1138   2.647   0.271   7.992  0.7439  0.6620 -2.0225
    9SAPS  C218 1139   2.852   0.205   7.966 -0.6256  0.1019 -0.2861
    9SAPS  H18R 1140   2.870   0.197   7.856  1.7406  0.0930  0.0446
    9SAPS  H18S 1141   2.916   0.125   8.008 -0.1022  0.4170 -0.4677
    9SAPS  C219 1142   2.889   0.343   8.020  1.1032  0.3955 -0.1203
    9SAPS  H19R 1143   2.829   0.421   7.969 -0.4749  0.3959  1.6386
    9SAPS  H19S 1144   2.992   0.362   7.983  0.6470  0.3660 -1.4593
    9SAPS  C220 1145   2.891   0.354   8.169 -0.7699 -0.7414 -0.0259
    9SAPS  H20R 1146   2.908   0.460   8.198  2.8141 -2.1123  3.8280
    9SAPS  H20S 1147   2.973   0.295   8.215  0.0671  0.3677 -0.0371
    9SAPS  H20T 1148   2.798   0.325   8.220 -1.0658 -0.5678 -0.4537
    9SAPS   C33 1149   3.211   0.510   7.207 -1.0905 -0.0812 -0.8572
    9SAPS   H3X 1150   3.122   0.576   7.210 -1.8334 -0.9136 -2.9802
    9SAPS   H3Y 1151   3.295   0.541   7.273 -0.7920 -0.2111 -1.1718
    9SAPS   C34 1152   3.170   0.365   7.247 -0.8347 -0.1522 -0.2382
    9SAPS   H4X 1153   3.257   0.297   7.239 -0.5802 -0.0198  1.1083
    9SAPS   H4Y 1154   3.091   0.334   7.177 -0.8850  3.7603 -2.1969
    9SAPS   C35 1155   3.116   0.353   7.392 -0.1854  0.2838 -0.1491
    9SAPS   H5X 1156   3.063   0.256   7.399 -1.0251  0.2925 -3.9513
    9SAPS   H5Y 1157   3.048   0.437   7.416 -0.6584 -1.0281  3.7601
    9SAPS   C36 1158   3.227   0.335   7.496  0.0411 -0.9455  0.0438
    9SAPS   H6X 1159   3.272   0.436   7.498 -3.3764  0.7263 -0.4595
    9SAPS   H6Y 1160   3.294   0.255   7.459 -0.7261 -1.6963  0.2230
    9SAPS   C37 1161   3.172   0.281   7.627 -0.3257 -0.0645 -0.4369
    9SAPS   H7X 1162   3.123   0.183   7.611  0.7190 -1.0051  1.6752
    9SAPS   H7Y 1163   3.099   0.355   7.667 -2.0853 -2.9122  2.0436
    9SAPS   C38 1164   3.289   0.268   7.728  0.0169 -0.2439  0.4936
    9SAPS   H8X 1165   3.327   0.372   7.734 -1.1298  0.1349  1.7272
    9SAPS   H8Y 1166   3.362   0.197   7.684 -0.2667 -0.9517  1.1233
    9SAPS   C39 1167   3.239   0.208   7.863 -0.1442  0.0809  0.1036
    9SAPS   H9X 1168   3.224   0.099   7.846  1.3733  0.1524 -2.1052
    9SAPS   H9Y 1169   3.155   0.268   7.904 -0.3942  1.6033 -2.3971
    9SAPS  C310 1170   3.350   0.205   7.962  0.5962  0.3658 -0.4313
    9SAPS  H10X 1171   3.404   0.301   7.954 -1.5317  1.5571 -1.2739
    9SAPS  H10Y 1172   3.422   0.127   7.927 -0.6589 -0.7994 -0.5173
    9SAPS  C311 1173   3.298   0.179   8.105 -0.2911 -0.5017 -0.0684
    9SAPS  H11X 1174   3.236   0.268   8.129 -0.9228 -1.5288  2.3542
    9SAPS  H11Y 1175   3.377   0.177   8.183 -0.8364 -1.0496  0.4723
    9SAPS  C312 1176   3.215   0.051   8.120 -0.3040 -0.1430 -0.2127
    9SAPS  H12X 1177   3.271  -0.041   8.094 -2.2673 -1.1091 -1.2834
    9SAPS  H12Y 1178   3.135   0.069   8.045 -0.4060  1.1772  0.1864
    9SAPS  C313 1179   3.162   0.051   8.271 -1.0998  0.4375 -0.2079
    9SAPS  H13X 1180   3.099   0.140   8.294  0.7951  1.8507 -0.2496
    9SAPS  H13Y 1181   3.253   0.043   8.333 -1.7227 -2.6271  0.4622
    9SAPS  C314 1182   3.087  -0.078   8.309  0.0532 -0.3136 -0.7739
    9SAPS  H14X 1183   3.076  -0.085   8.419 -0.7384 -1.9565 -0.9209
    9SAPS  H14Y 1184   3.153  -0.162   8.277  2.4975  0.0003  2.8036
    9SAPS  C315 1185   2.938  -0.069   8.254 -0.6771  0.1107  0.1955
    9SAPS  H15X 1186   2.953  -0.079   8.145  0.6765 -0.6017  0.4383
    9SAPS  H15Y 1187   2.892   0.028   8.286  3.3917  1.8275  1.5438
    9SAPS  C316 1188   2.846  -0.183   8.304 -0.4686 -0.5645  0.3607
    9SAPS  H16X 1189   2.854  -0.189   8.415 -0.2620  0.5462  0.4149
    9SAPS  H16Y 1190   2.896  -0.276   8.268 -0.6534 -0.0924 -1.1887
    9SAPS  C317 1191   2.698  -0.175   8.262 -0.1647 -0.3049  0.0264
    9SAPS  H17X 1192   2.670  -0.282   8.270 -0.1083 -0.6343 -2.8711
    9SAPS  H17Y 1193   2.701  -0.136   8.157  0.3430  2.8002  1.0867
    9SAPS  C318 1194   2.613  -0.081   8.343 -0.0192 -0.5110 -0.4576
    9SAPS  H18X 1195   2.565  -0.116   8.437  1.3190  2.4302  1.4578
    9SAPS  H18Y 1196   2.539  -0.033   8.275  0.2827  2.0802  0.9195
    9SAPS  H18Z 1197   2.668   0.010   8.375  1.1148 -2.0162  2.1101
   10SAPS     N 1198   3.258   5.990   6.519  0.2273 -0.1353 -0.3926
   10SAPS   HN1 1199   3.244   5.890   6.496  0.4650 -0.1001 -0.6870
   10SAPS   HN2 1200   3.341   6.024   6.466 -0.7499  2.1546 -0.5963
   10SAPS   HN3 1201   3.272   5.990   6.622  2.0626 -0.9235 -0.6101
   10SAPS   C12 1202   3.138   6.067   6.467  0.8977 -0.1219  0.0497
   10SAPS  H12A 1203   3.057   6.042   6.533  1.2491 -1.3736  0.0438
   10SAPS   C13 1204   3.158   6.223   6.469  0.0295 -0.2966  0.4694
   10SAPS  O13A 1205   3.259   6.275   6.525 -0.3724 -0.4331 -0.8672
   10SAPS  O13B 1206   3.073   6.291   6.406 -0.4391  0.2145  0.1143
   10SAPS   C11 1207   3.111   6.024   6.323 -0.0973  0.2631  0.0514
   10SAPS  H11A 1208   3.201   6.043   6.262  1.8849 -2.1162  2.0258
   10SAPS  H11B 1209   3.026   6.084   6.284 -0.1433 -0.1587 -0.5104
   10SAPS     P 1210   3.088   5.788   6.209  0.0839 -0.2961 -0.4340
   10SAPS   O13 1211   2.962   5.775   6.130 -0.3804 -0.2385  0.1441
   10SAPS   O14 1212   3.206   5.829   6.129 -0.5618  0.4713 -0.7150
   10SAPS   O12 1213   3.069   5.889   6.329 -0.3633  0.6107  0.5634
   10SAPS   O11 1214   3.110   5.648   6.276 -0.5523  0.0532 -0.1759
   10SAPS    C1 1215   3.016   5.575   6.353 -0.6080  0.2015 -0.2560
   10SAPS    HA 1216   2.912   5.595   6.317 -0.0588  0.5037 -1.7406
   10SAPS    HB 1217   3.035   5.467   6.335  0.6640  0.3911 -0.1113
   10SAPS    C2 1218   3.025   5.605   6.510 -0.5960 -0.1575  0.1861
   10SAPS    HS 1219   3.050   5.713   6.517  0.7991 -0.5322  1.4989
   10SAPS   O21 1220   3.144   5.533   6.559 -0.6016 -0.1046  0.7513
   10SAPS   C21 1221   3.268   5.592   6.544  0.0484 -0.3260  0.2065
   10SAPS   O22 1222   3.286   5.706   6.510  0.1256  0.6585  0.0915
   10SAPS   C22 1223   3.380   5.491   6.574  0.3714  0.1889  0.5684
   10SAPS   H2R 1224   3.343   5.415   6.647 -0.3996 -0.9622 -0.9569
   10SAPS   H2S 1225   3.416   5.435   6.485  1.8862  0.2633  1.1116
   10SAPS    C3 1226   2.896   5.569   6.590 -0.8911  0.5032 -0.2677
   10SAPS    HX 1227   2.871   5.472   6.540  0.1912  0.5905 -1.0376
   10SAPS    HY 1228   2.815   5.642   6.573  1.2803  2.4497 -3.1053
   10SAPS   O31 1229   2.919   5.549   6.733 -0.6731  0.0460 -0.0456
   10SAPS   C31 1230   2.815   5.524   6.802  0.1680  0.6336 -0.8596
   10SAPS   O32 1231   2.701   5.540   6.769  0.7065 -0.5314 -0.4161
   10SAPS   C32 1232   2.855   5.457   6.933 -0.3065  0.8371  0.0254
   10SAPS   H2X 1233   2.889   5.540   6.999 -1.3343  0.8008  0.6149
   10SAPS   H2Y 1234   2.939   5.386   6.916 -1.3711 -0.0142 -2.0798
   10SAPS   C23 1235   3.494   5.574   6.634 -0.2247  0.1004 -0.9094
   10SAPS   H3R 1236   3.446   5.620   6.723  1.2048 -1.4429  0.7330
   10SAPS   H3S 1237   3.534   5.645   6.558 -0.2170 -0.4465 -1.4235
   10SAPS   C24 1238   3.611   5.487   6.674  0.1321  0.1903 -0.0164
   10SAPS   H4R 1239   3.644   5.430   6.584 -1.3077 -1.8650  0.6695
   10SAPS   H4S 1240   3.577   5.410   6.747 -0.4914 -0.8133 -1.3164
   10SAPS   C25 1241   3.722   5.569   6.732 -0.3390 -0.3913  0.4442
   10SAPS   H5R 1242   3.773   5.628   6.654 -0.9023  0.2269  0.5424
   10SAPS   C26 1243   3.769   5.565   6.853  0.2177 -0.3698 -0.7002
   10SAPS   H6R 1244   3.848   5.636   6.883  1.1761 -1.9548  0.7236
   10SAPS   C27 1245   3.716   5.472   6.961 -0.0360  0.7120  0.7041
   10SAPS   H7R 1246   3.791   5.437   7.035  0.4538 -0.3719 -0.2820
   10SAPS   H7S 1247   3.686   5.370   6.929 -2.5582  1.6711 -0.2247
   10SAPS   C28 1248   3.597   5.531   7.041 -0.2259 -0.3425  0.0840
   10SAPS   H8R 1249   3.502   5.531   6.987  0.7178 -2.4916 -1.7311
   10SAPS   C29 1250   3.599   5.559   7.173  0.0959  0.2186  0.4349
   10SAPS   H9R 1251   3.503   5.592   7.216 -0.1033 -0.1330  0.2629
   10SAPS  C210 1252   3.716   5.561   7.278  0.0352 -0.4465 -0.5401
   10SAPS  H10R 1253   3.815   5.538   7.236  1.2318  1.3489  1.1185
   10SAPS  H10S 1254   3.693   5.491   7.362  0.5925 -1.3142 -1.0982
   10SAPS  C211 1255   3.729   5.702   7.329 -0.1964 -0.4534  0.2597
   10SAPS  H11R 1256   3.707   5.779   7.254  0.7694 -0.2845  0.1407
   10SAPS  C212 1257   3.755   5.741   7.460 -0.2468  0.2748 -0.3916
   10SAPS  H12R 1258   3.764   5.846   7.489  1.2493 -0.5451  2.5365
   10SAPS  C213 1259   3.779   5.653   7.577  0.7373  0.6239 -0.5507
   10SAPS  H13R 1260   3.840   5.717   7.645 -0.3235  0.2532  0.7847
   10SAPS  H13S 1261   3.841   5.564   7.554 -0.8213 -0.6340 -0.0176
   10SAPS  C214 1262   3.645   5.617   7.639  0.6010  1.1665  0.1135
   10SAPS  H14R 1263   3.567   5.585   7.569  0.3889  0.1123  0.8159
   10SAPS  C215 1264   3.627   5.608   7.773 -0.0249 -0.1288 -0.0048
   10SAPS  H15R 1265   3.528   5.583   7.815 -0.2208  1.4133  0.5141
   10SAPS  C216 1266   3.728   5.632   7.879  0.1562 -0.0599 -0.5452
   10SAPS  H16R 1267   3.784   5.720   7.840 -0.6309  0.9699  0.5904
   10SAPS  H16S 1268   3.798   5.546   7.878 -0.4027 -0.5210 -0.9132
   10SAPS  C217 1269   3.663   5.650   8.015 -0.2127  0.1176 -0.3691
   10SAPS  H17R 1270   3.592   5.565   8.027 -0.8464  0.8244  1.2390
   10SAPS  H17S 1271   3.598   5.740   8.018 -0.0550  0.2322 -0.4065
   10SAPS  C218 1272   3.775   5.637   8.119  0.6509  0.0185 -0.7253
   10SAPS  H18R 1273   3.855   5.712   8.108 -0.4266  1.5571  1.3280
   10SAPS  H18S 1274   3.814   5.534   8.105 -3.0682 -1.7310  0.4510
   10SAPS  C219 1275   3.713   5.650   8.262 -0.1673 -0.7508 -0.1394
   10SAPS  H19R 1276   3.619   5.590   8.259  0.4708 -1.7928 -2.8799
   10SAPS  H19S 1277   3.682   5.756   8.270 -0.1994 -0.8651  1.4864
   10SAPS  C220 1278   3.806   5.595   8.362 -0.2655 -0.2666 -0.0850
   10SAPS  H20R 1279   3.854   5.497   8.345  1.3981  0.5304 -0.1172
   10SAPS  H20S 1280   3.754   5.580   8.460 -0.6155  2.0226  0.1457
   10SAPS  H20T 1281   3.883   5.671   8.388  0.3156 -0.7658 -0.3453
   10SAPS   C33 1282   2.748   5.374   7.013  0.0052 -0.5774 -0.0412
   10SAPS   H3X 1283   2.684   5.316   6.944 -2.0930 -1.0268  2.1286
   10SAPS   H3Y 1284   2.682   5.436   7.079 -0.9386 -0.5537 -0.9826
   10SAPS   C34 1285   2.810   5.280   7.117  0.2009  0.0710  0.6806
   10SAPS   H4X 1286   2.839   5.328   7.213  0.5061  0.7026  0.2809
   10SAPS   H4Y 1287   2.899   5.232   7.072 -0.1421  0.5912 -0.5973
   10SAPS   C35 1288   2.727   5.151   7.152  0.4595  0.1197 -0.0886
   10SAPS   H5X 1289   2.694   5.118   7.051  1.2788 -1.9344  0.2512
   10SAPS   H5Y 1290   2.633   5.168   7.207  0.6775 -2.1393  1.1121
   10SAPS   C36 1291   2.799   5.030   7.211  0.1018 -0.9732 -0.9004
   10SAPS   H6X 1292   2.885   4.994   7.150 -0.0160 -2.0111 -0.4865
   10SAPS   H6Y 1293   2.729   4.946   7.233 -0.8827 -0.3404 -1.5678
   10SAPS   C37 1294   2.867   5.056   7.352  0.0542  1.2110  0.1761
   10SAPS   H7X 1295   2.789   5.080   7.426  0.4028 -0.4282  1.1234
   10SAPS   H7Y 1296   2.945   5.135   7.344 -0.7629  2.2311  1.8176
   10SAPS   C38 1297   2.940   4.930   7.397 -0.1573  0.3515 -0.4554
   10SAPS   H8X 1298   3.025   4.908   7.329  0.6322 -0.6813  0.8169
   10SAPS   H8Y 1299   2.869   4.845   7.391 -1.3920  1.4287 -1.6607
   10SAPS   C39 1300   2.984   4.952   7.546 -0.7116  0.2353  0.6894
   10SAPS   H9X 1301   2.898   4.984   7.608 -1.4371 -0.2870 -0.0306
   10SAPS   H9Y 1302   3.063   5.029   7.531  1.0042 -1.5135  0.4334
   10SAPS  C310 1303   3.049   4.824   7.598 -0.9731  0.3247  0.2416
   10SAPS  H10X 1304   3.130   4.775   7.540 -0.5801 -2.3720  2.8013
   10SAPS  H10Y 1305   2.964   4.753   7.589  0.0502 -0.9066 -0.0132
   10SAPS  C311 1306   3.093   4.824   7.740 -0.5552  0.4314  0.6686
   10SAPS  H11X 1307   3.195   4.867   7.746  0.7630 -2.3638 -0.3378
   10SAPS  H11Y 1308   3.102   4.715   7.759  1.9147  0.4540 -0.1014
   10SAPS  C312 1309   3.001   4.893   7.847 -0.0880  0.3901 -0.1686
   10SAPS  H12X 1310   2.898   4.853   7.841  0.4579 -0.8930 -2.4058
   10SAPS  H12Y 1311   2.995   5.002   7.824  1.3977  0.9860  2.0050
   10SAPS  C313 1312   3.058   4.877   7.989  1.0757 -0.4343 -0.2913
   10SAPS  H13X 1313   3.152   4.937   7.989  0.0751  1.2963  1.4182
   10SAPS  H13Y 1314   3.098   4.777   8.014  2.2106  0.3571  1.2464
   10SAPS  C314 1315   2.970   4.924   8.110 -0.8036  0.6502 -0.1864
   10SAPS  H14X 1316   2.905   4.836   8.131  0.8768 -0.2996  1.2434
   10SAPS  H14Y 1317   2.900   5.006   8.083  0.7993  1.4983 -1.9520
   10SAPS  C315 1318   3.055   4.970   8.232 -0.6224 -0.2549 -0.3185
   10SAPS  H15X 1319   3.103   5.067   8.205 -2.3917  0.8833  0.4423
   10SAPS  H15Y 1320   3.139   4.899   8.248  0.4211  1.2516  1.3836
   10SAPS  C316 1321   2.970   4.998   8.360 -0.4638  0.0679  1.2810
   10SAPS  H16X 1322   3.036   4.987   8.449  0.9133 -0.7816  0.2019
   10SAPS  H16Y 1323   2.902   4.910   8.359 -2.5522  1.5719 -0.6285
   10SAPS  C317 1324   2.884   5.124   8.373  0.3487  0.9693  0.6911
   10SAPS  H17X 1325   2.817   5.114   8.461  0.6074 -0.8993  0.7339
   10SAPS  H17Y 1326   2.828   5.131   8.277 -1.7074  0.7145  1.8133
   10SAPS  C318 1327   2.961   5.253   8.387 -0.5112 -0.5928 -0.7232
   10SAPS  H18X 1328   2.897   5.343   8.379  2.7248  1.9219 -0.2399
   10SAPS  H18Y 1329   3.034   5.258   8.303  1.1548  2.0845  0.7586
   10SAPS  H18Z 1330   3.018   5.253   8.482 -0.3331 -0.3008 -0.8297
   11SAPS     N 1331   5.891   6.555   5.861 -0.3862  0.5120  0.1965
   11SAPS   HN1 1332   5.880   6.458   5.824 -1.3591  0.4442  0.6490
   11SAPS   HN2 1333   5.974   6.549   5.923 -0.0399 -0.7291 -0.3492
   11SAPS   HN3 1334   5.806   6.582   5.915  0.5408  0.6363  1.6546
   11SAPS   C12 1335   5.919   6.652   5.762 -0.2955  0.0060  0.2319
   11SAPS  H12A 1336   6.023   6.654   5.730 -0.5331  1.5507 -0.5754
   11SAPS   C13 1337   5.841   6.633   5.628 -0.0358  0.6884 -0.0370
   11SAPS  O13A 1338   5.757   6.542   5.620 -0.8763 -0.1854 -0.1665
   11SAPS  O13B 1339   5.856   6.717   5.538  0.3993 -0.1592  0.2310
   11SAPS   C11 1340   5.903   6.799   5.816  0.9223 -0.0728  0.4868
   11SAPS  H11A 1341   5.800   6.811   5.857  0.4410 -0.0507 -0.6814
   11SAPS  H11B 1342   5.899   6.852   5.719  2.2262  0.8876  0.9313
   11SAPS     P 1343   6.015   6.983   5.961  0.5261  0.5905 -0.6913
   11SAPS   O13 1344   6.161   7.021   5.967  0.9612  0.4446 -0.0138
   11SAPS   O14 1345   5.925   7.078   5.890 -0.0359  0.0122 -0.0847
   11SAPS   O12 1346   6.013   6.836   5.899 -0.4773  0.9635  0.2833
   11SAPS   O11 1347   5.953   6.953   6.105  0.0703 -0.0697  0.3741
   11SAPS    C1 1348   6.031   6.881   6.202  0.0450 -0.2616  0.9087
   11SAPS    HA 1349   6.067   6.785   6.158  0.1198  0.7175 -1.2845
   11SAPS    HB 1350   6.118   6.941   6.237  0.6145 -0.5685  0.0631
   11SAPS    C2 1351   5.949   6.837   6.325  0.2473  0.7295  0.1941
   11SAPS    HS 1352   5.887   6.922   6.360 -0.4270  0.2071  0.2770
   11SAPS   O21 1353   6.057   6.797   6.409  0.0115 -0.1191 -0.1603
   11SAPS   C21 1354   6.044   6.843   6.535 -0.8240  0.1375  0.1326
   11SAPS   O22 1355   5.953   6.916   6.567 -0.4908 -0.1242 -0.5332
   11SAPS   C22 1356   6.170   6.799   6.623  0.2354  0.4238  0.2272
   11SAPS   H2R 1357   6.209   6.701   6.589 -2.1759  0.1493 -2.0695
   11SAPS   H2S 1358   6.252   6.872   6.611  2.0231 -1.6693 -0.8482
   11SAPS    C3 1359   5.853   6.724   6.283 -0.3484  0.3202 -0.8118
   11SAPS    HX 1360   5.895   6.637   6.226  0.2482  1.2465 -1.8379
   11SAPS    HY 1361   5.782   6.768   6.210 -2.9997  2.2554  2.6425
   11SAPS   O31 1362   5.768   6.678   6.391  0.2036  0.2499  0.2718
   11SAPS   C31 1363   5.820   6.583   6.472 -0.0937  0.1701  0.1105
   11SAPS   O32 1364   5.937   6.548   6.464 -0.1878 -0.0817 -0.4847
   11SAPS   C32 1365   5.709   6.511   6.548  0.1710 -0.5756 -0.2828
   11SAPS   H2X 1366   5.752   6.418   6.592  2.6995  0.2035 -0.9500
   11SAPS   H2Y 1367   5.632   6.487   6.472  0.0921 -0.6041 -0.1943
   11SAPS   C23 1368   6.136   6.791   6.777 -0.7637  0.3488 -0.4099
   11SAPS   H3R 1369   6.057   6.714   6.791  0.4115 -0.4928  2.2959
   11SAPS   H3S 1370   6.098   6.890   6.808 -1.4922  0.2627 -0.9963
   11SAPS   C24 1371   6.259   6.750   6.864 -0.1163  0.0143  0.4362
   11SAPS   H4R 1372   6.327   6.836   6.850 -1.3477  0.6711 -2.2187
   11SAPS   H4S 1373   6.318   6.669   6.815  2.4478  2.4562 -0.7422
   11SAPS   C25 1374   6.222   6.718   7.006 -0.3364 -0.1004  0.3601
   11SAPS   H5R 1375   6.128   6.662   7.020  0.1313 -1.2625 -0.9585
   11SAPS   C26 1376   6.278   6.766   7.119  1.1622 -0.5988  0.6100
   11SAPS   H6R 1377   6.234   6.733   7.214  0.2164 -1.7400 -0.2047
   11SAPS   C27 1378   6.388   6.872   7.122  0.6256  0.1379  0.0760
   11SAPS   H7R 1379   6.345   6.961   7.071  1.6334  0.4499 -0.2581
   11SAPS   H7S 1380   6.467   6.841   7.051  1.3801 -0.9037  1.3259
   11SAPS   C28 1381   6.435   6.883   7.259  0.2082 -0.8259  0.0114
   11SAPS   H8R 1382   6.475   6.795   7.311  1.8265  0.9835  2.0348
   11SAPS   C29 1383   6.450   7.002   7.327 -0.6070 -0.1295  0.2508
   11SAPS   H9R 1384   6.491   6.995   7.429  1.6748  1.0874 -0.5006
   11SAPS  C210 1385   6.417   7.138   7.271 -0.6644  0.1350  0.5054
   11SAPS  H10R 1386   6.315   7.170   7.302  0.5869  1.8667  3.1648
   11SAPS  H10S 1387   6.433   7.149   7.161  0.2819  0.5024  0.6686
   11SAPS  C211 1388   6.504   7.244   7.335 -0.5960  0.3744 -0.5943
   11SAPS  H11R 1389   6.599   7.255   7.280 -1.0316 -3.4403 -2.4039
   11SAPS  C212 1390   6.477   7.316   7.451 -0.0207  0.3769 -0.1253
   11SAPS  H12R 1391   6.551   7.387   7.489 -0.3766 -0.6032  2.6493
   11SAPS  C213 1392   6.352   7.296   7.528  0.7782 -0.1876 -0.2639
   11SAPS  H13R 1393   6.349   7.189   7.559  1.8690  0.4279  2.2485
   11SAPS  H13S 1394   6.255   7.321   7.480  0.2569  1.7829  1.6323
   11SAPS  C214 1395   6.344   7.379   7.653 -0.9868  0.4427  0.0129
   11SAPS  H14R 1396   6.271   7.461   7.656 -2.6959 -0.9735 -1.0754
   11SAPS  C215 1397   6.429   7.372   7.768 -0.1977 -0.4050  0.7030
   11SAPS  H15R 1398   6.419   7.436   7.857  0.4017  0.7169 -0.0154
   11SAPS  C216 1399   6.539   7.275   7.797 -0.6835  0.7964 -0.6286
   11SAPS  H16R 1400   6.637   7.321   7.823 -0.3932 -0.3708  0.4027
   11SAPS  H16S 1401   6.569   7.241   7.695 -0.6991 -1.2556  0.0186
   11SAPS  C217 1402   6.487   7.164   7.898 -0.8730 -0.5038  0.2311
   11SAPS  H17R 1403   6.417   7.219   7.964  0.9941  0.2540  1.6881
   11SAPS  H17S 1404   6.572   7.120   7.954 -0.1598 -1.0617 -1.2254
   11SAPS  C218 1405   6.394   7.060   7.833  0.2359  0.0236  0.5132
   11SAPS  H18R 1406   6.454   6.987   7.776 -1.8962 -2.1808  0.9307
   11SAPS  H18S 1407   6.326   7.119   7.767 -0.7415  1.5535  2.7211
   11SAPS  C219 1408   6.313   6.978   7.936 -0.1518 -0.1299  0.1036
   11SAPS  H19R 1409   6.258   7.048   8.001 -3.4344 -1.8363 -0.6180
   11SAPS  H19S 1410   6.391   6.918   7.987 -0.7461 -0.3804  0.7177
   11SAPS  C220 1411   6.203   6.893   7.872 -0.3418 -0.0408 -0.3118
   11SAPS  H20R 1412   6.126   6.958   7.824 -0.8234 -1.1940 -1.1474
   11SAPS  H20S 1413   6.152   6.825   7.943 -0.4319  1.1203  0.7772
   11SAPS  H20T 1414   6.253   6.820   7.804 -1.1795 -1.1499  0.2565
   11SAPS   C33 1415   5.650   6.609   6.652  0.3896 -0.2396 -0.3023
   11SAPS   H3X 1416   5.556   6.562   6.690  1.0470 -2.0531 -0.8077
   11SAPS   H3Y 1417   5.603   6.695   6.599  0.6536 -0.2380 -0.5348
   11SAPS   C34 1418   5.721   6.645   6.785  0.0657 -0.2384  0.2054
   11SAPS   H4X 1419   5.646   6.706   6.839 -1.8751 -1.6149 -0.7775
   11SAPS   H4Y 1420   5.814   6.702   6.766  0.6845 -1.1442  0.4457
   11SAPS   C35 1421   5.741   6.527   6.881 -0.1022 -0.6084 -0.0657
   11SAPS   H5X 1422   5.796   6.450   6.824  0.9850  0.5091 -0.5705
   11SAPS   H5Y 1423   5.640   6.489   6.908  0.4228 -0.0585  3.0962
   11SAPS   C36 1424   5.815   6.567   7.006 -0.6262 -0.2993 -0.4917
   11SAPS   H6X 1425   5.766   6.654   7.053 -0.0257 -2.0200  3.8131
   11SAPS   H6Y 1426   5.919   6.596   6.977 -1.4347  0.9592 -2.2807
   11SAPS   C37 1427   5.822   6.455   7.109 -0.0319 -0.4072  0.9226
   11SAPS   H7X 1428   5.876   6.367   7.068  1.2904  0.3069  1.0712
   11SAPS   H7Y 1429   5.720   6.426   7.142  0.2455 -1.4474  0.8993
   11SAPS   C38 1430   5.916   6.491   7.224  0.4446  0.7816  0.1215
   11SAPS   H8X 1431   5.887   6.594   7.253  0.9238  0.7082  0.8929
   11SAPS   H8Y 1432   6.022   6.480   7.193 -0.3243 -3.1786 -1.6668
   11SAPS   C39 1433   5.886   6.412   7.351 -0.1916  0.0349  0.8479
   11SAPS   H9X 1434   5.900   6.303   7.339  1.5271  0.0468  2.2605
   11SAPS   H9Y 1435   5.778   6.423   7.375 -1.1457 -2.1559 -1.9308
   11SAPS  C310 1436   5.981   6.452   7.464  0.1455 -0.1458 -0.0967
   11SAPS  H10X 1437   5.953   6.558   7.477  0.6821 -0.0964  0.7792
   11SAPS  H10Y 1438   6.085   6.436   7.428  0.9448  2.6623  0.7558
   11SAPS  C311 1439   5.957   6.368   7.588 -0.4554 -0.9732  0.2895
   11SAPS  H11X 1440   6.014   6.274   7.575 -0.6552 -1.2392  1.2628
   11SAPS  H11Y 1441   5.847   6.351   7.599 -0.3589 -0.3204  3.1845
   11SAPS  C312 1442   5.998   6.431   7.723  1.1663 -0.2113 -0.2179
   11SAPS  H12X 1443   5.925   6.512   7.745 -0.5150 -2.1381  1.7273
   11SAPS  H12Y 1444   6.099   6.476   7.710  2.9861 -2.6502  3.5319
   11SAPS  C313 1445   5.999   6.329   7.830 -0.6003  0.5330  0.4775
   11SAPS  H13X 1446   6.071   6.249   7.804 -1.8461 -0.2364 -0.7513
   11SAPS  H13Y 1447   5.896   6.291   7.849  0.2013 -2.4627 -0.7252
   11SAPS  C314 1448   6.058   6.392   7.959 -0.4672 -0.1055 -0.2356
   11SAPS  H14X 1449   5.989   6.473   7.991 -1.2235 -0.5900 -0.6027
   11SAPS  H14Y 1450   6.156   6.443   7.945  0.2790 -0.7903  2.1231
   11SAPS  C315 1451   6.064   6.293   8.070  0.4546 -0.1904 -0.2701
   11SAPS  H15X 1452   6.132   6.207   8.053  1.6637  0.6579  0.1293
   11SAPS  H15Y 1453   5.959   6.260   8.083 -0.7454  3.3117 -0.0208
   11SAPS  C316 1454   6.102   6.357   8.212  0.6111  0.1672 -0.8282
   11SAPS  H16X 1455   6.042   6.449   8.226  0.7840  0.0567  0.8739
   11SAPS  H16Y 1456   6.211   6.379   8.207  0.5204  1.5221  1.4543
   11SAPS  C317 1457   6.069   6.257   8.327 -0.2481  1.0195  0.3819
   11SAPS  H17X 1458   6.133   6.294   8.410  0.5334  2.2401 -0.7241
   11SAPS  H17Y 1459   6.091   6.155   8.289 -1.7036  1.1659 -0.9337
   11SAPS  C318 1460   5.930   6.242   8.377 -0.7576 -0.1660 -0.6315
   11SAPS  H18X 1461   5.917   6.164   8.455 -2.1465 -0.9067 -1.5653
   11SAPS  H18Y 1462   5.864   6.226   8.289 -0.7041  0.1897 -0.7400
   11SAPS  H18Z 1463   5.908   6.344   8.414 -0.7513 -0.1560 -0.6552
   12SAPS     N 1464   6.717   2.571   6.126 -0.1871  0.0671 -0.6786
   12SAPS   HN1 1465   6.812   2.569   6.170 -0.3936 -0.4181 -0.2451
   12SAPS   HN2 1466   6.672   2.664   6.126 -1.1984 -0.2905 -3.7730
   12SAPS   HN3 1467   6.660   2.498   6.174  1.3603 -1.0058 -0.3790
   12SAPS   C12 1468   6.739   2.533   5.985  0.1515 -0.5888 -0.2377
   12SAPS  H12A 1469   6.648   2.484   5.953  1.1248 -2.5798 -0.1074
   12SAPS   C13 1470   6.763   2.662   5.902 -1.2372 -0.0267  0.4515
   12SAPS  O13A 1471   6.783   2.772   5.961 -0.5540  0.5095  0.3745
   12SAPS  O13B 1472   6.764   2.652   5.778 -0.3662 -0.0568  0.0846
   12SAPS   C11 1473   6.846   2.427   5.962  0.0488  0.0142 -0.1712
   12SAPS  H11A 1474   6.947   2.453   6.002  1.3268  0.5058 -3.3948
   12SAPS  H11B 1475   6.862   2.400   5.855 -1.3484 -0.6219 -0.2241
   12SAPS     P 1476   6.887   2.210   6.081  0.2746 -0.2748  0.0031
   12SAPS   O13 1477   6.798   2.099   6.130  0.2884  0.4827 -0.5053
   12SAPS   O14 1478   6.989   2.173   5.981  0.5661 -0.2533  0.2249
   12SAPS   O12 1479   6.791   2.317   6.030  0.4995  0.0200 -0.4082
   12SAPS   O11 1480   6.958   2.289   6.204  0.1717  0.5730  1.0280
   12SAPS    C1 1481   6.872   2.307   6.315  0.2425 -0.5347 -0.7841
   12SAPS    HA 1482   6.898   2.401   6.368  2.9479 -2.1412  0.9789
   12SAPS    HB 1483   6.769   2.333   6.281  0.5660 -0.7160 -1.9526
   12SAPS    C2 1484   6.870   2.199   6.423 -0.3475 -0.5688  0.3666
   12SAPS    HS 1485   6.805   2.119   6.382  0.7764 -0.9494 -0.7030
   12SAPS   O21 1486   6.828   2.255   6.547 -0.5885 -0.0910 -0.3324
   12SAPS   C21 1487   6.736   2.194   6.617 -0.2972  0.3848  0.2544
   12SAPS   O22 1488   6.683   2.084   6.605  0.0934 -0.8465  0.2734
   12SAPS   C22 1489   6.700   2.282   6.732 -0.0416  0.8624  0.3924
   12SAPS   H2R 1490   6.699   2.385   6.690 -1.8457  1.3298  1.5040
   12SAPS   H2S 1491   6.594   2.265   6.757 -0.4474  1.2488 -0.9688
   12SAPS    C3 1492   7.015   2.155   6.443  0.2455  0.2348  0.5256
   12SAPS    HX 1493   7.083   2.243   6.450  5.0729 -3.0485  0.0516
   12SAPS    HY 1494   7.057   2.124   6.345  0.6559  3.7997 -0.5883
   12SAPS   O31 1495   7.047   2.051   6.540  0.2916 -0.1431  0.3525
   12SAPS   C31 1496   7.098   2.101   6.659 -0.6582 -0.2659  0.1989
   12SAPS   O32 1497   7.103   2.221   6.691 -0.3694  0.5055  0.2848
   12SAPS   C32 1498   7.117   1.979   6.743  0.2058  0.5228 -0.0163
   12SAPS   H2X 1499   7.121   1.894   6.672  0.6308  0.0161  0.6123
   12SAPS   H2Y 1500   7.024   1.961   6.800  0.1702  1.2594  0.1721
   12SAPS   C23 1501   6.796   2.268   6.854  0.2478 -0.1767 -0.1365
   12SAPS   H3R 1502   6.765   2.345   6.927 -1.9397 -0.2502 -0.8860
   12SAPS   H3S 1503   6.896   2.292   6.814 -0.0577 -0.1173 -0.8885
   12SAPS   C24 1504   6.794   2.126   6.917  0.2210 -0.4116  0.0491
   12SAPS   H4R 1505   6.874   2.124   6.994 -1.2554 -1.6373  1.6378
   12SAPS   H4S 1506   6.834   2.046   6.852 -2.0727 -1.0659 -0.6521
   12SAPS   C25 1507   6.671   2.083   6.988  0.3145 -0.0718 -0.4314
   12SAPS   H5R 1508   6.580   2.113   6.934  1.5169  2.8206 -1.0489
   12SAPS   C26 1509   6.653   2.039   7.118 -0.1203  0.2669  0.2918
   12SAPS   H6R 1510   6.549   2.022   7.152  0.4609  1.9289  3.2182
   12SAPS   C27 1511   6.756   2.016   7.230  0.6113 -0.1232  0.1223
   12SAPS   H7R 1512   6.847   1.988   7.173 -0.0544 -1.6494 -0.2336
   12SAPS   H7S 1513   6.723   1.928   7.287  1.2433 -0.3773  0.1031
   12SAPS   C28 1514   6.757   2.149   7.305 -0.0408 -0.1167  0.4483
   12SAPS   H8R 1515   6.739   2.243   7.251  0.7851 -0.3528 -0.2626
   12SAPS   C29 1516   6.760   2.167   7.437  0.0878 -0.0431  0.9350
   12SAPS   H9R 1517   6.752   2.269   7.476  1.7198 -0.2673  1.9332
   12SAPS  C210 1518   6.769   2.071   7.549  0.1334 -0.5648  0.2649
   12SAPS  H10R 1519   6.794   2.126   7.642  1.2220  0.5718 -0.6710
   12SAPS  H10S 1520   6.861   2.014   7.521  0.4234 -0.3877  0.8290
   12SAPS  C211 1521   6.657   1.973   7.574 -0.3145  0.1918 -0.2180
   12SAPS  H11R 1522   6.621   1.918   7.486  0.1336 -0.5097  0.0286
   12SAPS  C212 1523   6.609   1.938   7.688  0.4430 -0.3844 -0.0100
   12SAPS  H12R 1524   6.559   1.840   7.690 -0.7368  0.1650 -1.2130
   12SAPS  C213 1525   6.634   1.988   7.833 -0.3584  0.0889  0.3977
   12SAPS  H13R 1526   6.533   2.001   7.878 -0.2683  1.4578  0.2553
   12SAPS  H13S 1527   6.677   2.090   7.839 -0.8328  0.3948 -1.0121
   12SAPS  C214 1528   6.723   1.889   7.908 -0.4460  0.4154 -0.4787
   12SAPS  H14R 1529   6.806   1.848   7.848  0.5348  2.9783 -1.0065
   12SAPS  C215 1530   6.708   1.831   8.035 -0.0993  0.0663  0.2287
   12SAPS  H15R 1531   6.796   1.775   8.071  0.3233 -0.5329 -1.6223
   12SAPS  C216 1532   6.605   1.858   8.135  0.5742  0.2373  0.0492
   12SAPS  H16R 1533   6.548   1.951   8.115 -2.2354 -1.6600 -1.4344
   12SAPS  H16S 1534   6.644   1.870   8.238 -0.1200 -0.5865  0.4268
   12SAPS  C217 1535   6.491   1.750   8.152 -0.5948  0.0794 -0.2534
   12SAPS  H17R 1536   6.433   1.773   8.244 -0.3243  1.2229 -0.3509
   12SAPS  H17S 1537   6.537   1.650   8.163 -0.0463  0.2014 -1.2941
   12SAPS  C218 1538   6.395   1.742   8.029 -0.0881  0.0043 -0.0145
   12SAPS  H18R 1539   6.451   1.736   7.932 -0.8989  2.1785 -0.6789
   12SAPS  H18S 1540   6.324   1.828   8.022  2.7402  2.5084 -0.3053
   12SAPS  C219 1541   6.296   1.624   8.047 -0.5719 -0.6049  0.2941
   12SAPS  H19R 1542   6.230   1.649   8.133 -0.9503 -1.0779  0.1518
   12SAPS  H19S 1543   6.357   1.536   8.077  1.8691  0.7702 -0.4201
   12SAPS  C220 1544   6.213   1.605   7.915 -0.4281 -0.0670 -0.2425
   12SAPS  H20R 1545   6.123   1.541   7.924  1.0301 -2.5287 -1.8426
   12SAPS  H20S 1546   6.271   1.560   7.831 -0.7732  1.2937 -1.2291
   12SAPS  H20T 1547   6.168   1.702   7.885 -3.4827 -0.7459  1.6901
   12SAPS   C33 1548   7.242   1.966   6.839  0.4620 -0.6048 -0.1900
   12SAPS   H3X 1549   7.321   2.040   6.813 -0.9385  1.7044  1.6279
   12SAPS   H3Y 1550   7.272   1.859   6.840  0.2259 -0.6731 -0.4000
   12SAPS   C34 1551   7.210   2.008   6.986 -0.2638 -0.5121 -1.1571
   12SAPS   H4X 1552   7.294   1.969   7.048 -0.1037  0.5068 -0.7151
   12SAPS   H4Y 1553   7.117   1.960   7.022 -0.3864  1.6440  1.7376
   12SAPS   C35 1554   7.206   2.162   7.013  0.3401  0.3886  0.1517
   12SAPS   H5X 1555   7.131   2.206   6.944  0.4824  1.1625  0.4815
   12SAPS   H5Y 1556   7.305   2.204   6.986  2.3313 -3.5902  0.4496
   12SAPS   C36 1557   7.182   2.206   7.159 -0.1072  0.2121  0.0139
   12SAPS   H6X 1558   7.082   2.169   7.188  0.4182 -1.2069  0.0936
   12SAPS   H6Y 1559   7.182   2.317   7.155 -1.8893  0.2107 -2.4527
   12SAPS   C37 1560   7.288   2.148   7.257  0.1141  0.0370 -0.0414
   12SAPS   H7X 1561   7.384   2.160   7.202  1.2578 -1.4193  1.5464
   12SAPS   H7Y 1562   7.273   2.037   7.261 -0.0849  0.0592 -0.1268
   12SAPS   C38 1563   7.297   2.211   7.400  0.0828 -0.6425  0.2543
   12SAPS   H8X 1564   7.298   2.321   7.387  0.7818 -0.4235  1.8509
   12SAPS   H8Y 1565   7.387   2.171   7.452  0.5746 -0.7381 -0.6406
   12SAPS   C39 1566   7.179   2.185   7.493 -0.0711 -0.0441 -0.5224
   12SAPS   H9X 1567   7.156   2.078   7.507 -2.9295  0.0500 -3.4918
   12SAPS   H9Y 1568   7.088   2.229   7.448  0.2731  0.0815 -1.0987
   12SAPS  C310 1569   7.202   2.245   7.635  0.5742 -0.4399 -0.1215
   12SAPS  H10X 1570   7.192   2.356   7.635 -0.2067 -0.5080 -0.6346
   12SAPS  H10Y 1571   7.306   2.220   7.665  0.6770  1.8233  1.7630
   12SAPS  C311 1572   7.109   2.186   7.746 -0.6771  0.4130  0.4772
   12SAPS  H11X 1573   7.136   2.080   7.764  1.2221  0.6406 -0.6404
   12SAPS  H11Y 1574   7.001   2.185   7.721 -0.6704 -0.6888  0.4527
   12SAPS  C312 1575   7.132   2.234   7.889 -0.0365  0.6507  0.1586
   12SAPS  H12X 1576   7.126   2.344   7.903 -0.0816  0.4436  2.1858
   12SAPS  H12Y 1577   7.233   2.207   7.926 -0.2431  1.6039  1.4963
   12SAPS  C313 1578   7.022   2.195   7.985  0.2048  0.1104 -0.0303
   12SAPS  H13X 1579   7.020   2.085   7.997  0.6743  0.0533 -0.4807
   12SAPS  H13Y 1580   6.920   2.226   7.953  0.1705  1.1419  0.9793
   12SAPS  C314 1581   7.041   2.248   8.128  0.9698 -0.3036 -1.0926
   12SAPS  H14X 1582   7.029   2.358   8.123  0.1716 -0.4392 -2.6598
   12SAPS  H14Y 1583   7.146   2.224   8.159  0.9307 -0.5430 -1.1438
   12SAPS  C315 1584   6.943   2.173   8.226 -0.1598 -0.7788  0.2046
   12SAPS  H15X 1585   6.932   2.063   8.215  2.9593 -1.1025 -0.8386
   12SAPS  H15Y 1586   6.842   2.215   8.206  1.1606  1.5486 -2.2307
   12SAPS  C316 1587   6.996   2.198   8.366 -0.0940  1.2142 -0.1644
   12SAPS  H16X 1588   7.000   2.309   8.374  0.5670  1.2207 -0.4774
   12SAPS  H16Y 1589   7.099   2.160   8.384 -0.4879 -0.2564 -0.9209
   12SAPS  C317 1590   6.898   2.141   8.467 -0.4079 -0.4217 -0.9208
   12SAPS  H17X 1591   6.855   2.043   8.436 -1.1775  0.5291 -3.0772
   12SAPS  H17Y 1592   6.814   2.213   8.479 -0.0216 -0.2280  0.8139
   12SAPS  C318 1593   6.953   2.125   8.608  0.1654  0.6148 -0.5829
   12SAPS  H18X 1594   6.873   2.101   8.682  1.8882  1.1178  1.5429
   12SAPS  H18Y 1595   7.007   2.215   8.643  0.2273  0.0868  0.7379
   12SAPS  H18Z 1596   7.020   2.036   8.612  0.5913  0.7961 -2.6881
   13SAPS     N 1597   6.137   6.306   6.157  0.2575  0.3520 -0.1749
   13SAPS   HN1 1598   6.128   6.216   6.209  0.4550 -0.1280 -0.9506
   13SAPS   HN2 1599   6.186   6.376   6.217 -0.9893  2.9588 -2.0063
   13SAPS   HN3 1600   6.039   6.337   6.143  1.2258  3.1208 -1.5166
   13SAPS   C12 1601   6.206   6.289   6.028  0.2002  0.0414 -0.3544
   13SAPS  H12A 1602   6.160   6.203   5.981 -1.7481  1.2789 -0.8485
   13SAPS   C13 1603   6.181   6.414   5.932 -1.0386 -0.0548 -0.2138
   13SAPS  O13A 1604   6.137   6.522   5.975  0.2242 -0.2106  0.5164
   13SAPS  O13B 1605   6.228   6.411   5.811  0.0765 -0.1637 -0.1290
   13SAPS   C11 1606   6.359   6.273   6.051  0.3788  0.1737 -0.1129
   13SAPS  H11A 1607   6.401   6.365   6.096  3.0295 -1.8286  1.8871
   13SAPS  H11B 1608   6.416   6.273   5.956  0.4042  2.2447 -0.1435
   13SAPS     P 1609   6.414   6.020   6.065 -0.1989  0.6760 -0.2544
   13SAPS   O13 1610   6.282   5.951   6.073  0.0838  0.3340 -0.2043
   13SAPS   O14 1611   6.470   6.036   5.926  0.9254  0.9599 -0.7202
   13SAPS   O12 1612   6.400   6.157   6.132  0.4601  0.4980 -0.2453
   13SAPS   O11 1613   6.526   5.947   6.157  0.1724  0.1635 -0.3762
   13SAPS    C1 1614   6.630   6.010   6.230 -0.2613 -0.3092  0.0414
   13SAPS    HA 1615   6.724   5.952   6.214 -1.0446 -1.7498  0.4604
   13SAPS    HB 1616   6.653   6.113   6.194 -0.2491 -0.3830 -0.1628
   13SAPS    C2 1617   6.623   6.022   6.381 -0.1475 -0.0210 -0.5053
   13SAPS    HS 1618   6.719   6.070   6.411  0.6009 -0.5375 -1.9658
   13SAPS   O21 1619   6.602   5.894   6.445  0.0021 -0.0782 -0.0129
   13SAPS   C21 1620   6.711   5.819   6.465 -0.2383  0.2250  0.0528
   13SAPS   O22 1621   6.822   5.845   6.426  0.1508  0.0698 -0.0341
   13SAPS   C22 1622   6.686   5.707   6.570 -0.3048 -0.2584 -0.0233
   13SAPS   H2R 1623   6.576   5.699   6.584 -0.1086 -0.0912  1.8352
   13SAPS   H2S 1624   6.721   5.606   6.539 -0.6814 -1.4033  2.9313
   13SAPS    C3 1625   6.515   6.126   6.425  0.1224 -0.0257 -0.7406
   13SAPS    HX 1626   6.419   6.082   6.391  1.1797 -1.2550 -2.2609
   13SAPS    HY 1627   6.544   6.220   6.375 -2.2802  1.9394  1.3080
   13SAPS   O31 1628   6.515   6.152   6.570  0.2166 -0.0254 -0.1414
   13SAPS   C31 1629   6.454   6.260   6.607  0.7887  0.2210 -0.2248
   13SAPS   O32 1630   6.388   6.338   6.542  0.2570  0.0459  0.0817
   13SAPS   C32 1631   6.457   6.258   6.760  0.6412  0.3566 -1.0251
   13SAPS   H2X 1632   6.554   6.226   6.803 -0.8001 -0.5141  1.8542
   13SAPS   H2Y 1633   6.383   6.186   6.802  1.1212  0.7593  0.5537
   13SAPS   C23 1634   6.760   5.737   6.702 -0.0980 -0.2588 -0.2226
   13SAPS   H3R 1635   6.723   5.820   6.765  1.3554  0.6031 -0.4701
   13SAPS   H3S 1636   6.869   5.750   6.685  0.4903 -1.5975  2.0783
   13SAPS   C24 1637   6.761   5.617   6.803  0.9608 -0.3595 -0.0027
   13SAPS   H4R 1638   6.829   5.652   6.884  0.2656  2.2686 -0.4733
   13SAPS   H4S 1639   6.810   5.537   6.742  0.4139  0.8249 -2.0770
   13SAPS   C25 1640   6.622   5.565   6.832 -0.5304  0.0503  0.1571
   13SAPS   H5R 1641   6.587   5.494   6.756 -0.9585  3.5094 -3.1894
   13SAPS   C26 1642   6.560   5.576   6.952  0.1331  0.6721  0.4092
   13SAPS   H6R 1643   6.459   5.533   6.957  0.3926 -0.0456 -0.3303
   13SAPS   C27 1644   6.597   5.654   7.073 -0.1643 -1.0155 -0.1589
   13SAPS   H7R 1645   6.705   5.677   7.059 -0.2895 -0.8023 -0.8361
   13SAPS   H7S 1646   6.592   5.594   7.166  0.6634  2.1007  2.0517
   13SAPS   C28 1647   6.541   5.799   7.071  0.1193 -0.2907 -0.3749
   13SAPS   H8R 1648   6.463   5.815   6.995 -1.3104 -1.0015  0.9009
   13SAPS   C29 1649   6.580   5.899   7.153  0.2617 -0.0123 -0.2743
   13SAPS   H9R 1650   6.506   5.981   7.150  0.2771  0.1956  2.3621
   13SAPS  C210 1651   6.679   5.876   7.266 -0.0715 -0.2362 -0.2901
   13SAPS  H10R 1652   6.775   5.842   7.223 -0.0465  0.1416 -0.5453
   13SAPS  H10S 1653   6.652   5.794   7.335 -2.0421  0.8212  0.3066
   13SAPS  C211 1654   6.711   5.999   7.343 -0.1115 -0.4930 -0.2659
   13SAPS  H11R 1655   6.709   6.093   7.287  0.8472 -0.6569 -0.5905
   13SAPS  C212 1656   6.756   6.014   7.473  0.4709 -0.2611  0.5103
   13SAPS  H12R 1657   6.771   6.118   7.505  3.8432  0.0885 -1.6927
   13SAPS  C213 1658   6.783   5.901   7.567  0.4513  0.4404  0.1082
   13SAPS  H13R 1659   6.808   5.806   7.515  0.9698  0.9256 -0.5388
   13SAPS  H13S 1660   6.691   5.868   7.620  1.2112 -4.0112 -0.9132
   13SAPS  C214 1661   6.895   5.945   7.659  0.3324  0.3980 -0.4633
   13SAPS  H14R 1662   6.971   6.013   7.620  0.2163  0.2372 -0.9827
   13SAPS  C215 1663   6.917   5.899   7.787  0.5417 -0.1503 -0.3728
   13SAPS  H15R 1664   7.007   5.933   7.839  0.1049  0.6639 -0.1421
   13SAPS  C216 1665   6.830   5.811   7.866  0.3857  0.5931 -0.2594
   13SAPS  H16R 1666   6.885   5.717   7.891  1.9863  1.6111  0.1922
   13SAPS  H16S 1667   6.762   5.753   7.799  0.5436  0.2271 -0.1076
   13SAPS  C217 1668   6.762   5.886   7.976  0.8352 -0.1160 -1.0929
   13SAPS  H17R 1669   6.663   5.850   8.012  1.0560  1.7245  1.6710
   13SAPS  H17S 1670   6.741   5.993   7.953 -0.5936 -0.1185  0.0258
   13SAPS  C218 1671   6.846   5.886   8.104 -0.7901 -0.1324 -0.1974
   13SAPS  H18R 1672   6.952   5.883   8.072 -0.7964 -1.3548 -0.1327
   13SAPS  H18S 1673   6.818   5.794   8.160 -1.9048  0.4526  0.2549
   13SAPS  C219 1674   6.812   6.007   8.201 -0.1809  0.4292  0.2906
   13SAPS  H19R 1675   6.835   5.990   8.308  0.6281  0.5436  0.1389
   13SAPS  H19S 1676   6.702   6.024   8.199 -0.8253 -2.3455  3.1105
   13SAPS  C220 1677   6.884   6.135   8.159 -0.1570  0.0627 -0.4250
   13SAPS  H20R 1678   6.993   6.136   8.181 -0.1877 -2.5624  0.1587
   13SAPS  H20S 1679   6.844   6.218   8.222 -3.4343 -2.0588  0.5591
   13SAPS  H20T 1680   6.873   6.161   8.052  2.1735 -0.0788 -0.7403
   13SAPS   C33 1681   6.421   6.393   6.830 -1.1220 -0.1137 -0.2351
   13SAPS   H3X 1682   6.312   6.406   6.810 -1.4637  0.5421  1.8161
   13SAPS   H3Y 1683   6.480   6.475   6.785  0.7676  1.7364  4.8090
   13SAPS   C34 1684   6.446   6.388   6.981 -1.0316  0.1324 -0.6038
   13SAPS   H4X 1685   6.447   6.495   7.011 -2.9145 -0.1755  0.7349
   13SAPS   H4Y 1686   6.541   6.336   7.006 -1.2100  0.4291  0.7294
   13SAPS   C35 1687   6.324   6.336   7.055  0.9248  0.2677  0.2189
   13SAPS   H5X 1688   6.310   6.228   7.032 -0.6552  0.4431  0.2227
   13SAPS   H5Y 1689   6.251   6.404   7.007  0.5126 -1.5791 -1.9165
   13SAPS   C36 1690   6.309   6.360   7.202 -0.5638  0.2399 -0.1783
   13SAPS   H6X 1691   6.201   6.370   7.229 -1.2954 -2.8012 -1.5785
   13SAPS   H6Y 1692   6.355   6.457   7.229  3.5647 -1.5468 -0.1501
   13SAPS   C37 1693   6.376   6.246   7.277 -0.1188  0.1851 -0.1299
   13SAPS   H7X 1694   6.485   6.246   7.254 -0.0498  1.1770  0.1373
   13SAPS   H7Y 1695   6.340   6.149   7.237 -1.0357  0.7245 -0.6212
   13SAPS   C38 1696   6.351   6.250   7.426  0.6089  0.2282 -0.1759
   13SAPS   H8X 1697   6.243   6.267   7.441  0.5072  0.0993 -0.7635
   13SAPS   H8Y 1698   6.396   6.343   7.468  0.8057 -0.0372  0.2058
   13SAPS   C39 1699   6.401   6.131   7.501 -0.0944  0.5434  0.1528
   13SAPS   H9X 1700   6.511   6.125   7.498 -0.1909 -2.7151 -0.7693
   13SAPS   H9Y 1701   6.359   6.042   7.449 -0.3773  1.0965 -0.5730
   13SAPS  C310 1702   6.340   6.125   7.641 -0.6817  0.3648  0.3634
   13SAPS  H10X 1703   6.374   6.024   7.671 -0.6418 -0.1570 -1.3384
   13SAPS  H10Y 1704   6.228   6.126   7.640 -0.7175  0.1226  1.6086
   13SAPS  C311 1705   6.402   6.222   7.736 -0.4686  0.6980 -0.6752
   13SAPS  H11X 1706   6.364   6.210   7.840  1.0657  2.1994  0.0899
   13SAPS  H11Y 1707   6.367   6.324   7.710  2.3376  1.2930 -2.4482
   13SAPS  C312 1708   6.552   6.202   7.758  0.4965  0.6246  0.2410
   13SAPS  H12X 1709   6.608   6.239   7.669 -0.6070  0.8238 -0.3928
   13SAPS  H12Y 1710   6.577   6.095   7.772 -3.0253 -0.5415 -1.1976
   13SAPS  C313 1711   6.610   6.282   7.883  0.8154  0.1823 -0.6561
   13SAPS  H13X 1712   6.721   6.278   7.885  0.7818 -0.7008  1.1729
   13SAPS  H13Y 1713   6.570   6.231   7.973  2.2408  2.0877  1.1743
   13SAPS  C314 1714   6.570   6.435   7.896 -0.1740  0.4632  0.0353
   13SAPS  H14X 1715   6.459   6.438   7.899 -0.2641  0.4652 -1.9115
   13SAPS  H14Y 1716   6.608   6.491   7.808 -0.9548  0.3479 -0.3905
   13SAPS  C315 1717   6.605   6.501   8.027 -0.5515  0.0897  0.4562
   13SAPS  H15X 1718   6.603   6.612   8.021 -0.3787 -0.0007 -2.2256
   13SAPS  H15Y 1719   6.709   6.473   8.052 -0.9282  0.7580  3.0570
   13SAPS  C316 1720   6.502   6.462   8.141  0.0548  0.0706 -0.9255
   13SAPS  H16X 1721   6.487   6.353   8.124 -1.8313  0.3930 -1.5345
   13SAPS  H16Y 1722   6.399   6.499   8.122  0.1040 -0.2685 -1.9073
   13SAPS  C317 1723   6.556   6.481   8.283 -0.0005 -0.2001 -0.5450
   13SAPS  H17X 1724   6.662   6.449   8.282 -0.4086 -1.6668  0.2844
   13SAPS  H17Y 1725   6.513   6.408   8.354  2.4674 -1.4428 -0.2201
   13SAPS  C318 1726   6.557   6.630   8.324  0.0983 -0.6688  0.3301
   13SAPS  H18X 1727   6.589   6.643   8.430 -1.1487  0.8853  0.5493
   13SAPS  H18Y 1728   6.452   6.664   8.318 -0.1170 -0.3402  3.7811
   13SAPS  H18Z 1729   6.616   6.694   8.255 -2.8791  1.5332 -0.3551
   14SAPS     N 1730   4.428   1.224   5.564 -0.1773 -0.1940 -0.0746
   14SAPS   HN1 1731   4.476   1.304   5.519  0.9507 -1.8137 -1.9160
   14SAPS   HN2 1732   4.340   1.221   5.508 -0.4308  3.5229 -0.1060
   14SAPS   HN3 1733   4.407   1.236   5.665  0.3884 -2.6747  0.3870
   14SAPS   C12 1734   4.513   1.100   5.551  0.3175  0.1516 -0.1065
   14SAPS  H12A 1735   4.451   1.036   5.490 -2.9787  2.6451  0.2835
   14SAPS   C13 1736   4.634   1.140   5.462 -0.3807  0.0784 -0.3241
   14SAPS  O13A 1737   4.649   1.252   5.410  0.2765  0.1931  0.3224
   14SAPS  O13B 1738   4.705   1.042   5.426 -0.4075  0.1976 -0.0474
   14SAPS   C11 1739   4.551   1.052   5.694  0.1228 -1.1301  0.3179
   14SAPS  H11A 1740   4.602   1.128   5.757 -0.8247 -2.2049  2.5112
   14SAPS  H11B 1741   4.627   0.974   5.673  1.9493  1.2101 -2.4340
   14SAPS     P 1742   4.359   1.077   5.876  0.2808  0.0479 -0.1791
   14SAPS   O13 1743   4.335   1.213   5.829 -0.6392  0.0475 -0.4543
   14SAPS   O14 1744   4.240   1.001   5.917  0.1882  0.5687  1.2900
   14SAPS   O12 1745   4.439   0.998   5.764 -0.0452 -0.3575  0.3392
   14SAPS   O11 1746   4.466   1.076   5.991 -0.7948  0.1825  0.2804
   14SAPS    C1 1747   4.513   0.954   6.046 -0.4373  0.5869 -0.3986
   14SAPS    HA 1748   4.441   0.879   6.085  1.1047  0.0881  1.6907
   14SAPS    HB 1749   4.566   0.893   5.970  1.7217 -0.3438  1.7241
   14SAPS    C2 1750   4.624   0.970   6.163  0.2385 -0.0626  0.9272
   14SAPS    HS 1751   4.648   0.867   6.198  0.0504 -0.9420 -1.3380
   14SAPS   O21 1752   4.575   1.040   6.275  0.0818 -0.7070  0.4640
   14SAPS   C21 1753   4.485   0.968   6.350 -1.0201 -0.5675  0.5755
   14SAPS   O22 1754   4.457   0.852   6.326  0.2376 -0.0148 -0.0437
   14SAPS   C22 1755   4.439   1.055   6.463 -0.5846  0.4931 -0.5019
   14SAPS   H2R 1756   4.523   1.053   6.535 -0.1542 -1.8441 -0.9922
   14SAPS   H2S 1757   4.430   1.161   6.430 -0.7657  1.0513  1.2723
   14SAPS    C3 1758   4.750   1.037   6.100  0.0284  0.0403 -0.8285
   14SAPS    HX 1759   4.717   1.130   6.049 -0.4896  0.5123  0.3152
   14SAPS    HY 1760   4.797   0.962   6.034  1.3780 -0.4694  0.6404
   14SAPS   O31 1761   4.850   1.078   6.197 -0.6468 -0.6797 -0.0942
   14SAPS   C31 1762   4.819   1.194   6.260 -0.0496  0.2274  0.3592
   14SAPS   O32 1763   4.729   1.266   6.223 -0.0654  0.2463  0.1898
   14SAPS   C32 1764   4.903   1.212   6.386 -0.4343 -0.2701 -1.1389
   14SAPS   H2X 1765   5.009   1.200   6.358  0.9838  3.2261  1.8903
   14SAPS   H2Y 1766   4.874   1.134   6.460  2.2077 -2.1126 -1.9014
   14SAPS   C23 1767   4.309   1.012   6.519 -0.0894  0.0788 -0.3023
   14SAPS   H3R 1768   4.316   0.907   6.556  1.0969  0.6244  1.1348
   14SAPS   H3S 1769   4.222   1.023   6.450 -1.2111  1.5503  1.2543
   14SAPS   C24 1770   4.266   1.089   6.650  0.3035  0.4268 -0.4137
   14SAPS   H4R 1771   4.324   1.045   6.734 -0.7467  0.8626  0.5702
   14SAPS   H4S 1772   4.160   1.057   6.662 -0.3261  2.6178  0.3982
   14SAPS   C25 1773   4.264   1.241   6.644  0.4327  0.1369 -0.3870
   14SAPS   H5R 1774   4.204   1.280   6.561  0.4902  3.8391  1.1010
   14SAPS   C26 1775   4.352   1.326   6.697  0.1739 -0.0366 -0.4774
   14SAPS   H6R 1776   4.338   1.430   6.667  1.2481  0.7783  1.6495
   14SAPS   C27 1777   4.468   1.290   6.789 -0.1085 -0.1188  0.9876
   14SAPS   H7R 1778   4.499   1.392   6.821  0.3181 -0.2049  0.8538
   14SAPS   H7S 1779   4.548   1.258   6.719  0.2314  0.1767  1.2392
   14SAPS   C28 1780   4.446   1.209   6.906 -0.4391  0.5791  0.0175
   14SAPS   H8R 1781   4.351   1.155   6.910 -1.0462  1.5958 -0.2236
   14SAPS   C29 1782   4.542   1.176   6.996  0.0798  0.0504  1.4633
   14SAPS   H9R 1783   4.518   1.136   7.096 -2.1336  1.1198  1.4070
   14SAPS  C210 1784   4.685   1.211   6.977  0.7696 -0.3346  0.2702
   14SAPS  H10R 1785   4.703   1.288   7.055 -2.2790  1.7526 -0.8794
   14SAPS  H10S 1786   4.702   1.264   6.881  0.4256  1.1196  0.9853
   14SAPS  C211 1787   4.766   1.084   6.974 -1.2604  0.5932 -0.0379
   14SAPS  H11R 1788   4.788   1.029   6.882 -0.9761  0.3615  0.1657
   14SAPS  C212 1789   4.800   1.014   7.083  0.2171 -0.5766  0.3158
   14SAPS  H12R 1790   4.864   0.924   7.072  1.4180  0.3913 -1.0200
   14SAPS  C213 1791   4.768   1.058   7.225 -0.5318 -0.3778 -0.0508
   14SAPS  H13R 1792   4.768   0.967   7.289  1.9307  0.1798  0.8791
   14SAPS  H13S 1793   4.669   1.106   7.237 -1.3848 -2.1097  0.0703
   14SAPS  C214 1794   4.872   1.155   7.284 -0.5313 -0.1751  0.1842
   14SAPS  H14R 1795   4.919   1.222   7.210  0.1378 -0.1228  0.6446
   14SAPS  C215 1796   4.929   1.159   7.413  0.3389  0.4046 -0.0297
   14SAPS  H15R 1797   5.012   1.227   7.436  1.3176 -1.2298  1.6121
   14SAPS  C216 1798   4.883   1.071   7.528  0.0856 -0.1783  0.1213
   14SAPS  H16R 1799   4.952   0.987   7.550  0.9519  1.0247  2.2536
   14SAPS  H16S 1800   4.789   1.017   7.505  0.8059 -1.1989 -0.5394
   14SAPS  C217 1801   4.873   1.147   7.662 -0.2624 -0.1780  0.5807
   14SAPS  H17R 1802   4.825   1.246   7.644  1.5420  0.8910  1.4558
   14SAPS  H17S 1803   4.977   1.173   7.691 -0.2146 -0.3682  0.5802
   14SAPS  C218 1804   4.801   1.070   7.766  0.2472 -0.2308 -0.2889
   14SAPS  H18R 1805   4.843   0.968   7.777 -0.5653 -0.5888 -0.3984
   14SAPS  H18S 1806   4.695   1.055   7.735  0.2897 -1.0645 -0.0577
   14SAPS  C219 1807   4.801   1.123   7.913  0.2956 -0.6991 -0.0135
   14SAPS  H19R 1808   4.706   1.096   7.964  1.5342  1.2074  3.6557
   14SAPS  H19S 1809   4.790   1.233   7.906  0.6458 -0.6698 -0.1340
   14SAPS  C220 1810   4.922   1.083   8.004 -0.0694 -0.2436  0.1644
   14SAPS  H20R 1811   4.938   0.973   8.012 -0.2353 -0.2260  0.8004
   14SAPS  H20S 1812   4.907   1.118   8.109  2.9823 -0.8745  0.9070
   14SAPS  H20T 1813   5.008   1.130   7.952 -1.7400  0.5123 -2.0682
   14SAPS   C33 1814   4.890   1.364   6.439  0.6264  0.0767 -0.1980
   14SAPS   H3X 1815   4.784   1.376   6.472  1.1434  0.6378  1.3447
   14SAPS   H3Y 1816   4.908   1.439   6.359 -1.0533  1.0373  0.2605
   14SAPS   C34 1817   4.997   1.390   6.549  0.1948 -0.0433  0.3817
   14SAPS   H4X 1818   4.994   1.497   6.579 -1.2788 -0.5240  2.1575
   14SAPS   H4Y 1819   5.100   1.385   6.509  0.2521  4.7311 -0.6120
   14SAPS   C35 1820   4.972   1.305   6.671  0.3171  0.1885 -0.1233
   14SAPS   H5X 1821   4.976   1.199   6.640  0.3818  0.1393  0.0521
   14SAPS   H5Y 1822   4.869   1.329   6.706  0.3617  0.7199 -0.3453
   14SAPS   C36 1823   5.085   1.325   6.774 -0.1811  0.0621 -0.5753
   14SAPS   H6X 1824   5.127   1.427   6.764 -0.3126  0.0947 -0.7926
   14SAPS   H6Y 1825   5.174   1.263   6.749  2.0685  2.7632  0.2202
   14SAPS   C37 1826   5.044   1.276   6.918  0.3368 -0.4280 -0.4767
   14SAPS   H7X 1827   5.016   1.170   6.903  2.7546 -1.1148 -0.6899
   14SAPS   H7Y 1828   4.947   1.323   6.944  0.5392 -1.2786  2.1794
   14SAPS   C38 1829   5.154   1.294   7.025  0.7749 -0.0201  0.3450
   14SAPS   H8X 1830   5.250   1.272   6.974 -0.3015 -0.4500 -1.6071
   14SAPS   H8Y 1831   5.139   1.210   7.097  0.2588 -0.0253  0.2392
   14SAPS   C39 1832   5.156   1.431   7.074 -0.3353 -0.4129  0.1991
   14SAPS   H9X 1833   5.057   1.467   7.112 -0.0228 -0.8815  1.4954
   14SAPS   H9Y 1834   5.181   1.497   6.988 -0.8050  0.4696  0.7207
   14SAPS  C310 1835   5.258   1.449   7.181 -0.1677  0.1538 -0.1199
   14SAPS  H10X 1836   5.283   1.556   7.199  2.2420 -0.1945 -1.0777
   14SAPS  H10Y 1837   5.352   1.397   7.155 -0.1343  0.4076 -0.5164
   14SAPS  C311 1838   5.207   1.400   7.319 -0.6842 -0.1201  0.0816
   14SAPS  H11X 1839   5.174   1.293   7.323 -0.4458 -0.1928  0.0987
   14SAPS  H11Y 1840   5.119   1.455   7.357  0.2887  0.6464  1.2896
   14SAPS  C312 1841   5.309   1.408   7.424 -0.2005 -1.1543 -0.3249
   14SAPS  H12X 1842   5.324   1.515   7.450  0.3272 -1.3437  0.1830
   14SAPS  H12Y 1843   5.406   1.377   7.378 -0.7018 -1.3545 -1.2640
   14SAPS  C313 1844   5.291   1.320   7.550 -0.1323  0.2849 -0.1697
   14SAPS  H13X 1845   5.385   1.320   7.610  0.2861  0.8930 -0.8100
   14SAPS  H13Y 1846   5.264   1.217   7.520 -1.2461  0.1510  1.2028
   14SAPS  C314 1847   5.185   1.380   7.650 -0.6028 -0.4335  0.1339
   14SAPS  H14X 1848   5.082   1.346   7.623 -1.5273  2.2528 -0.0501
   14SAPS  H14Y 1849   5.181   1.491   7.638  0.4061 -0.2926  0.9769
   14SAPS  C315 1850   5.222   1.346   7.795 -0.8901 -0.0191  0.2493
   14SAPS  H15X 1851   5.322   1.388   7.816 -0.3731 -2.3415  2.9949
   14SAPS  H15Y 1852   5.227   1.235   7.806 -3.6395 -0.0991  1.6752
   14SAPS  C316 1853   5.123   1.412   7.889  0.0280 -0.0775  0.0978
   14SAPS  H16X 1854   5.025   1.367   7.864  0.2151 -0.2674 -0.3088
   14SAPS  H16Y 1855   5.111   1.518   7.858 -1.6967 -0.1875  0.3013
   14SAPS  C317 1856   5.170   1.415   8.041 -0.0366  0.0111 -0.4620
   14SAPS  H17X 1857   5.243   1.498   8.047  0.6755 -0.6957  1.2276
   14SAPS  H17Y 1858   5.212   1.316   8.069 -2.2574 -0.7195  0.5535
   14SAPS  C318 1859   5.052   1.448   8.141 -0.3267 -0.3563  0.1218
   14SAPS  H18X 1860   5.107   1.463   8.236  0.1963 -3.7237  0.4877
   14SAPS  H18Y 1861   4.984   1.360   8.145  1.0054 -1.6387 -2.5704
   14SAPS  H18Z 1862   4.995   1.542   8.124 -1.8481 -1.1742  0.4757
   15SAPS     N 1863   6.173   5.784   5.881 -0.7955 -0.4370 -0.1849
   15SAPS   HN1 1864   6.225   5.862   5.926  1.8812 -0.9915 -2.0592
   15SAPS   HN2 1865   6.139   5.810   5.787 -1.5189 -0.2021  0.1365
   15SAPS   HN3 1866   6.091   5.760   5.941  0.1710 -1.8483  0.6483
   15SAPS   C12 1867   6.265   5.662   5.900  0.2518  0.0880 -0.1490
   15SAPS  H12A 1868   6.204   5.576   5.876 -0.1075  0.6819 -1.4935
   15SAPS   C13 1869   6.387   5.661   5.804  0.3537 -0.8149 -0.2040
   15SAPS  O13A 1870   6.385   5.728   5.698  0.5088  0.1681  0.1390
   15SAPS  O13B 1871   6.477   5.574   5.820  0.5620 -0.5235  0.2873
   15SAPS   C11 1872   6.311   5.645   6.051 -0.3211 -0.0795  0.4329
   15SAPS  H11A 1873   6.386   5.720   6.083 -0.4237  0.2369 -0.0590
   15SAPS  H11B 1874   6.367   5.549   6.043 -0.6641 -0.3678  1.3744
   15SAPS     P 1875   6.157   5.538   6.235 -0.2344 -0.2971  0.1557
   15SAPS   O13 1876   6.055   5.438   6.187  0.2606 -0.4064 -0.5777
   15SAPS   O14 1877   6.289   5.489   6.281  0.0063 -0.5188 -0.3528
   15SAPS   O12 1878   6.194   5.645   6.127  0.1625  0.3184  0.8752
   15SAPS   O11 1879   6.090   5.616   6.356 -0.0271 -0.2540 -0.0641
   15SAPS    C1 1880   6.136   5.741   6.396  0.2207  1.0343 -0.2589
   15SAPS    HA 1881   6.191   5.801   6.320  0.5676  0.4999 -0.4418
   15SAPS    HB 1882   6.040   5.791   6.418 -0.4992 -0.0413 -0.8500
   15SAPS    C2 1883   6.219   5.729   6.524  0.1881  0.0418 -0.2172
   15SAPS    HS 1884   6.295   5.652   6.498  1.6536  1.2528  0.3255
   15SAPS   O21 1885   6.145   5.695   6.643  0.3549  0.5166  0.2812
   15SAPS   C21 1886   6.122   5.577   6.666  0.3295  0.0130 -0.2220
   15SAPS   O22 1887   6.177   5.479   6.608 -0.1139 -0.1787  0.1860
   15SAPS   C22 1888   6.013   5.564   6.774 -0.2380  0.0283  0.3968
   15SAPS   H2R 1889   5.922   5.605   6.725  0.4741 -0.3527 -1.3277
   15SAPS   H2S 1890   6.005   5.455   6.789 -0.2648  0.0074  0.2340
   15SAPS    C3 1891   6.291   5.860   6.545  0.3511 -1.0154  0.5541
   15SAPS    HX 1892   6.359   5.881   6.460 -1.3848 -0.3046 -0.7321
   15SAPS    HY 1893   6.346   5.853   6.641  1.6587  1.0708  0.0113
   15SAPS   O31 1894   6.202   5.980   6.550  0.1541 -0.0727  0.0066
   15SAPS   C31 1895   6.142   6.008   6.670 -0.2706  0.5535  0.5706
   15SAPS   O32 1896   6.180   5.958   6.776  0.7151 -0.1545 -0.0857
   15SAPS   C32 1897   6.042   6.128   6.646 -0.3498 -0.5277 -0.9061
   15SAPS   H2X 1898   6.061   6.178   6.549  0.1178 -0.6745 -0.8917
   15SAPS   H2Y 1899   6.061   6.183   6.741  0.0618 -3.6766  0.9753
   15SAPS   C23 1900   6.047   5.636   6.909 -0.2530  0.1833 -0.4820
   15SAPS   H3R 1901   6.049   5.745   6.887 -1.1675  0.6939  1.7226
   15SAPS   H3S 1902   6.149   5.615   6.948 -0.4766  0.3876  0.2242
   15SAPS   C24 1903   5.945   5.593   7.020  0.5944  0.0924 -0.4896
   15SAPS   H4R 1904   5.841   5.607   6.983  0.6043 -1.3728 -1.1082
   15SAPS   H4S 1905   5.959   5.667   7.102  4.9081 -0.0908 -0.8085
   15SAPS   C25 1906   5.970   5.451   7.072  0.3074 -0.3414  0.0390
   15SAPS   H5R 1907   5.894   5.381   7.034  0.0438 -0.4440  0.7415
   15SAPS   C26 1908   6.058   5.413   7.166 -0.4342  0.5524  0.4930
   15SAPS   H6R 1909   6.044   5.308   7.197  0.9714 -0.8926 -3.2813
   15SAPS   C27 1910   6.169   5.495   7.231 -0.5721  0.0376  0.5979
   15SAPS   H7R 1911   6.202   5.575   7.161 -1.2458  0.9838  1.3341
   15SAPS   H7S 1912   6.258   5.436   7.258 -0.6528 -0.2879  0.1750
   15SAPS   C28 1913   6.115   5.573   7.346  0.9377  0.3682  0.4088
   15SAPS   H8R 1914   6.101   5.680   7.325  2.3657  0.2097 -1.6320
   15SAPS   C29 1915   6.070   5.527   7.468 -0.5606  0.4026  0.1317
   15SAPS   H9R 1916   6.052   5.598   7.550 -0.8789  0.6775 -0.1800
   15SAPS  C210 1917   6.079   5.381   7.519  0.4105  1.0566 -0.1769
   15SAPS  H10R 1918   6.169   5.367   7.582 -0.8281 -0.5269  1.3349
   15SAPS  H10S 1919   6.093   5.310   7.435 -0.8107 -0.7882  1.0978
   15SAPS  C211 1920   5.952   5.340   7.598 -0.4473 -0.6322 -0.3199
   15SAPS  H11R 1921   5.869   5.305   7.535 -0.4435  0.8654 -1.1987
   15SAPS  C212 1922   5.936   5.343   7.732 -0.2469  0.7482 -0.4929
   15SAPS  H12R 1923   5.836   5.314   7.767 -0.1114  0.5001 -0.3061
   15SAPS  C213 1924   6.041   5.372   7.838 -0.1383  0.1154  0.4689
   15SAPS  H13R 1925   6.007   5.473   7.871  0.5705  0.7454 -0.6454
   15SAPS  H13S 1926   6.138   5.394   7.788 -0.5563  0.7578 -0.0802
   15SAPS  C214 1927   6.047   5.259   7.938 -0.1569  0.1775 -0.2374
   15SAPS  H14R 1928   6.129   5.187   7.931  0.8722  1.4174 -1.4956
   15SAPS  C215 1929   5.956   5.247   8.044 -0.7244  0.1815 -0.2816
   15SAPS  H15R 1930   5.956   5.151   8.097  0.4482  1.7230  2.7904
   15SAPS  C216 1931   5.850   5.352   8.072 -0.0596 -0.1385  0.0768
   15SAPS  H16R 1932   5.748   5.318   8.042 -0.1170 -1.2433  1.4187
   15SAPS  H16S 1933   5.862   5.447   8.015  2.2013 -0.3124  0.1730
   15SAPS  C217 1934   5.860   5.388   8.218  0.2094 -0.4135  0.6987
   15SAPS  H17R 1935   5.794   5.477   8.228  1.2271  0.2812  1.3245
   15SAPS  H17S 1936   5.964   5.409   8.251  1.0889 -2.1717 -0.7703
   15SAPS  C218 1937   5.802   5.287   8.309 -0.2619 -0.1208 -0.1218
   15SAPS  H18R 1938   5.854   5.191   8.286  1.0152  0.7928 -1.2519
   15SAPS  H18S 1939   5.694   5.280   8.286 -0.3763  0.0929  0.3385
   15SAPS  C219 1940   5.803   5.329   8.456 -0.2939  0.3200  0.2114
   15SAPS  H19R 1941   5.768   5.432   8.474  2.8290  1.8025 -1.4825
   15SAPS  H19S 1942   5.909   5.345   8.485 -0.2362 -2.8736  2.3196
   15SAPS  C220 1943   5.739   5.231   8.553 -0.2194 -0.4541  0.9470
   15SAPS  H20R 1944   5.771   5.263   8.654  0.0410 -0.3240  0.8247
   15SAPS  H20S 1945   5.763   5.125   8.528  0.4746 -0.6228  2.2510
   15SAPS  H20T 1946   5.628   5.236   8.553 -0.4073 -2.8706 -0.8225
   15SAPS   C33 1947   5.896   6.092   6.641 -0.1696 -0.1424 -0.1312
   15SAPS   H3X 1948   5.872   6.044   6.544  1.3390 -1.2364  0.0085
   15SAPS   H3Y 1949   5.840   6.188   6.646 -1.6695 -0.8980 -1.4957
   15SAPS   C34 1950   5.852   6.006   6.762  1.0635 -0.3583 -0.3362
   15SAPS   H4X 1951   5.894   5.904   6.755 -1.5497 -1.4436 -0.9537
   15SAPS   H4Y 1952   5.741   6.004   6.766  1.0663 -0.0613 -0.0749
   15SAPS   C35 1953   5.899   6.067   6.894 -0.0417 -0.3545 -0.0660
   15SAPS   H5X 1954   5.867   6.173   6.901 -0.0545 -0.2513 -1.4610
   15SAPS   H5Y 1955   6.008   6.061   6.915 -0.0417  1.7346  0.7587
   15SAPS   C36 1956   5.844   5.979   7.009  0.2184  0.2249  0.0182
   15SAPS   H6X 1957   5.890   5.878   7.005  2.6308  1.2408  0.5970
   15SAPS   H6Y 1958   5.733   5.975   7.005  0.1935  1.2262 -0.6889
   15SAPS   C37 1959   5.887   6.034   7.148  0.3686  0.2305  0.1148
   15SAPS   H7X 1960   5.833   6.128   7.174 -3.2482 -1.6845  0.1768
   15SAPS   H7Y 1961   5.997   6.054   7.152  0.5477 -0.5074 -0.8873
   15SAPS   C38 1962   5.857   5.936   7.268 -0.0131 -0.3645  0.2529
   15SAPS   H8X 1963   5.893   5.831   7.260  2.4676 -0.0487  4.6070
   15SAPS   H8Y 1964   5.746   5.930   7.258 -0.1035 -0.8940  1.5043
   15SAPS   C39 1965   5.899   5.998   7.401  0.4657 -0.9622  0.1093
   15SAPS   H9X 1966   5.847   6.095   7.419  2.0488  0.2261 -1.4625
   15SAPS   H9Y 1967   6.006   6.027   7.394  0.3292 -0.7125 -1.0023
   15SAPS  C310 1968   5.866   5.902   7.516 -0.0806 -0.2172 -0.6303
   15SAPS  H10X 1969   5.935   5.815   7.504  0.1292 -0.3668  1.3270
   15SAPS  H10Y 1970   5.764   5.858   7.517  0.6744 -2.0994 -0.4551
   15SAPS  C311 1971   5.897   5.967   7.652 -0.6242  0.3831 -0.5551
   15SAPS  H11X 1972   5.824   6.049   7.671  1.3011  2.2418 -0.8455
   15SAPS  H11Y 1973   5.995   6.018   7.652  0.1862 -0.9377  2.4835
   15SAPS  C312 1974   5.888   5.862   7.764 -0.1743 -0.4381  0.2651
   15SAPS  H12X 1975   5.975   5.797   7.741 -0.8200 -1.5249  0.7845
   15SAPS  H12Y 1976   5.791   5.809   7.749  0.5489 -1.2463 -1.9592
   15SAPS  C313 1977   5.904   5.911   7.901  1.9932  0.3675 -0.9892
   15SAPS  H13X 1978   5.815   5.973   7.924  0.9780 -0.8127 -1.6185
   15SAPS  H13Y 1979   5.990   5.982   7.898  2.7411 -0.2485  2.1751
   15SAPS  C314 1980   5.932   5.813   8.020 -0.4277 -0.6335 -0.1864
   15SAPS  H14X 1981   6.013   5.741   7.995  1.3423  0.7103  1.3983
   15SAPS  H14Y 1982   5.837   5.759   8.036  0.1225 -0.8505  2.9059
   15SAPS  C315 1983   5.964   5.883   8.151 -0.1296  0.2825 -0.3764
   15SAPS  H15X 1984   5.881   5.951   8.178 -1.8185 -1.0273 -1.9696
   15SAPS  H15Y 1985   6.051   5.945   8.121  0.6119 -0.0278  1.0744
   15SAPS  C316 1986   6.004   5.797   8.268  0.1574  0.0193 -0.1919
   15SAPS  H16X 1987   6.076   5.721   8.232 -0.3000  1.3959 -4.7142
   15SAPS  H16Y 1988   5.911   5.743   8.296 -0.1173 -0.1702 -1.3931
   15SAPS  C317 1989   6.045   5.872   8.397 -0.3086  0.4554  0.0550
   15SAPS  H17X 1990   5.970   5.953   8.411 -0.7681  0.0647 -0.1313
   15SAPS  H17Y 1991   6.139   5.928   8.379 -0.4562  0.2378 -1.5791
   15SAPS  C318 1992   6.056   5.791   8.517 -0.2278 -0.3925  0.2568
   15SAPS  H18X 1993   6.127   5.842   8.586  1.6693 -2.6564  0.0909
   15SAPS  H18Y 1994   6.104   5.695   8.491  1.0102 -0.3427  2.1561
   15SAPS  H18Z 1995   5.954   5.776   8.560 -0.1938  3.5538  2.2272
   16SAPS     N 1996   1.068   2.416   6.318  0.4698 -0.2134  0.4978
   16SAPS   HN1 1997   0.999   2.342   6.293 -0.2257  0.2333  1.0568
   16SAPS   HN2 1998   1.084   2.435   6.418 -0.8284  0.9482  0.5177
   16SAPS   HN3 1999   1.037   2.505   6.274 -3.8103 -0.7006  2.0535
   16SAPS   C12 2000   1.201   2.382   6.250  0.3756 -0.3777 -0.9563
   16SAPS  H12A 2001   1.245   2.294   6.295 -0.8928  0.6065  2.6362
   16SAPS   C13 2002   1.201   2.347   6.099 -0.0340 -0.5357  0.1255
   16SAPS  O13A 2003   1.090   2.350   6.030 -0.0618 -0.0538 -0.1805
   16SAPS  O13B 2004   1.307   2.307   6.048  0.4930  0.0494  0.2089
   16SAPS   C11 2005   1.304   2.505   6.262  0.1705 -0.5823  0.4351
   16SAPS  H11A 2006   1.262   2.583   6.194  2.3920 -0.8259 -1.3383
   16SAPS  H11B 2007   1.402   2.498   6.212 -0.2326  2.3939 -1.0253
   16SAPS     P 2008   1.398   2.475   6.506 -0.1785 -0.3432  0.2348
   16SAPS   O13 2009   1.523   2.420   6.451  0.0706  0.2179 -0.0779
   16SAPS   O14 2010   1.414   2.562   6.624 -0.1438 -0.6393  0.2238
   16SAPS   O12 2011   1.313   2.551   6.398  0.1417 -0.4662 -0.3870
   16SAPS   O11 2012   1.295   2.366   6.542 -0.1051 -0.1441 -0.2043
   16SAPS    C1 2013   1.318   2.259   6.631 -0.2834  0.1926  0.0469
   16SAPS    HA 2014   1.249   2.178   6.602  0.2015  0.3449 -1.6499
   16SAPS    HB 2015   1.417   2.210   6.617 -0.4936 -1.3292  3.0738
   16SAPS    C2 2016   1.301   2.295   6.779  0.2699  0.5116 -0.5709
   16SAPS    HS 2017   1.375   2.374   6.802 -0.5308  1.1126  0.0194
   16SAPS   O21 2018   1.293   2.177   6.859  0.1270  1.1817  0.3727
   16SAPS   C21 2019   1.411   2.114   6.866 -0.1574  0.0397  0.3917
   16SAPS   O22 2020   1.521   2.161   6.828  0.1755 -0.2564 -0.2854
   16SAPS   C22 2021   1.389   1.988   6.948 -0.4122 -0.6513  0.2553
   16SAPS   H2R 2022   1.306   2.013   7.018 -1.5933 -0.3204 -1.1963
   16SAPS   H2S 2023   1.344   1.910   6.882 -1.2001 -0.5696  0.6888
   16SAPS    C3 2024   1.158   2.366   6.798 -0.6078  0.4410 -0.5405
   16SAPS    HX 2025   1.086   2.294   6.754 -3.1592  3.4179 -1.6363
   16SAPS    HY 2026   1.160   2.458   6.736  1.1036  0.4480 -0.5264
   16SAPS   O31 2027   1.117   2.385   6.936 -0.5246 -0.0971  0.1636
   16SAPS   C31 2028   1.194   2.468   7.004  0.6043  1.1650 -0.2639
   16SAPS   O32 2029   1.291   2.530   6.968  0.1767 -0.0498  0.4995
   16SAPS   C32 2030   1.131   2.474   7.149 -0.4946 -0.2036  0.1291
   16SAPS   H2X 2031   1.125   2.371   7.189 -0.6551 -0.4184 -0.4457
   16SAPS   H2Y 2032   1.039   2.536   7.146  1.3104  2.6446 -1.2626
   16SAPS   C23 2033   1.519   1.933   7.017 -0.1153 -0.0200  0.1878
   16SAPS   H3R 2034   1.598   1.933   6.938 -1.0748  1.0376 -0.8160
   16SAPS   H3S 2035   1.487   1.830   7.045 -0.3582 -0.0187 -0.0753
   16SAPS   C24 2036   1.568   2.001   7.142 -0.4648 -0.5470  0.6733
   16SAPS   H4R 2037   1.671   1.962   7.154 -0.9266 -3.3956 -2.8000
   16SAPS   H4S 2038   1.519   1.959   7.232  1.9748 -0.8271  1.9511
   16SAPS   C25 2039   1.566   2.151   7.153  0.0605 -0.2481  0.2102
   16SAPS   H5R 2040   1.628   2.210   7.085 -0.0098  3.1877  2.8389
   16SAPS   C26 2041   1.484   2.210   7.241  0.1646  0.1244  0.3828
   16SAPS   H6R 2042   1.471   2.319   7.231 -1.7020 -0.1533 -0.8224
   16SAPS   C27 2043   1.390   2.136   7.337  0.2557 -0.0404 -0.5754
   16SAPS   H7R 2044   1.353   2.040   7.295  3.7016 -1.2032 -1.3069
   16SAPS   H7S 2045   1.302   2.201   7.351 -0.6374 -1.5439  1.3381
   16SAPS   C28 2046   1.462   2.112   7.471  0.0782  0.1805  0.4396
   16SAPS   H8R 2047   1.572   2.120   7.470  0.0019  1.5233 -0.8102
   16SAPS   C29 2048   1.408   2.107   7.591 -0.3633 -0.0580  0.4553
   16SAPS   H9R 2049   1.481   2.085   7.671  0.3322 -0.0871 -0.1791
   16SAPS  C210 2050   1.265   2.115   7.616  0.0913  0.0360 -0.5522
   16SAPS  H10R 2051   1.207   2.098   7.524  0.1556  1.6884 -0.9433
   16SAPS  H10S 2052   1.228   2.214   7.653  1.4925  0.2282  0.4475
   16SAPS  C211 2053   1.219   2.038   7.734  0.1076  0.0983 -0.2645
   16SAPS  H11R 2054   1.141   1.961   7.725  0.2097  0.0308 -0.5746
   16SAPS  C212 2055   1.247   2.082   7.857 -0.6534 -0.3148 -0.3373
   16SAPS  H12R 2056   1.194   2.019   7.931  1.0836 -1.8224 -0.3021
   16SAPS  C213 2057   1.337   2.199   7.912 -0.2534  0.2786  0.2842
   16SAPS  H13R 2058   1.314   2.293   7.857 -1.5462 -1.5868 -2.6095
   16SAPS  H13S 2059   1.440   2.171   7.883 -1.2896 -2.1329 -1.3974
   16SAPS  C214 2060   1.313   2.232   8.063  0.1114  0.9213 -0.5761
   16SAPS  H14R 2061   1.224   2.295   8.080  0.7984  2.5367 -2.4512
   16SAPS  C215 2062   1.388   2.202   8.167 -0.3061 -0.3297 -0.0156
   16SAPS  H15R 2063   1.360   2.240   8.266  1.4930 -1.9056  1.1628
   16SAPS  C216 2064   1.517   2.114   8.172 -0.3063  0.2134  0.7710
   16SAPS  H16R 2065   1.609   2.177   8.183 -0.7745  1.2701 -0.9338
   16SAPS  H16S 2066   1.531   2.056   8.078  1.5134  0.7455  0.6647
   16SAPS  C217 2067   1.524   2.016   8.284 -0.7029 -0.3185  0.1363
   16SAPS  H17R 2068   1.479   1.917   8.260 -0.9762 -0.2063  0.1773
   16SAPS  H17S 2069   1.464   2.057   8.368 -0.0806  0.6972  0.1048
   16SAPS  C218 2070   1.664   1.977   8.346  0.4027 -0.3715 -0.9891
   16SAPS  H18R 2071   1.713   2.068   8.386 -2.1286  0.5294  0.3113
   16SAPS  H18S 2072   1.728   1.923   8.273  0.6849 -1.5943  0.1134
   16SAPS  C219 2073   1.661   1.876   8.470  0.8735 -0.7227 -0.1482
   16SAPS  H19R 2074   1.634   1.943   8.554  0.5249  0.5100 -1.2092
   16SAPS  H19S 2075   1.764   1.843   8.495  0.4872 -0.7539  1.4986
   16SAPS  C220 2076   1.573   1.758   8.449 -0.2263  0.1750  0.3469
   16SAPS  H20R 2077   1.469   1.791   8.472  0.2896  1.0974  1.4160
   16SAPS  H20S 2078   1.610   1.683   8.523  2.5407  2.1153  1.0978
   16SAPS  H20T 2079   1.588   1.722   8.345  0.2501 -1.0735  0.8212
   16SAPS   C33 2080   1.220   2.550   7.245  0.2639 -0.5849  0.9585
   16SAPS   H3X 2081   1.198   2.657   7.227 -1.9365 -1.2873 -1.2378
   16SAPS   H3Y 2082   1.326   2.537   7.216  0.2970  3.6558 -1.6605
   16SAPS   C34 2083   1.198   2.512   7.395 -0.1812  0.1556 -1.0148
   16SAPS   H4X 2084   1.162   2.407   7.389  1.2519 -0.3720 -0.8486
   16SAPS   H4Y 2085   1.121   2.566   7.455  0.1233 -1.3186  0.8001
   16SAPS   C35 2086   1.332   2.512   7.473 -0.3652  0.2414 -0.1843
   16SAPS   H5X 2087   1.384   2.610   7.462  0.3516 -0.2333 -1.1901
   16SAPS   H5Y 2088   1.395   2.421   7.466 -0.1583  0.3470  0.2301
   16SAPS   C36 2089   1.297   2.524   7.620 -0.2501  0.5325 -0.3425
   16SAPS   H6X 2090   1.267   2.424   7.658 -0.5139  0.9822  0.6709
   16SAPS   H6Y 2091   1.213   2.595   7.637  1.1829  2.5684 -1.3015
   16SAPS   C37 2092   1.414   2.568   7.710 -0.0623 -0.0437 -0.2590
   16SAPS   H7X 2093   1.461   2.661   7.671 -1.9177  1.1227  0.1470
   16SAPS   H7Y 2094   1.496   2.495   7.698  1.8689  2.0578 -0.5644
   16SAPS   C38 2095   1.372   2.584   7.857 -0.2913  0.3327  0.3555
   16SAPS   H8X 2096   1.312   2.495   7.887  3.3835 -1.8453  1.9431
   16SAPS   H8Y 2097   1.297   2.663   7.877 -1.9494 -1.0114 -0.2905
   16SAPS   C39 2098   1.495   2.584   7.951 -0.4292  0.2799 -0.5965
   16SAPS   H9X 2099   1.556   2.672   7.924 -0.8300 -0.3671 -3.9473
   16SAPS   H9Y 2100   1.566   2.501   7.932 -2.3858 -2.1233  1.6434
   16SAPS  C310 2101   1.459   2.588   8.095 -0.4999  0.4219  0.2406
   16SAPS  H10X 2102   1.412   2.488   8.106 -1.4195  0.7163 -0.9049
   16SAPS  H10Y 2103   1.390   2.671   8.119 -0.6227  0.5910 -0.6675
   16SAPS  C311 2104   1.579   2.609   8.190 -0.9171 -0.6938  0.8876
   16SAPS  H11X 2105   1.639   2.698   8.160 -1.0490 -1.1101 -0.7194
   16SAPS  H11Y 2106   1.656   2.529   8.189  0.5904  0.6944 -0.4863
   16SAPS  C312 2107   1.528   2.627   8.331  0.0841 -0.5611 -0.6924
   16SAPS  H12X 2108   1.613   2.631   8.403 -0.2868 -2.3248 -0.1076
   16SAPS  H12Y 2109   1.460   2.542   8.352 -0.7665  0.5180  1.2160
   16SAPS  C313 2110   1.445   2.752   8.356  0.1157  0.4105  0.4340
   16SAPS  H13X 2111   1.343   2.732   8.317  0.6793 -0.0268 -0.8759
   16SAPS  H13Y 2112   1.482   2.843   8.303 -1.8998  0.3286 -1.2320
   16SAPS  C314 2113   1.426   2.788   8.503 -0.5465 -0.9185 -0.6259
   16SAPS  H14X 2114   1.525   2.814   8.546  0.4594  3.7570 -4.7340
   16SAPS  H14Y 2115   1.391   2.696   8.554 -1.5232  0.5010  1.4399
   16SAPS  C315 2116   1.322   2.887   8.549  0.0019  0.2913  0.6845
   16SAPS  H15X 2117   1.215   2.861   8.535  0.0488  1.2754 -2.1284
   16SAPS  H15Y 2118   1.342   2.976   8.485  0.7848 -0.4668 -0.1604
   16SAPS  C316 2119   1.351   2.948   8.690  0.0892  0.1202 -0.4598
   16SAPS  H16X 2120   1.456   2.987   8.695  0.4419 -0.8146 -0.3960
   16SAPS  H16Y 2121   1.335   2.868   8.766 -1.1392  0.7877  0.0073
   16SAPS  C317 2122   1.238   3.055   8.718 -0.0631  0.3953 -0.0674
   16SAPS  H17X 2123   1.147   2.992   8.723  0.0341  0.3002  0.6230
   16SAPS  H17Y 2124   1.240   3.126   8.633 -1.5176  1.2262  0.5657
   16SAPS  C318 2125   1.248   3.125   8.853  0.7239 -0.0662 -0.3812
   16SAPS  H18X 2126   1.153   3.181   8.867  0.5237 -0.7698  1.2060
   16SAPS  H18Y 2127   1.343   3.182   8.859  0.6334  0.0499 -0.0624
   16SAPS  H18Z 2128   1.265   3.051   8.934 -2.0800 -0.1767  0.1881
   17SAPC     N 2129   5.696   1.009  10.293  0.3929  0.1489  0.7860
   17SAPC   C12 2130   5.669   0.889  10.380  0.3491 -0.2855 -0.5709
   17SAPC  H12A 2131   5.562   0.873  10.385 -0.0225  1.7431 -1.0252
   17SAPC  H12B 2132   5.713   0.910  10.476  1.4233  1.8303 -1.4728
   17SAPC   C13 2133   5.614   1.127  10.329 -0.2455 -0.0588  0.3276
   17SAPC  H13A 2134   5.508   1.107  10.337 -0.5252  0.9687 -0.6442
   17SAPC  H13B 2135   5.640   1.172  10.424 -0.4911 -0.3296  0.5293
   17SAPC  H13C 2136   5.624   1.199  10.250 -0.4004 -0.2755  0.1088
   17SAPC   C14 2137   5.846   1.035  10.293  0.0605  0.1229 -0.2474
   17SAPC  H14A 2138   5.867   1.125  10.238 -1.6856  0.0928 -1.0316
   17SAPC  H14B 2139   5.882   1.032  10.395  1.7896 -3.0935 -0.8165
   17SAPC  H14C 2140   5.904   0.954  10.251  1.8490  1.9420 -1.4356
   17SAPC   C15 2141   5.666   0.977  10.145  0.5246  0.3933  0.1498
   17SAPC  H15A 2142   5.689   1.067  10.090 -1.7529  0.6711 -0.4127
   17SAPC  H15B 2143   5.717   0.892  10.102 -2.4978 -1.3455 -0.2015
   17SAPC  H15C 2144   5.561   0.955  10.135  1.2469 -2.8525 -1.2693
   17SAPC   C11 2145   5.733   0.755  10.339  0.4912 -0.3563  0.1721
   17SAPC  H11A 2146   5.844   0.745  10.339  0.5471  0.1773 -0.3933
   17SAPC  H11B 2147   5.721   0.731  10.231 -2.2200  0.0253  0.3117
   17SAPC     P 2148   5.552   0.589  10.388  0.6414  0.0763  0.5211
   17SAPC   O13 2149   5.523   0.478  10.478  0.0143 -0.0143  0.7552
   17SAPC   O14 2150   5.438   0.687  10.392 -0.9495  0.5028  0.3173
   17SAPC   O12 2151   5.691   0.647  10.418  0.2992 -0.5504  0.1199
   17SAPC   O11 2152   5.551   0.534  10.233 -0.2689  0.0117  0.3895
   17SAPC    C1 2153   5.444   0.452  10.181 -0.7906  0.1605  0.2529
   17SAPC    HA 2154   5.473   0.345  10.179 -1.6678 -0.1339  2.0616
   17SAPC    HB 2155   5.355   0.451  10.247 -1.0470 -2.9091 -0.0006
   17SAPC    C2 2156   5.410   0.506  10.040  0.6668 -1.2920  0.6985
   17SAPC    HS 2157   5.325   0.451   9.993  1.1023 -0.5361 -1.0252
   17SAPC   O21 2158   5.521   0.499   9.941  0.0999  0.0639  0.5768
   17SAPC   C21 2159   5.542   0.380   9.886  0.2933  0.1541  0.0189
   17SAPC   O22 2160   5.473   0.282   9.901  0.1904 -0.4329 -0.4571
   17SAPC   C22 2161   5.683   0.383   9.822  0.1019  0.1986 -0.2565
   17SAPC   H2R 2162   5.674   0.434   9.724  1.2731  0.0571 -0.4548
   17SAPC   H2S 2163   5.742   0.448   9.891  0.5363 -0.0173 -0.4186
   17SAPC    C3 2164   5.375   0.658  10.035 -0.3376  0.0809  0.0119
   17SAPC    HX 2165   5.466   0.711  10.070 -0.3585  0.1442 -0.0280
   17SAPC    HY 2166   5.298   0.683  10.111  0.5356  0.2729  0.8551
   17SAPC   O31 2167   5.341   0.700   9.903 -0.3487  0.0687 -0.2700
   17SAPC   C31 2168   5.396   0.812   9.854 -0.1739 -0.1562 -0.5408
   17SAPC   O32 2169   5.480   0.884   9.908 -0.3462 -0.1278 -0.1048
   17SAPC   C32 2170   5.330   0.850   9.719  0.6680 -0.6773  0.4254
   17SAPC   H2X 2171   5.402   0.923   9.678  2.6793 -1.3721  2.5003
   17SAPC   H2Y 2172   5.239   0.905   9.751  0.6750 -2.3494  3.7701
   17SAPC   C23 2173   5.733   0.237   9.791  0.2278  0.0985 -0.1023
   17SAPC   H3R 2174   5.651   0.182   9.739  1.5735 -1.4559 -0.7042
   17SAPC   H3S 2175   5.732   0.184   9.889 -1.3690  0.2953  0.0105
   17SAPC   C24 2176   5.865   0.225   9.723 -0.1089 -0.0091 -0.5343
   17SAPC   H4R 2177   5.888   0.117   9.709 -3.2605 -1.0883  1.3820
   17SAPC   H4S 2178   5.941   0.283   9.780  0.7890 -0.2709 -1.4377
   17SAPC   C25 2179   5.852   0.290   9.595  1.5804  0.1849  1.0136
   17SAPC   H5R 2180   5.818   0.394   9.608  0.1526 -0.1884  0.4743
   17SAPC   C26 2181   5.871   0.244   9.468  0.7421  0.2395 -0.3805
   17SAPC   H6R 2182   5.856   0.315   9.385  0.7701  0.2670 -0.3626
   17SAPC   C27 2183   5.912   0.112   9.425 -0.5031  0.3847  0.1812
   17SAPC   H7R 2184   5.925   0.047   9.514  1.2159  2.7676  1.8270
   17SAPC   H7S 2185   6.018   0.114   9.391 -0.7930  2.1048 -0.7690
   17SAPC   C28 2186   5.815   0.057   9.325 -0.0922  0.1766 -0.2218
   17SAPC   H8R 2187   5.730   0.001   9.365 -0.5269  2.0184  1.6114
   17SAPC   C29 2188   5.832   0.079   9.191 -0.0566  0.2223 -0.0284
   17SAPC   H9R 2189   5.764   0.030   9.120 -0.7182  0.9322  0.0981
   17SAPC  C210 2190   5.940   0.150   9.127 -0.8388 -0.1728  0.0087
   17SAPC  H10R 2191   6.034   0.093   9.112 -1.0934 -0.5382 -0.1973
   17SAPC  H10S 2192   5.956   0.241   9.190  1.2312 -0.5416  0.1102
   17SAPC  C211 2193   5.900   0.215   8.993 -0.0058  0.2221  0.1679
   17SAPC  H11R 2194   5.819   0.288   8.997 -1.4581 -1.3702  0.8165
   17SAPC  C212 2195   5.938   0.185   8.866  0.4764  0.3680  0.6250
   17SAPC  H12R 2196   5.888   0.235   8.781  1.3995 -0.2121 -0.2826
   17SAPC  C213 2197   6.029   0.075   8.826 -0.1090 -0.2188  0.0041
   17SAPC  H13R 2198   5.966  -0.014   8.805 -0.3824 -0.2778  1.0398
   17SAPC  H13S 2199   6.084   0.045   8.917  1.7924  1.1931 -0.6059
   17SAPC  C214 2200   6.105   0.118   8.710  0.2580  0.2734  0.3910
   17SAPC  H14R 2201   6.173   0.204   8.722  1.3328 -0.4358 -0.3872
   17SAPC  C215 2202   6.106   0.060   8.591  0.5039  0.3672  0.2578
   17SAPC  H15R 2203   6.166   0.099   8.508 -0.7714 -0.2970 -1.0144
   17SAPC  C216 2204   6.037  -0.074   8.549 -0.5926 -0.1768  0.0421
   17SAPC  H16R 2205   6.045  -0.075   8.438 -1.1172 -3.3195 -0.0399
   17SAPC  H16S 2206   5.929  -0.086   8.571 -0.1707 -3.2839  0.8697
   17SAPC  C217 2207   6.118  -0.192   8.601 -0.3967  0.2360 -0.4668
   17SAPC  H17R 2208   6.060  -0.279   8.562  1.2757 -1.1999  0.0898
   17SAPC  H17S 2209   6.115  -0.199   8.712 -1.3034 -1.1773 -0.5514
   17SAPC  C218 2210   6.263  -0.206   8.549  0.3876 -0.0529  0.2799
   17SAPC  H18R 2211   6.329  -0.120   8.575  1.5741 -0.5371 -0.9573
   17SAPC  H18S 2212   6.264  -0.218   8.438 -0.3884 -0.5049  0.3206
   17SAPC  C219 2213   6.334  -0.328   8.614  0.2815  0.3422 -0.1209
   17SAPC  H19R 2214   6.438  -0.316   8.579  0.3567  3.0387  0.8364
   17SAPC  H19S 2215   6.298  -0.424   8.569 -1.5687  1.0022 -0.1363
   17SAPC  C220 2216   6.341  -0.335   8.767 -0.4669  0.6032  0.7329
   17SAPC  H20R 2217   6.244  -0.374   8.804 -0.5009  0.2345  0.2615
   17SAPC  H20S 2218   6.357  -0.236   8.815  0.2181 -0.3246  2.4969
   17SAPC  H20T 2219   6.428  -0.400   8.790 -0.1135 -0.7468 -3.5645
   17SAPC   C33 2220   5.301   0.725   9.626  0.3351  0.0369  0.4041
   17SAPC   H3X 2221   5.218   0.660   9.657 -0.4825  1.8001  2.1391
   17SAPC   H3Y 2222   5.396   0.671   9.606 -0.0277  0.3218 -2.4783
   17SAPC   C34 2223   5.263   0.780   9.486 -0.4010 -0.1486  0.1346
   17SAPC   H4X 2224   5.353   0.841   9.461  0.8804 -2.1131 -0.2432
   17SAPC   H4Y 2225   5.171   0.843   9.485  0.9125  1.8717 -0.2138
   17SAPC   C35 2226   5.242   0.663   9.391  0.0235 -0.4809 -0.1192
   17SAPC   H5X 2227   5.152   0.608   9.426  0.1248  0.4339  1.7251
   17SAPC   H5Y 2228   5.320   0.584   9.385 -0.8523 -1.2606 -2.6409
   17SAPC   C36 2229   5.236   0.707   9.244  0.2845  0.0043 -0.9884
   17SAPC   H6X 2230   5.335   0.749   9.218  0.9210 -0.6912  0.2171
   17SAPC   H6Y 2231   5.163   0.789   9.231  1.9734  1.6341 -0.5628
   17SAPC   C37 2232   5.203   0.584   9.157 -0.5611 -0.3892  0.3086
   17SAPC   H7X 2233   5.108   0.549   9.203 -0.6438  1.0405  1.2743
   17SAPC   H7Y 2234   5.281   0.508   9.183 -0.5471 -0.3320  0.4361
   17SAPC   C38 2235   5.207   0.612   9.011 -0.0808 -0.0400 -0.0429
   17SAPC   H8X 2236   5.153   0.707   8.992 -0.8580 -0.4018  0.3430
   17SAPC   H8Y 2237   5.141   0.537   8.964 -0.5995  0.3057  0.1300
   17SAPC   C39 2238   5.349   0.605   8.953  0.1553 -0.4428 -0.7895
   17SAPC   H9X 2239   5.402   0.511   8.980 -1.4164 -1.2502 -0.4120
   17SAPC   H9Y 2240   5.402   0.694   8.994  0.7163  0.1949 -2.7821
   17SAPC  C310 2241   5.343   0.616   8.797  0.3576 -0.3012  0.0196
   17SAPC  H10X 2242   5.291   0.712   8.775 -2.5793 -1.9701 -0.9088
   17SAPC  H10Y 2243   5.279   0.534   8.756 -1.8362  1.7375 -0.8880
   17SAPC  C311 2244   5.488   0.613   8.737 -0.1719 -0.0950  0.4889
   17SAPC  H11X 2245   5.533   0.706   8.777  1.2085  0.1179 -1.3977
   17SAPC  H11Y 2246   5.483   0.618   8.626 -0.3250  1.1071  0.5358
   17SAPC  C312 2247   5.573   0.488   8.757 -0.0641  0.3779 -0.1168
   17SAPC  H12X 2248   5.591   0.457   8.862 -0.8985 -1.7942 -0.5842
   17SAPC  H12Y 2249   5.673   0.494   8.709  0.8178 -1.0175  1.4439
   17SAPC  C313 2250   5.501   0.366   8.702 -0.1655 -0.7485 -0.0313
   17SAPC  H13X 2251   5.451   0.404   8.610  1.3131 -0.4228 -0.7295
   17SAPC  H13Y 2252   5.431   0.328   8.780 -1.1473  1.5151  0.2534
   17SAPC  C314 2253   5.602   0.256   8.671 -0.1949  0.7811 -0.0409
   17SAPC  H14X 2254   5.651   0.211   8.760  1.4031 -1.0525 -1.7462
   17SAPC  H14Y 2255   5.678   0.288   8.597 -1.1087  2.1963 -0.4088
   17SAPC  C315 2256   5.522   0.138   8.616  0.7750  0.6665 -0.6794
   17SAPC  H15X 2257   5.486   0.171   8.516 -0.6424  1.6416  0.1192
   17SAPC  H15Y 2258   5.439   0.098   8.678  0.5336  2.0447 -0.0936
   17SAPC  C316 2259   5.610   0.010   8.604  0.1566  0.3403 -0.2202
   17SAPC  H16X 2260   5.668  -0.008   8.697  0.1120  0.7164 -0.1182
   17SAPC  H16Y 2261   5.680   0.036   8.522  1.2764  2.5495  1.3640
   17SAPC  C317 2262   5.520  -0.112   8.566  0.0130  1.2154  0.0853
   17SAPC  H17X 2263   5.593  -0.186   8.528 -2.0304 -0.3079 -1.0537
   17SAPC  H17Y 2264   5.444  -0.094   8.486 -0.1661  1.2094  0.2525
   17SAPC  C318 2265   5.454  -0.185   8.685 -0.7275 -0.3138  0.0646
   17SAPC  H18X 2266   5.525  -0.183   8.771  0.0764  1.4665 -0.5943
   17SAPC  H18Y 2267   5.364  -0.127   8.713 -0.6334 -0.1140 -0.0416
   17SAPC  H18Z 2268   5.433  -0.291   8.659 -3.1051  0.4654 -1.4829
   18SAPC     N 2269   5.890   0.300  10.571  0.1220  0.3870 -0.3811
   18SAPC   C12 2270   5.974   0.332  10.448  0.2139 -0.0213 -0.2583
   18SAPC  H12A 2271   6.040   0.414  10.472 -0.7699  0.4891  0.8297
   18SAPC  H12B 2272   5.909   0.366  10.369  0.5398 -0.9070 -0.9252
   18SAPC   C13 2273   5.815   0.420  10.615  0.5838  0.5432 -0.2183
   18SAPC  H13A 2274   5.727   0.438  10.554  0.1209 -2.0603 -0.4058
   18SAPC  H13B 2275   5.786   0.407  10.718 -0.9499 -2.2808 -0.9157
   18SAPC  H13C 2276   5.873   0.511  10.604 -1.1728  2.0295  1.9523
   18SAPC   C14 2277   5.790   0.189  10.542  0.1438 -0.0945  0.6733
   18SAPC  H14A 2278   5.846   0.110  10.494  0.4253 -0.0941  0.9998
   18SAPC  H14B 2279   5.737   0.153  10.629 -4.5810  0.7461 -1.5457
   18SAPC  H14C 2280   5.718   0.215  10.466  1.6470 -0.2849 -0.8725
   18SAPC   C15 2281   5.975   0.261  10.687 -0.0212 -0.4744 -0.1233
   18SAPC  H15A 2282   6.028   0.168  10.674  0.6011  0.2291 -3.4589
   18SAPC  H15B 2283   6.051   0.336  10.701  0.4951 -0.5472 -2.2545
   18SAPC  H15C 2284   5.917   0.264  10.778  1.3170  1.1852  0.7352
   18SAPC   C11 2285   6.060   0.215  10.393 -0.6801 -0.3139 -0.3164
   18SAPC  H11A 2286   6.120   0.179  10.480  0.3220  0.2206 -0.7633
   18SAPC  H11B 2287   6.138   0.258  10.326  1.5311 -2.2082  0.8875
   18SAPC     P 2288   6.029  -0.028  10.299 -0.3332  0.2158 -0.1060
   18SAPC   O13 2289   6.089  -0.089  10.423 -0.5274 -0.2815 -0.1557
   18SAPC   O14 2290   5.915  -0.098  10.236 -0.1161 -0.2548  0.3434
   18SAPC   O12 2291   5.979   0.116  10.329 -0.3298 -0.0677  0.3772
   18SAPC   O11 2292   6.145   0.001  10.199 -0.3695  0.7123 -0.1216
   18SAPC    C1 2293   6.122   0.018  10.060  0.0394 -0.1648  0.4564
   18SAPC    HA 2294   6.018   0.052  10.044 -0.3221  0.9224  4.1717
   18SAPC    HB 2295   6.188   0.105  10.038 -1.0834  0.4689 -0.5422
   18SAPC    C2 2296   6.161  -0.109   9.977  0.3888 -0.8187  0.4717
   18SAPC    HS 2297   6.204  -0.178  10.053 -0.5618 -2.0265 -0.0521
   18SAPC   O21 2298   6.255  -0.064   9.876  0.2492  0.2076 -0.0184
   18SAPC   C21 2299   6.341  -0.156   9.843  0.0410  0.1748  1.0525
   18SAPC   O22 2300   6.355  -0.268   9.894  0.0594 -0.2846 -0.2935
   18SAPC   C22 2301   6.427  -0.097   9.739 -1.0679 -0.8171  0.2277
   18SAPC   H2R 2302   6.362  -0.026   9.683 -0.2962  1.8851  2.4929
   18SAPC   H2S 2303   6.513  -0.046   9.788 -1.5878  0.5268 -0.2195
   18SAPC    C3 2304   6.025  -0.173   9.919 -0.4956  0.0598  0.1763
   18SAPC    HX 2305   5.967  -0.105   9.853  2.4174 -0.0866 -2.7911
   18SAPC    HY 2306   5.968  -0.205  10.009  3.1804 -1.7333  2.0914
   18SAPC   O31 2307   6.048  -0.298   9.850  0.4821 -0.4475 -0.3601
   18SAPC   C31 2308   6.087  -0.303   9.719 -0.4452  0.4044 -0.5358
   18SAPC   O32 2309   6.100  -0.207   9.647  0.4819  0.4339  0.7087
   18SAPC   C32 2310   6.099  -0.447   9.679  0.4333 -0.1952  0.0490
   18SAPC   H2X 2311   6.004  -0.496   9.710 -0.1455  1.2820  0.7301
   18SAPC   H2Y 2312   6.183  -0.482   9.743  0.3422  1.3113  1.0343
   18SAPC   C23 2313   6.485  -0.203   9.637  0.7409 -1.1039  0.1058
   18SAPC   H3R 2314   6.415  -0.289   9.623  1.3577 -1.2614 -2.5932
   18SAPC   H3S 2315   6.576  -0.230   9.695  1.0083  0.6886  0.5727
   18SAPC   C24 2316   6.515  -0.146   9.501 -0.7133  0.5610  0.0275
   18SAPC   H4R 2317   6.560  -0.234   9.450  1.0054 -0.0004  2.3823
   18SAPC   H4S 2318   6.599  -0.073   9.508 -0.5842  0.5443 -1.1082
   18SAPC   C25 2319   6.407  -0.091   9.421  1.2091  0.3273 -0.3095
   18SAPC   H5R 2320   6.319  -0.055   9.476  0.4360  0.7110 -1.7450
   18SAPC   C26 2321   6.404  -0.097   9.286 -0.3310 -0.4281  0.8454
   18SAPC   H6R 2322   6.331  -0.040   9.227 -0.6510 -2.6541 -1.0989
   18SAPC   C27 2323   6.522  -0.138   9.199  0.4010  0.0360  0.2243
   18SAPC   H7R 2324   6.471  -0.190   9.114 -0.8381 -0.1597  1.0614
   18SAPC   H7S 2325   6.589  -0.214   9.245  2.1198 -0.3697 -2.6812
   18SAPC   C28 2326   6.608  -0.030   9.147 -0.4246 -0.2873  0.4484
   18SAPC   H8R 2327   6.693  -0.006   9.214  0.5518 -3.5166  0.5097
   18SAPC   C29 2328   6.594   0.044   9.032 -0.1355  0.3906  0.3921
   18SAPC   H9R 2329   6.672   0.107   8.987  0.2409 -0.6752 -0.5047
   18SAPC  C210 2330   6.488   0.018   8.927 -0.0587  0.3625  0.0258
   18SAPC  H10R 2331   6.420   0.104   8.906 -1.5305 -0.3124  1.7901
   18SAPC  H10S 2332   6.416  -0.058   8.963 -0.6127 -0.1794 -2.0680
   18SAPC  C211 2333   6.571  -0.039   8.806  0.1886 -1.1251  0.0093
   18SAPC  H11R 2334   6.617  -0.137   8.824 -1.2323 -2.4782 -2.8865
   18SAPC  C212 2335   6.564   0.012   8.682 -0.1375 -0.3699 -0.6360
   18SAPC  H12R 2336   6.618  -0.041   8.602  2.7274  0.6885  0.4333
   18SAPC  C213 2337   6.485   0.131   8.637  0.4299  0.9780  0.2651
   18SAPC  H13R 2338   6.479   0.209   8.716  1.6159  2.4232 -1.0139
   18SAPC  H13S 2339   6.380   0.096   8.625  1.0708 -0.3516 -2.3303
   18SAPC  C214 2340   6.532   0.198   8.512  0.2751  0.0511  0.1694
   18SAPC  H14R 2341   6.603   0.135   8.456  2.1508  0.9379  1.4354
   18SAPC  C215 2342   6.483   0.312   8.457 -0.1230 -0.5831  1.2163
   18SAPC  H15R 2343   6.518   0.350   8.360 -0.2201 -2.5618  0.3476
   18SAPC  C216 2344   6.371   0.395   8.517  0.6120 -0.2325 -0.0563
   18SAPC  H16R 2345   6.419   0.480   8.571  0.6437  0.0817 -0.5706
   18SAPC  H16S 2346   6.313   0.335   8.591  0.6078  0.2381  0.3260
   18SAPC  C217 2347   6.280   0.429   8.400 -0.5811 -0.7797 -0.6497
   18SAPC  H17R 2348   6.262   0.341   8.334 -0.6463  0.5956 -2.5368
   18SAPC  H17S 2349   6.328   0.510   8.341  0.4772 -2.0362 -1.5961
   18SAPC  C218 2350   6.141   0.455   8.446 -0.1263  0.0882  0.0963
   18SAPC  H18R 2351   6.128   0.540   8.516 -1.0572 -0.6122  0.8039
   18SAPC  H18S 2352   6.102   0.360   8.488 -0.2722  0.4725  0.8414
   18SAPC  C219 2353   6.041   0.478   8.330  0.1665 -0.0871 -0.6551
   18SAPC  H19R 2354   5.998   0.381   8.294 -1.5873  1.3082 -2.5438
   18SAPC  H19S 2355   6.088   0.541   8.252 -1.1056  0.2418 -1.1751
   18SAPC  C220 2356   5.910   0.548   8.377 -0.1502  0.4511  0.6419
   18SAPC  H20R 2357   5.844   0.555   8.288  1.3697  3.5017 -0.3986
   18SAPC  H20S 2358   5.917   0.649   8.422  1.1022  0.2958  0.8260
   18SAPC  H20T 2359   5.853   0.495   8.456 -2.5710 -0.8651 -1.8350
   18SAPC   C33 2360   6.147  -0.467   9.534  0.0681  0.1926  0.4380
   18SAPC   H3X 2361   6.185  -0.571   9.521 -0.8657  0.0188 -1.1441
   18SAPC   H3Y 2362   6.229  -0.397   9.507 -0.2580  0.5404  0.3376
   18SAPC   C34 2363   6.034  -0.454   9.435  1.1733 -0.1355  0.1789
   18SAPC   H4X 2364   5.933  -0.433   9.477  0.7809 -0.5935 -0.5026
   18SAPC   H4Y 2365   6.022  -0.556   9.394  1.1347 -0.2678  0.5165
   18SAPC   C35 2366   6.072  -0.366   9.314  0.1838 -0.4044  0.4387
   18SAPC   H5X 2367   6.163  -0.408   9.265 -0.2269  0.2513 -0.9200
   18SAPC   H5Y 2368   6.090  -0.260   9.341  0.9025 -0.0253 -1.3478
   18SAPC   C36 2369   5.955  -0.379   9.211 -0.0721 -0.1432 -0.0442
   18SAPC   H6X 2370   5.859  -0.357   9.262 -0.3913  1.1566 -1.1225
   18SAPC   H6Y 2371   5.948  -0.482   9.171 -2.7575 -0.2265  0.4539
   18SAPC   C37 2372   5.976  -0.286   9.082  0.0589 -0.6805 -1.0122
   18SAPC   H7X 2373   6.075  -0.310   9.039  1.8303 -0.0833  2.4423
   18SAPC   H7Y 2374   5.990  -0.183   9.121 -0.9409  0.0355 -2.4487
   18SAPC   C38 2375   5.863  -0.283   8.975 -0.6500 -0.0015  0.1330
   18SAPC   H8X 2376   5.891  -0.213   8.894  0.0836 -0.6915 -0.2231
   18SAPC   H8Y 2377   5.761  -0.253   9.005 -0.5718  1.3696 -0.8757
   18SAPC   C39 2378   5.854  -0.424   8.911 -0.0812 -0.4499 -0.1893
   18SAPC   H9X 2379   5.838  -0.497   8.993 -2.4976  0.2989  0.0643
   18SAPC   H9Y 2380   5.943  -0.460   8.854 -1.3202 -0.9930 -1.8549
   18SAPC  C310 2381   5.735  -0.444   8.818  0.4551  0.3610 -0.3442
   18SAPC  H10X 2382   5.742  -0.406   8.714 -0.3475 -0.6316 -0.7861
   18SAPC  H10Y 2383   5.646  -0.405   8.873 -1.3607 -2.2088 -1.2473
   18SAPC  C311 2384   5.705  -0.596   8.788 -0.0764 -1.0296  0.4839
   18SAPC  H11X 2385   5.715  -0.647   8.886  1.4299  1.1235  1.5193
   18SAPC  H11Y 2386   5.772  -0.637   8.708 -0.0718  1.6305 -0.9746
   18SAPC  C312 2387   5.559  -0.620   8.736 -0.0656 -0.9805  0.9769
   18SAPC  H12X 2388   5.546  -0.554   8.648 -1.1067 -1.7717  0.5177
   18SAPC  H12Y 2389   5.485  -0.592   8.814  1.1679 -2.5876  2.8295
   18SAPC  C313 2390   5.539  -0.765   8.692 -0.3705  0.7409  0.0603
   18SAPC  H13X 2391   5.614  -0.779   8.611  0.6845  4.0294  0.3411
   18SAPC  H13Y 2392   5.441  -0.789   8.647 -0.6717 -0.7432  1.3807
   18SAPC  C314 2393   5.567  -0.864   8.809  0.5506  0.3565  0.0511
   18SAPC  H14X 2394   5.670  -0.852   8.852  1.3195 -2.8554 -0.6331
   18SAPC  H14Y 2395   5.582  -0.961   8.757  1.1195  0.6696 -0.3795
   18SAPC  C315 2396   5.464  -0.873   8.918  0.5044  0.6351 -0.2710
   18SAPC  H15X 2397   5.470  -0.779   8.976 -0.2869  0.6961 -0.2784
   18SAPC  H15Y 2398   5.489  -0.952   8.992 -1.7067  0.7861  0.7252
   18SAPC  C316 2399   5.314  -0.890   8.870  0.0390 -0.4231  0.3327
   18SAPC  H16X 2400   5.281  -0.798   8.817 -0.6027 -1.3495 -0.9559
   18SAPC  H16Y 2401   5.264  -0.887   8.969  0.1149 -0.1261  0.3640
   18SAPC  C317 2402   5.289  -1.023   8.798 -0.3104 -0.2750  0.4596
   18SAPC  H17X 2403   5.190  -1.064   8.828 -0.9867  0.7702 -0.2419
   18SAPC  H17Y 2404   5.359  -1.106   8.821  0.8115  0.0180 -1.6061
   18SAPC  C318 2405   5.290  -1.000   8.649  0.3744  0.2032  0.0060
   18SAPC  H18X 2406   5.239  -1.089   8.607 -1.2880  0.5359  1.2308
   18SAPC  H18Y 2407   5.396  -1.006   8.617  0.0992 -0.7338 -0.7746
   18SAPC  H18Z 2408   5.243  -0.902   8.624 -0.5036 -0.1783  0.1090
   19SAPC     N 2409   4.615   1.354  11.284 -0.4383 -1.1635  0.1509
   19SAPC   C12 2410   4.633   1.376  11.138 -0.4940 -0.3809 -0.4806
   19SAPC  H12A 2411   4.705   1.309  11.095 -0.7638 -1.0583  0.1097
   19SAPC  H12B 2412   4.676   1.474  11.118  1.2851 -1.3270 -1.5124
   19SAPC   C13 2413   4.743   1.373  11.353  0.2157  0.1072 -0.4160
   19SAPC  H13A 2414   4.775   1.476  11.358  0.4314  0.0480 -0.5286
   19SAPC  H13B 2415   4.735   1.337  11.454 -3.6589 -2.9557 -1.5784
   19SAPC  H13C 2416   4.824   1.316  11.310  2.8709  0.7128  3.3199
   19SAPC   C14 2417   4.525   1.456  11.337  0.4399  0.2194  0.0949
   19SAPC  H14A 2418   4.423   1.442  11.302 -0.4955 -0.5383  2.7793
   19SAPC  H14B 2419   4.518   1.450  11.445  1.2843  0.4137  0.1596
   19SAPC  H14C 2420   4.562   1.556  11.322  1.6282 -0.4107 -1.3418
   19SAPC   C15 2421   4.570   1.214  11.322  0.0655  0.2666  0.2009
   19SAPC  H15A 2422   4.472   1.186  11.287 -0.0899 -2.0447  2.2145
   19SAPC  H15B 2423   4.641   1.140  11.287 -1.0585 -0.6010 -0.3097
   19SAPC  H15C 2424   4.554   1.212  11.428  2.3307 -3.5815  0.6805
   19SAPC   C11 2425   4.511   1.366  11.045  0.5360  0.3332 -0.2320
   19SAPC  H11A 2426   4.456   1.458  11.072 -1.0619 -0.6822  0.0890
   19SAPC  H11B 2427   4.448   1.275  11.051 -1.6315  1.7022 -1.1518
   19SAPC     P 2428   4.604   1.268  10.820  0.2537  0.0077 -0.0821
   19SAPC   O13 2429   4.743   1.242  10.852 -0.5534 -0.3742  0.2806
   19SAPC   O14 2430   4.518   1.149  10.820  0.8580  0.6116  0.4695
   19SAPC   O12 2431   4.556   1.378  10.911 -0.1925 -0.2092  0.6409
   19SAPC   O11 2432   4.596   1.335  10.676 -0.0134  0.5324 -0.0271
   19SAPC    C1 2433   4.561   1.477  10.655 -0.2042 -0.0541  0.0294
   19SAPC    HA 2434   4.491   1.516  10.731 -1.6869 -1.7738 -0.3765
   19SAPC    HB 2435   4.659   1.527  10.670 -0.4343  0.3380  0.2254
   19SAPC    C2 2436   4.535   1.508  10.507  0.8293  0.4568 -0.3721
   19SAPC    HS 2437   4.535   1.619  10.493 -3.5589  1.1384  2.6909
   19SAPC   O21 2438   4.409   1.447  10.466  0.5295  0.1584  0.3893
   19SAPC   C21 2439   4.316   1.532  10.416  0.1178 -0.6217 -0.6999
   19SAPC   O22 2440   4.332   1.657  10.407 -0.1160  0.1894 -0.2964
   19SAPC   C22 2441   4.197   1.452  10.365  0.0457  0.4440  0.3959
   19SAPC   H2R 2442   4.178   1.378  10.446  2.4661 -1.8093 -0.9336
   19SAPC   H2S 2443   4.106   1.515  10.364 -1.1285 -1.0984  2.5241
   19SAPC    C3 2444   4.652   1.444  10.422  0.5712  0.1375 -0.0394
   19SAPC    HX 2445   4.631   1.335  10.427 -0.6928  0.3609 -0.1726
   19SAPC    HY 2446   4.748   1.471  10.471  1.0667  0.4501 -1.1486
   19SAPC   O31 2447   4.636   1.486  10.283 -0.7371 -0.4119  0.0490
   19SAPC   C31 2448   4.686   1.604  10.256 -0.0139  0.3266 -0.3403
   19SAPC   O32 2449   4.732   1.683  10.337  0.1233 -0.4542 -0.6132
   19SAPC   C32 2450   4.676   1.623  10.111 -0.2230  0.2226 -0.7371
   19SAPC   H2X 2451   4.568   1.629  10.084  0.0659 -0.2654 -2.0364
   19SAPC   H2Y 2452   4.714   1.538  10.052  0.4999  0.7943 -1.1135
   19SAPC   C23 2453   4.229   1.365  10.240  0.6957 -0.7746 -0.0291
   19SAPC   H3R 2454   4.138   1.311  10.206  0.3005 -1.1071  1.4691
   19SAPC   H3S 2455   4.313   1.294  10.256  1.8753  0.9575  1.8998
   19SAPC   C24 2456   4.240   1.456  10.118 -0.3916 -0.8033  0.4717
   19SAPC   H4R 2457   4.259   1.561  10.148  0.9767 -0.8844 -0.0033
   19SAPC   H4S 2458   4.141   1.455  10.069 -0.4337  3.2323  0.1291
   19SAPC   C25 2459   4.351   1.412  10.025 -0.5772  0.0977  0.1852
   19SAPC   H5R 2460   4.452   1.428  10.067 -0.0283  0.7662 -1.3130
   19SAPC   C26 2461   4.336   1.349   9.901  0.3590 -0.0646 -0.4412
   19SAPC   H6R 2462   4.424   1.331   9.837 -0.9887 -1.0644 -2.1319
   19SAPC   C27 2463   4.210   1.333   9.830  0.1992  0.2890  1.1379
   19SAPC   H7R 2464   4.122   1.305   9.891 -2.1216  0.4474 -1.8616
   19SAPC   H7S 2465   4.234   1.245   9.767  1.7764  0.4982  1.4093
   19SAPC   C28 2466   4.178   1.456   9.755  0.5681 -0.4339 -0.0800
   19SAPC   H8R 2467   4.128   1.528   9.823 -0.6848 -0.1989 -1.2033
   19SAPC   C29 2468   4.210   1.488   9.628  0.2147  0.3779 -0.1723
   19SAPC   H9R 2469   4.178   1.577   9.573  0.0180 -0.7794 -2.0223
   19SAPC  C210 2470   4.288   1.395   9.530  0.0316  0.0026  0.3118
   19SAPC  H10R 2471   4.221   1.332   9.467  1.9123 -0.5014 -1.2603
   19SAPC  H10S 2472   4.357   1.322   9.576 -1.0470 -1.1031  0.2411
   19SAPC  C211 2473   4.364   1.486   9.438 -0.3634 -0.1016 -0.2229
   19SAPC  H11R 2474   4.438   1.545   9.493 -0.4055 -0.5826  0.3701
   19SAPC  C212 2475   4.343   1.485   9.302 -0.3255 -0.2572 -0.4671
   19SAPC  H12R 2476   4.405   1.557   9.246 -0.4430  0.1200 -0.1192
   19SAPC  C213 2477   4.246   1.417   9.217  0.2589  0.3351  0.8386
   19SAPC  H13R 2478   4.187   1.343   9.275 -0.2639 -0.0785 -0.1995
   19SAPC  H13S 2479   4.296   1.357   9.138  0.5920  0.1805  1.1612
   19SAPC  C214 2480   4.166   1.516   9.142  0.4411 -0.3464 -0.1631
   19SAPC  H14R 2481   4.077   1.559   9.190 -0.1748 -2.5088  0.7575
   19SAPC  C215 2482   4.178   1.548   9.012  0.5399 -0.3800 -0.0446
   19SAPC  H15R 2483   4.118   1.628   8.966  0.9233 -0.6841 -1.0980
   19SAPC  C216 2484   4.276   1.494   8.906  0.1008 -0.3292 -0.8102
   19SAPC  H16R 2485   4.256   1.388   8.882  3.4345 -1.1762 -0.3807
   19SAPC  H16S 2486   4.377   1.488   8.953 -1.0141  3.2474  2.6340
   19SAPC  C217 2487   4.278   1.593   8.797  0.9006 -0.4986  0.8443
   19SAPC  H17R 2488   4.299   1.696   8.831 -0.1184  0.5204 -1.4463
   19SAPC  H17S 2489   4.190   1.602   8.731  2.5533  1.5900 -1.2599
   19SAPC  C218 2490   4.392   1.555   8.696  0.1404  0.3530  0.5162
   19SAPC  H18R 2491   4.377   1.448   8.668  1.1069 -0.5846  3.2471
   19SAPC  H18S 2492   4.491   1.573   8.742  0.3212  1.8296 -0.4213
   19SAPC  C219 2493   4.384   1.641   8.559 -0.1758 -0.6240 -0.7773
   19SAPC  H19R 2494   4.362   1.746   8.590  0.1731 -0.9704  0.7054
   19SAPC  H19S 2495   4.296   1.618   8.495 -0.9401  0.5492 -0.2004
   19SAPC  C220 2496   4.514   1.639   8.482  0.1525  0.0586  0.4180
   19SAPC  H20R 2497   4.578   1.550   8.496 -1.6010 -1.0940  1.5051
   19SAPC  H20S 2498   4.582   1.726   8.499  1.4315 -0.9901  0.8004
   19SAPC  H20T 2499   4.491   1.657   8.375  0.5108 -1.5652  0.0390
   19SAPC   C33 2500   4.764   1.753  10.067 -0.4197 -0.0174 -0.0760
   19SAPC   H3X 2501   4.853   1.770  10.130  0.6413  1.8251 -1.9443
   19SAPC   H3Y 2502   4.707   1.849  10.067  1.3385  1.1331 -2.6494
   19SAPC   C34 2503   4.816   1.749   9.920  0.0192 -0.4099  0.6783
   19SAPC   H4X 2504   4.904   1.682   9.910  0.7199  0.4490  0.9160
   19SAPC   H4Y 2505   4.847   1.851   9.888  0.5047 -0.6146  0.4742
   19SAPC   C35 2506   4.712   1.698   9.823 -0.7175 -0.3312 -0.3912
   19SAPC   H5X 2507   4.628   1.770   9.820 -0.4113  0.1103 -4.5562
   19SAPC   H5Y 2508   4.673   1.604   9.868  0.4244 -0.9144 -0.5727
   19SAPC   C36 2509   4.761   1.668   9.681 -0.2841 -0.3849 -0.8039
   19SAPC   H6X 2510   4.674   1.657   9.612 -0.3305  1.5328 -1.1217
   19SAPC   H6Y 2511   4.807   1.567   9.685 -0.2063 -0.3195  0.4217
   19SAPC   C37 2512   4.862   1.768   9.624 -0.2246  0.0613 -0.3072
   19SAPC   H7X 2513   4.964   1.765   9.669  0.4271 -0.7250 -1.7553
   19SAPC   H7Y 2514   4.815   1.865   9.649 -3.4994 -1.4939  0.1163
   19SAPC   C38 2515   4.871   1.756   9.474 -0.1011  0.9520 -0.6073
   19SAPC   H8X 2516   4.904   1.855   9.436 -0.6586  2.5088  2.5672
   19SAPC   H8Y 2517   4.773   1.728   9.431 -0.5994  1.4969  0.1361
   19SAPC   C39 2518   4.976   1.651   9.429 -0.0472  0.5713 -0.0284
   19SAPC   H9X 2519   4.949   1.553   9.475 -0.6092  0.3927 -0.7100
   19SAPC   H9Y 2520   5.077   1.688   9.456 -0.5923  1.5372  0.7500
   19SAPC  C310 2521   4.970   1.618   9.275  0.3578  0.0520 -0.3953
   19SAPC  H10X 2522   4.877   1.571   9.239 -0.0546  0.3311  0.2919
   19SAPC  H10Y 2523   5.049   1.542   9.255  0.0850  0.1267 -1.8460
   19SAPC  C311 2524   4.988   1.748   9.197  0.2813 -0.1067  0.5836
   19SAPC  H11X 2525   5.090   1.784   9.225  1.0737  0.0738 -2.2157
   19SAPC  H11Y 2526   4.912   1.825   9.222 -1.3408 -0.0314 -3.7289
   19SAPC  C312 2527   4.970   1.732   9.043 -0.1903 -0.5941 -0.8596
   19SAPC  H12X 2528   4.878   1.672   9.025 -2.2017  2.8918 -3.5002
   19SAPC  H12Y 2529   5.062   1.683   9.006  0.1407 -0.3553 -0.3685
   19SAPC  C313 2530   4.945   1.858   8.969 -0.3390 -0.0386 -0.3175
   19SAPC  H13X 2531   5.033   1.925   8.978 -0.9993  0.8323 -0.2109
   19SAPC  H13Y 2532   4.864   1.914   9.019  0.1267  0.2309  0.1532
   19SAPC  C314 2533   4.917   1.846   8.822  0.6906  0.6484 -0.3755
   19SAPC  H14X 2534   4.910   1.943   8.768  2.2307  1.4331  0.7708
   19SAPC  H14Y 2535   4.821   1.795   8.800  0.1481  0.6331  1.7757
   19SAPC  C315 2536   5.028   1.770   8.751 -0.5845 -0.1366 -0.3535
   19SAPC  H15X 2537   5.031   1.662   8.774 -0.5414  0.1148  0.9108
   19SAPC  H15Y 2538   5.125   1.810   8.787 -0.6212 -0.4576  0.1126
   19SAPC  C316 2539   5.028   1.783   8.600  0.4178 -0.8189  0.9839
   19SAPC  H16X 2540   5.021   1.890   8.571  0.6757 -1.3785 -1.3495
   19SAPC  H16Y 2541   4.937   1.735   8.558  1.6315 -1.9367 -0.4476
   19SAPC  C317 2542   5.144   1.716   8.537 -0.3823  0.3886  0.3379
   19SAPC  H17X 2543   5.143   1.610   8.569 -1.8340  0.4877  0.6724
   19SAPC  H17Y 2544   5.246   1.759   8.552 -0.8102  1.0616  1.4593
   19SAPC  C318 2545   5.124   1.717   8.382  0.1682 -0.0276  0.9733
   19SAPC  H18X 2546   5.204   1.655   8.336  0.0419 -0.6779  1.6156
   19SAPC  H18Y 2547   5.126   1.819   8.339  1.7862 -0.4008  0.1095
   19SAPC  H18Z 2548   5.023   1.676   8.358  0.6479 -0.3112 -0.6754
   20SAPC     N 2549   5.487   5.124  10.940  0.4057  0.6168 -0.0041
   20SAPC   C12 2550   5.519   5.127  10.790 -0.2409 -0.5540 -0.7560
   20SAPC  H12A 2551   5.426   5.126  10.735 -0.8069  0.4536  0.1072
   20SAPC  H12B 2552   5.563   5.033  10.761 -1.0987 -0.7252 -1.5373
   20SAPC   C13 2553   5.376   5.035  10.977 -0.4479  0.7857  0.3570
   20SAPC  H13A 2554   5.407   4.931  10.973  2.3610  1.3955  3.2853
   20SAPC  H13B 2555   5.342   5.044  11.079 -1.8822 -0.1136  0.0030
   20SAPC  H13C 2556   5.285   5.056  10.921 -1.4681 -0.9588  1.2473
   20SAPC   C14 2557   5.606   5.075  11.020 -0.3994  0.2852  0.3608
   20SAPC  H14A 2558   5.650   4.980  10.993  0.2766  0.1386  1.8738
   20SAPC  H14B 2559   5.685   5.148  11.005 -1.2847  1.4980  1.4217
   20SAPC  H14C 2560   5.580   5.062  11.123 -0.8871 -1.3807  0.0614
   20SAPC   C15 2561   5.456   5.262  10.986  0.1606  0.1715  0.2862
   20SAPC  H15A 2562   5.545   5.323  10.989 -1.2855  2.3727  1.3526
   20SAPC  H15B 2563   5.387   5.315  10.922 -1.2540 -2.1193 -0.1802
   20SAPC  H15C 2564   5.407   5.253  11.082 -0.0262 -2.8150  0.0062
   20SAPC   C11 2565   5.611   5.239  10.743 -0.3009 -0.1383 -0.0377
   20SAPC  H11A 2566   5.575   5.340  10.773  2.4436  1.2586 -1.0439
   20SAPC  H11B 2567   5.605   5.241  10.633  0.4187 -0.3653 -0.0850
   20SAPC     P 2568   5.833   5.115  10.748  0.0495  0.1289  0.2879
   20SAPC   O13 2569   5.911   5.067  10.866  0.3276  0.6458 -0.2316
   20SAPC   O14 2570   5.750   5.013  10.685  0.3948  0.6584 -0.0007
   20SAPC   O12 2571   5.745   5.232  10.797 -0.1504 -0.0967  0.2922
   20SAPC   O11 2572   5.932   5.174  10.638 -0.1443  0.3480 -0.0406
   20SAPC    C1 2573   5.894   5.277  10.548 -0.0953 -0.2383 -0.2603
   20SAPC    HA 2574   5.789   5.281  10.513 -0.3149  2.9434  0.4600
   20SAPC    HB 2575   5.927   5.377  10.584  1.2419 -1.2361  1.4287
   20SAPC    C2 2576   5.964   5.231  10.415  0.1851 -0.6421  0.1650
   20SAPC    HS 2577   5.938   5.304  10.335  1.5035 -1.0997 -0.7215
   20SAPC   O21 2578   5.924   5.093  10.382 -0.1670 -0.6385 -0.1119
   20SAPC   C21 2579   5.908   5.076  10.248  0.1216 -0.0647  0.1150
   20SAPC   O22 2580   5.943   5.154  10.161 -0.4039  0.2094  0.0208
   20SAPC   C22 2581   5.831   4.947  10.230  0.0383 -0.1936  0.1302
   20SAPC   H2R 2582   5.867   4.865  10.295 -0.6303 -0.7142 -0.1425
   20SAPC   H2S 2583   5.731   4.964  10.276  0.3856 -2.1020  1.7443
   20SAPC    C3 2584   6.123   5.243  10.439  0.3018  0.6193  0.0147
   20SAPC    HX 2585   6.152   5.157  10.503 -3.7900 -0.9206  0.1041
   20SAPC    HY 2586   6.140   5.338  10.495  1.6531 -0.9604  2.4820
   20SAPC   O31 2587   6.200   5.240  10.316  0.0655  0.4590  0.4346
   20SAPC   C31 2588   6.325   5.195  10.308 -0.1486 -0.9581 -0.4218
   20SAPC   O32 2589   6.384   5.126  10.393  0.7308 -0.4749  0.9271
   20SAPC   C32 2590   6.386   5.245  10.187  0.3972 -1.1848  0.9142
   20SAPC   H2X 2591   6.469   5.309  10.223  0.3888 -0.8480  0.3417
   20SAPC   H2Y 2592   6.317   5.315  10.137  3.2674  0.1927 -1.4604
   20SAPC   C23 2593   5.819   4.913  10.079  0.1010  0.2331 -0.4483
   20SAPC   H3R 2594   5.922   4.902  10.039 -0.7701 -0.3143 -2.6979
   20SAPC   H3S 2595   5.781   4.995  10.014 -2.4354 -2.6142 -2.9030
   20SAPC   C24 2596   5.738   4.790  10.029 -0.3555  0.7157  0.0073
   20SAPC   H4R 2597   5.773   4.701  10.085 -2.6052  1.1129  2.2881
   20SAPC   H4S 2598   5.774   4.775   9.926 -1.2614  1.8581 -0.5062
   20SAPC   C25 2599   5.590   4.807  10.043  1.3232 -0.6335 -0.4051
   20SAPC   H5R 2600   5.549   4.829  10.143 -0.8353 -0.8161 -1.2012
   20SAPC   C26 2601   5.504   4.808   9.940  0.3989  0.6147  0.5949
   20SAPC   H6R 2602   5.397   4.821   9.961 -0.0682 -1.2010 -0.4934
   20SAPC   C27 2603   5.538   4.782   9.793  0.3493 -0.9305  0.4339
   20SAPC   H7R 2604   5.642   4.813   9.768  0.6893 -1.2158  1.4486
   20SAPC   H7S 2605   5.477   4.842   9.723  1.8376 -1.8291 -1.7736
   20SAPC   C28 2606   5.524   4.631   9.762 -1.0708 -0.0087 -0.2688
   20SAPC   H8R 2607   5.521   4.558   9.844 -0.3863  1.5477  1.1998
   20SAPC   C29 2608   5.523   4.577   9.643 -0.4231  0.0276  0.5263
   20SAPC   H9R 2609   5.515   4.468   9.629 -0.7398  0.0160  0.7856
   20SAPC  C210 2610   5.521   4.652   9.515  0.1892  0.0752 -0.0479
   20SAPC  H10R 2611   5.610   4.630   9.452 -1.1206  2.8250 -3.1519
   20SAPC  H10S 2612   5.523   4.761   9.538  3.1727  0.3306 -1.0532
   20SAPC  C211 2613   5.398   4.632   9.432  0.0205 -0.4174 -0.5443
   20SAPC  H11R 2614   5.306   4.678   9.472  0.1886 -0.3670 -0.2168
   20SAPC  C212 2615   5.382   4.571   9.312  0.1859 -0.3451 -0.2416
   20SAPC  H12R 2616   5.278   4.567   9.276  0.7578 -1.9541 -1.8398
   20SAPC  C213 2617   5.486   4.500   9.234 -0.3841  0.3041  0.4065
   20SAPC  H13R 2618   5.559   4.470   9.313 -0.9950  0.6724  1.1313
   20SAPC  H13S 2619   5.551   4.566   9.173 -0.0670 -1.1790 -0.9261
   20SAPC  C214 2620   5.435   4.376   9.161  0.1608  0.0520 -0.1387
   20SAPC  H14R 2621   5.384   4.299   9.219 -0.3526  0.4639 -0.0359
   20SAPC  C215 2622   5.442   4.365   9.025 -0.2198 -0.2239 -0.4382
   20SAPC  H15R 2623   5.386   4.280   8.985 -1.5343  0.0733  0.6931
   20SAPC  C216 2624   5.506   4.474   8.931 -0.0025  0.1585  0.2937
   20SAPC  H16R 2625   5.579   4.427   8.862 -1.1915 -2.0781  0.4712
   20SAPC  H16S 2626   5.556   4.555   8.988 -1.8479 -1.6281  4.9618
   20SAPC  C217 2627   5.395   4.542   8.843 -0.3569  0.1984 -0.0540
   20SAPC  H17R 2628   5.446   4.618   8.779  0.2174  1.5027  1.8627
   20SAPC  H17S 2629   5.319   4.600   8.900 -0.5013  1.1077 -1.1211
   20SAPC  C218 2630   5.319   4.441   8.754 -0.3735 -0.2179 -0.2714
   20SAPC  H18R 2631   5.262   4.512   8.689 -0.4265  0.2458  0.2676
   20SAPC  H18S 2632   5.249   4.384   8.819 -1.9687  1.0437 -0.8055
   20SAPC  C219 2633   5.410   4.368   8.658 -0.8341 -0.1796  0.5838
   20SAPC  H19R 2634   5.499   4.330   8.713 -0.8898 -1.9974 -0.5160
   20SAPC  H19S 2635   5.469   4.432   8.589 -0.6157  0.1012  1.0246
   20SAPC  C220 2636   5.345   4.240   8.601 -0.3047  0.0037 -0.1699
   20SAPC  H20R 2637   5.412   4.185   8.532  0.1191  1.7314 -1.2068
   20SAPC  H20S 2638   5.243   4.252   8.559  0.3408  2.4054 -1.2188
   20SAPC  H20T 2639   5.336   4.182   8.696  1.3312  0.9826  0.6265
   20SAPC   C33 2640   6.440   5.144  10.086 -0.7689  0.2360 -0.2101
   20SAPC   H3X 2641   6.513   5.079  10.138  1.1720  2.6832  0.3515
   20SAPC   H3Y 2642   6.495   5.203  10.009 -0.5771  0.4128  0.0620
   20SAPC   C34 2643   6.343   5.066  10.009  0.7665  0.3311 -0.2580
   20SAPC   H4X 2644   6.290   5.141   9.947  0.5793  1.0653  0.7559
   20SAPC   H4Y 2645   6.278   5.013  10.082  1.6997  0.5748  0.7751
   20SAPC   C35 2646   6.407   4.961   9.915  0.4370 -0.3202  0.9927
   20SAPC   H5X 2647   6.481   4.899   9.969  0.4146 -1.4252 -0.1942
   20SAPC   H5Y 2648   6.463   5.016   9.836  1.6997 -0.5101  1.7446
   20SAPC   C36 2649   6.299   4.875   9.848 -0.6504  0.3954 -0.0647
   20SAPC   H6X 2650   6.350   4.791   9.796 -1.3145 -0.7208  1.0413
   20SAPC   H6Y 2651   6.245   4.933   9.770  0.1556  2.1380  0.6198
   20SAPC   C37 2652   6.192   4.812   9.937  0.2724 -0.2706 -0.7779
   20SAPC   H7X 2653   6.131   4.892   9.985  0.0245  0.6359 -2.5112
   20SAPC   H7Y 2654   6.256   4.757  10.009 -0.7101  0.3409  0.6074
   20SAPC   C38 2655   6.097   4.710   9.862 -0.1353  0.6530  0.4751
   20SAPC   H8X 2656   6.051   4.642   9.938  3.2910 -2.1872  0.2994
   20SAPC   H8Y 2657   6.152   4.633   9.803  2.5406  1.0083  2.3032
   20SAPC   C39 2658   5.986   4.780   9.788  0.8514  0.5218  0.8160
   20SAPC   H9X 2659   5.935   4.868   9.832 -1.2611  0.6603 -1.6512
   20SAPC   H9Y 2660   5.922   4.689   9.780  0.8473  0.6454 -1.2514
   20SAPC  C310 2661   6.014   4.816   9.636 -0.2497  0.4477 -0.0727
   20SAPC  H10X 2662   6.083   4.734   9.605  1.9317  1.1149  2.5842
   20SAPC  H10Y 2663   6.072   4.911   9.629  3.7367 -1.7492 -0.0069
   20SAPC  C311 2664   5.896   4.820   9.543  0.1661 -0.3990  0.7557
   20SAPC  H11X 2665   5.854   4.920   9.567  0.3851 -0.1491  0.1236
   20SAPC  H11Y 2666   5.818   4.749   9.578  1.2007 -1.0485  1.8412
   20SAPC  C312 2667   5.931   4.807   9.393  0.4558  0.2180  0.3118
   20SAPC  H12X 2668   5.957   4.704   9.361 -0.9065 -0.2614  0.6869
   20SAPC  H12Y 2669   6.016   4.875   9.370  0.5400 -0.1421 -0.4739
   20SAPC  C313 2670   5.817   4.844   9.297  0.4390  0.1056 -0.1322
   20SAPC  H13X 2671   5.788   4.948   9.321  0.3408 -0.3762  2.0602
   20SAPC  H13Y 2672   5.724   4.788   9.324  0.7448  0.6516  2.3423
   20SAPC  C314 2673   5.855   4.832   9.153  0.0795  0.5860 -0.0021
   20SAPC  H14X 2674   5.888   4.730   9.125  0.1963  0.9044 -1.0978
   20SAPC  H14Y 2675   5.937   4.902   9.126 -0.4932  1.3228  0.1309
   20SAPC  C315 2676   5.727   4.868   9.064  0.2818 -0.6367  0.6262
   20SAPC  H15X 2677   5.685   4.967   9.093 -0.5268 -0.6415 -0.4756
   20SAPC  H15Y 2678   5.645   4.799   9.094 -0.1154  0.2194  1.6000
   20SAPC  C316 2679   5.743   4.864   8.911  0.6413 -0.0343  0.1569
   20SAPC  H16X 2680   5.651   4.901   8.860  1.8104  1.7461 -0.7699
   20SAPC  H16Y 2681   5.758   4.758   8.883  0.7493  0.3392 -1.2665
   20SAPC  C317 2682   5.863   4.941   8.844 -0.7578 -0.5292  0.0140
   20SAPC  H17X 2683   5.956   4.933   8.904 -1.4811 -0.5536  1.1672
   20SAPC  H17Y 2684   5.826   5.046   8.849  0.9662  0.0331  2.6219
   20SAPC  C318 2685   5.897   4.917   8.700  0.5796  0.3069  0.2691
   20SAPC  H18X 2686   5.988   4.975   8.677 -0.5060  1.5863 -1.0225
   20SAPC  H18Y 2687   5.811   4.940   8.634 -1.1694 -3.7996  0.7896
   20SAPC  H18Z 2688   5.926   4.811   8.679  0.8444  0.3705  0.3235
   21SAPC     N 2689   2.931   6.089  11.160 -0.9431  0.0489 -0.1127
   21SAPC   C12 2690   3.023   6.147  11.052  0.3399 -0.1013  0.2232
   21SAPC  H12A 2691   3.119   6.160  11.100  1.5200 -3.2402 -0.9967
   21SAPC  H12B 2692   2.994   6.247  11.024 -2.2620 -1.0313 -0.6839
   21SAPC   C13 2693   2.924   6.180  11.277 -0.6982 -0.3546 -0.8213
   21SAPC  H13A 2694   3.020   6.205  11.319 -1.1136 -1.7289  1.0720
   21SAPC  H13B 2695   2.872   6.269  11.243 -0.3001 -0.3530 -1.4486
   21SAPC  H13C 2696   2.866   6.139  11.359  0.3161 -1.8784 -0.8315
   21SAPC   C14 2697   2.786   6.073  11.109 -0.7547  0.9785  0.1799
   21SAPC  H14A 2698   2.727   6.024  11.184 -1.3047  0.8610 -0.3171
   21SAPC  H14B 2699   2.738   6.165  11.077 -2.7867  0.2967  1.1086
   21SAPC  H14C 2700   2.781   6.006  11.024 -2.3254  0.9722  0.2468
   21SAPC   C15 2701   2.976   5.961  11.211 -0.4177  0.6633 -0.4574
   21SAPC  H15A 2702   2.905   5.926  11.285 -2.2905  1.0670 -1.9887
   21SAPC  H15B 2703   2.978   5.885  11.134 -0.2894  1.2799 -1.0683
   21SAPC  H15C 2704   3.067   5.956  11.270 -0.8292 -0.9735  0.1167
   21SAPC   C11 2705   3.045   6.066  10.923 -0.3232  0.3193  0.7028
   21SAPC  H11A 2706   3.077   6.147  10.853  0.1206  0.4871  1.0965
   21SAPC  H11B 2707   2.950   6.022  10.885  0.3627  0.0399 -0.7898
   21SAPC     P 2708   3.155   5.850  10.839 -0.0145  0.1138 -0.0180
   21SAPC   O13 2709   3.276   5.770  10.867  0.0222 -0.3225  1.0426
   21SAPC   O14 2710   3.028   5.774  10.835  0.5527  0.0613  0.5107
   21SAPC   O12 2711   3.146   5.967  10.947  0.2140 -0.6721  0.0615
   21SAPC   O11 2712   3.167   5.937  10.702 -0.2729  0.5886 -0.0645
   21SAPC    C1 2713   3.284   6.016  10.684  0.2407 -0.1332 -0.4656
   21SAPC    HA 2714   3.268   6.121  10.719  0.8391 -0.1942  0.0151
   21SAPC    HB 2715   3.378   5.977  10.729  0.6111  0.9087 -0.2942
   21SAPC    C2 2716   3.322   6.012  10.530 -0.5212 -0.6695 -0.7129
   21SAPC    HS 2717   3.415   6.072  10.527  1.4021 -3.4356  0.0280
   21SAPC   O21 2718   3.215   6.049  10.435  0.9067 -0.0152 -0.0872
   21SAPC   C21 2719   3.169   6.167  10.441  0.2254 -0.3929  0.2251
   21SAPC   O22 2720   3.200   6.264  10.511  0.0393 -0.5538  0.0042
   21SAPC   C22 2721   3.056   6.183  10.337 -0.3418 -0.1798 -0.4332
   21SAPC   H2R 2722   2.971   6.121  10.373  0.3233 -0.3292  0.9507
   21SAPC   H2S 2723   3.023   6.289  10.331  1.3321  0.4242  0.3115
   21SAPC    C3 2724   3.365   5.864  10.495 -0.9113  0.1055  0.5228
   21SAPC    HX 2725   3.288   5.793  10.530 -0.3725 -1.1034 -0.6378
   21SAPC    HY 2726   3.457   5.837  10.551 -2.5381 -0.4880  3.0462
   21SAPC   O31 2727   3.394   5.850  10.351  0.0230 -0.3412 -0.2142
   21SAPC   C31 2728   3.295   5.812  10.276  0.3540 -0.1397 -0.6747
   21SAPC   O32 2729   3.188   5.767  10.310  0.0968  0.1413  0.4384
   21SAPC   C32 2730   3.335   5.816  10.124 -0.1233 -0.1810 -0.0291
   21SAPC   H2X 2731   3.239   5.817  10.069 -0.1919  1.1421  0.0789
   21SAPC   H2Y 2732   3.380   5.717  10.100  0.9915  0.2492  0.2015
   21SAPC   C23 2733   3.103   6.138  10.197 -0.0865 -0.7057  0.0336
   21SAPC   H3R 2734   3.108   6.028  10.199  0.4724 -0.7183 -1.1797
   21SAPC   H3S 2735   3.208   6.164  10.171 -0.2066 -1.2268 -1.0440
   21SAPC   C24 2736   3.012   6.213  10.098  0.0118 -0.0982  0.5409
   21SAPC   H4R 2737   3.040   6.321  10.101 -0.1955 -0.0409  0.3896
   21SAPC   H4S 2738   2.915   6.201  10.151 -0.7917  1.3845 -0.5140
   21SAPC   C25 2739   3.023   6.149   9.961 -0.5690  0.6714  0.2080
   21SAPC   H5R 2740   3.123   6.122   9.924 -0.9228 -0.1756 -0.1537
   21SAPC   C26 2741   2.913   6.113   9.893 -0.3610  0.7802 -0.0506
   21SAPC   H6R 2742   2.926   6.073   9.791  1.5218  1.3128 -0.0642
   21SAPC   C27 2743   2.761   6.129   9.921 -0.5670 -0.1755  0.1572
   21SAPC   H7R 2744   2.745   6.126  10.030  2.7292  3.2521  0.9723
   21SAPC   H7S 2745   2.723   6.031   9.885  0.4532 -1.2580  1.9026
   21SAPC   C28 2746   2.699   6.249   9.857 -0.0045  0.2317  0.2015
   21SAPC   H8R 2747   2.748   6.347   9.870 -1.6462  1.0183  0.7536
   21SAPC   C29 2748   2.588   6.240   9.782  0.1265  0.1161  0.4814
   21SAPC   H9R 2749   2.548   6.335   9.744  0.6393  0.2087  0.1694
   21SAPC  C210 2750   2.511   6.116   9.747 -1.1002  0.2762 -1.0280
   21SAPC  H10R 2751   2.579   6.041   9.703  0.8764  0.2471  1.7968
   21SAPC  H10S 2752   2.433   6.142   9.673 -1.3014  0.3964 -0.7789
   21SAPC  C211 2753   2.441   6.050   9.869  0.2834 -0.5085  0.0799
   21SAPC  H11R 2754   2.406   6.121   9.945  1.6302 -0.4206  0.6482
   21SAPC  C212 2755   2.426   5.926   9.884  0.3477  0.5580  0.5618
   21SAPC  H12R 2756   2.397   5.889   9.984  2.6394  0.2349  1.1637
   21SAPC  C213 2757   2.469   5.814   9.795 -0.3286  0.2632  0.3377
   21SAPC  H13R 2758   2.511   5.731   9.855  0.9173  1.2195  0.8320
   21SAPC  H13S 2759   2.560   5.849   9.742 -2.5283  3.2029 -1.8745
   21SAPC  C214 2760   2.364   5.785   9.683 -0.3372 -0.9949 -0.4648
   21SAPC  H14R 2761   2.267   5.751   9.720 -0.2439 -0.5357  0.2320
   21SAPC  C215 2762   2.379   5.793   9.546 -0.3535 -0.2719  0.0279
   21SAPC  H15R 2763   2.293   5.775   9.479  0.0250 -0.8857 -0.3046
   21SAPC  C216 2764   2.505   5.841   9.475  0.6663 -0.1561 -0.3703
   21SAPC  H16R 2765   2.584   5.815   9.549 -0.7001 -1.3302  0.7241
   21SAPC  H16S 2766   2.498   5.951   9.462  3.9550  0.3479  1.2356
   21SAPC  C217 2767   2.529   5.772   9.348  0.0360  0.1162  0.6872
   21SAPC  H17R 2768   2.517   5.663   9.359 -1.6977  0.1196 -0.6481
   21SAPC  H17S 2769   2.631   5.807   9.318 -0.1636  0.6046  0.5671
   21SAPC  C218 2770   2.436   5.817   9.235 -0.2342  0.7716 -0.3440
   21SAPC  H18R 2771   2.452   5.926   9.227  0.5711  0.6097 -1.1100
   21SAPC  H18S 2772   2.330   5.802   9.263  0.2939 -0.8734  0.9896
   21SAPC  C219 2773   2.458   5.750   9.101 -0.3367 -0.4649 -0.5357
   21SAPC  H19R 2774   2.409   5.801   9.015 -0.3048 -0.2192 -0.4093
   21SAPC  H19S 2775   2.426   5.644   9.110  0.0018 -0.5197  0.0956
   21SAPC  C220 2776   2.606   5.738   9.073  0.3337 -0.1641  0.1681
   21SAPC  H20R 2777   2.666   5.679   9.145  1.1948 -0.9580 -1.1652
   21SAPC  H20S 2778   2.639   5.844   9.079 -1.1862  0.2475  2.6094
   21SAPC  H20T 2779   2.639   5.702   8.973 -1.8947  1.1791 -1.1565
   21SAPC   C33 2780   3.417   5.931  10.080  0.4185  0.8852 -0.0912
   21SAPC   H3X 2781   3.488   5.965  10.158 -0.5606 -1.4410  1.9512
   21SAPC   H3Y 2782   3.354   6.021  10.062  0.6867  0.4243 -4.1485
   21SAPC   C34 2783   3.490   5.913   9.945 -0.3753  0.7015  0.3702
   21SAPC   H4X 2784   3.551   5.820   9.943  0.1496  1.0317 -1.3792
   21SAPC   H4Y 2785   3.562   5.997   9.929  0.1287  0.2518  0.2458
   21SAPC   C35 2786   3.385   5.909   9.829 -0.6961 -0.0193 -0.0608
   21SAPC   H5X 2787   3.318   5.997   9.829  0.3360  0.7927  1.2470
   21SAPC   H5Y 2788   3.323   5.817   9.842  0.0834 -0.5746 -0.2351
   21SAPC   C36 2789   3.446   5.896   9.691 -0.0724  1.0008  0.1246
   21SAPC   H6X 2790   3.515   5.809   9.693 -0.5997  0.5244  3.6863
   21SAPC   H6Y 2791   3.510   5.985   9.675  2.4531 -0.5329  1.0483
   21SAPC   C37 2792   3.348   5.898   9.574  0.1512  0.1269  0.0138
   21SAPC   H7X 2793   3.296   5.996   9.565  0.2785  0.0851 -1.4952
   21SAPC   H7Y 2794   3.266   5.827   9.595  0.5634 -0.9063 -1.6496
   21SAPC   C38 2795   3.411   5.864   9.438 -0.3025 -0.6661  0.2160
   21SAPC   H8X 2796   3.332   5.826   9.369 -0.4079 -0.7654  0.3891
   21SAPC   H8Y 2797   3.484   5.780   9.440  0.4555 -0.0300 -0.5450
   21SAPC   C39 2798   3.478   5.987   9.367  0.4127 -0.7230  0.2033
   21SAPC   H9X 2799   3.563   6.019   9.431  1.0873 -2.7957  0.4202
   21SAPC   H9Y 2800   3.397   6.059   9.342 -0.1613 -2.1699 -2.5550
   21SAPC  C310 2801   3.543   5.961   9.230  0.7418  0.0441  0.4243
   21SAPC  H10X 2802   3.610   5.873   9.237 -0.6195 -1.1415 -0.7552
   21SAPC  H10Y 2803   3.609   6.041   9.189  1.7398 -0.7485  0.4474
   21SAPC  C311 2804   3.441   5.940   9.122 -0.6088  0.3724  0.3218
   21SAPC  H11X 2805   3.383   6.034   9.118 -0.5766  0.3699 -0.4813
   21SAPC  H11Y 2806   3.365   5.863   9.148 -2.0863  0.4483 -3.1577
   21SAPC  C312 2807   3.503   5.912   8.983  0.1405 -0.3158  0.5195
   21SAPC  H12X 2808   3.555   5.813   8.985  0.1746 -0.2961  0.6158
   21SAPC  H12Y 2809   3.576   5.994   8.971  0.2240 -0.3169  1.0186
   21SAPC  C313 2810   3.406   5.913   8.865 -0.5530  0.2744 -0.2800
   21SAPC  H13X 2811   3.345   6.004   8.854 -3.3801 -1.1398  2.2311
   21SAPC  H13Y 2812   3.338   5.826   8.878  1.6541 -1.7527 -1.4618
   21SAPC  C314 2813   3.479   5.879   8.736 -0.0348  0.4335 -0.4270
   21SAPC  H14X 2814   3.517   5.776   8.751  0.3326  0.9857  3.2234
   21SAPC  H14Y 2815   3.575   5.933   8.728 -0.3495  0.8448 -1.6129
   21SAPC  C315 2816   3.393   5.903   8.609  0.3334 -0.0583 -0.4161
   21SAPC  H15X 2817   3.378   6.012   8.597 -1.1677 -0.2596 -0.5401
   21SAPC  H15Y 2818   3.292   5.865   8.634  0.1373  1.6540  1.6231
   21SAPC  C316 2819   3.468   5.850   8.478  0.3350  0.2368 -0.1893
   21SAPC  H16X 2820   3.483   5.740   8.475  2.1654  0.4744 -1.4532
   21SAPC  H16Y 2821   3.573   5.883   8.491  0.0380  0.8452  0.7302
   21SAPC  C317 2822   3.408   5.898   8.351  0.1271  0.1240 -0.4333
   21SAPC  H17X 2823   3.466   5.872   8.261  1.5665 -1.9680  1.0008
   21SAPC  H17Y 2824   3.403   6.009   8.352  1.3726  0.2301 -2.0506
   21SAPC  C318 2825   3.266   5.842   8.329 -0.5816 -0.5169  0.3012
   21SAPC  H18X 2826   3.215   5.892   8.244 -0.9746  0.8492  1.2988
   21SAPC  H18Y 2827   3.200   5.881   8.410 -0.3043  2.1547 -0.6466
   21SAPC  H18Z 2828   3.260   5.731   8.322 -0.8048 -0.4955  0.1452
   22SAPC     N 2829   0.639   5.820  10.971 -0.6364  0.4640  0.3017
   22SAPC   C12 2830   0.600   5.777  10.832 -0.6107  0.0255  0.7725
   22SAPC  H12A 2831   0.676   5.714  10.789  0.5947  0.7543  1.7651
   22SAPC  H12B 2832   0.607   5.866  10.770  1.2025  0.1574  1.1049
   22SAPC   C13 2833   0.748   5.919  10.970 -0.2915  0.4572  0.4831
   22SAPC  H13A 2834   0.704   6.011  10.934  0.2075  0.7257  0.5644
   22SAPC  H13B 2835   0.786   5.923  11.071  3.0564 -1.7921 -0.5410
   22SAPC  H13C 2836   0.841   5.888  10.925 -0.7035  0.4969 -0.4143
   22SAPC   C14 2837   0.528   5.891  11.037  0.2624  0.2117  0.1519
   22SAPC  H14A 2838   0.546   5.932  11.136 -2.3277 -2.1335  1.7523
   22SAPC  H14B 2839   0.488   5.973  10.978  1.3259 -1.0042 -2.3916
   22SAPC  H14C 2840   0.448   5.819  11.047 -0.2106  0.6369 -0.4861
   22SAPC   C15 2841   0.680   5.699  11.056  0.5206  0.2754  0.1818
   22SAPC  H15A 2842   0.693   5.714  11.162  0.6569 -0.6816  0.3100
   22SAPC  H15B 2843   0.602   5.624  11.052  1.4835 -0.7089 -1.1018
   22SAPC  H15C 2844   0.769   5.660  11.008 -0.5058  0.4658 -2.0274
   22SAPC   C11 2845   0.468   5.706  10.804  0.2607 -0.6218  0.2786
   22SAPC  H11A 2846   0.455   5.627  10.881  0.3182 -0.9880 -0.0772
   22SAPC  H11B 2847   0.480   5.657  10.704  1.1010 -0.3416  0.2379
   22SAPC     P 2848   0.295   5.856  10.669 -0.0674  0.0845  0.3868
   22SAPC   O13 2849   0.218   5.741  10.623  0.4463 -0.4361 -0.3179
   22SAPC   O14 2850   0.208   5.974  10.692 -0.2467 -0.0394  0.0110
   22SAPC   O12 2851   0.367   5.811  10.802 -0.3472 -0.3358  0.1906
   22SAPC   O11 2852   0.419   5.891  10.585  0.2523 -0.0207 -0.0411
   22SAPC    C1 2853   0.445   6.023  10.545 -0.7241 -0.5231  0.4604
   22SAPC    HA 2854   0.440   6.092  10.632 -1.0075  0.8728 -0.6283
   22SAPC    HB 2855   0.547   6.028  10.499  0.4580 -0.8957  2.8657
   22SAPC    C2 2856   0.350   6.058  10.426 -0.3251 -0.1415  0.2742
   22SAPC    HS 2857   0.248   6.052  10.471 -1.0424  1.0686 -1.0856
   22SAPC   O21 2858   0.370   5.961  10.321 -0.0385  0.1433  0.0655
   22SAPC   C21 2859   0.259   5.935  10.253 -0.2181  0.3220  0.0628
   22SAPC   O22 2860   0.151   5.982  10.271 -0.0291 -0.3060 -0.1241
   22SAPC   C22 2861   0.284   5.825  10.149 -0.9880 -0.1243  0.0499
   22SAPC   H2R 2862   0.374   5.863  10.096 -0.4938  1.6328  2.0268
   22SAPC   H2S 2863   0.299   5.721  10.185  0.7262  0.3974  0.9801
   22SAPC    C3 2864   0.368   6.204  10.368 -0.0656 -0.0779 -0.5510
   22SAPC    HX 2865   0.465   6.211  10.315 -0.0141 -2.1969 -0.8370
   22SAPC    HY 2866   0.382   6.261  10.462 -0.1100  0.1249 -0.6681
   22SAPC   O31 2867   0.259   6.258  10.294 -0.1774 -0.0561  0.5065
   22SAPC   C31 2868   0.276   6.260  10.166 -0.2040 -0.1171 -0.3176
   22SAPC   O32 2869   0.380   6.226  10.102 -0.1323 -0.7198 -1.0079
   22SAPC   C32 2870   0.148   6.319  10.092  0.3582  0.2099  0.4798
   22SAPC   H2X 2871   0.136   6.426  10.122  0.7099 -0.0899  1.7646
   22SAPC   H2Y 2872   0.059   6.262  10.127  0.6903  0.2247  1.3906
   22SAPC   C23 2873   0.177   5.804  10.040 -0.9900  0.0017 -0.5702
   22SAPC   H3R 2874   0.084   5.762  10.086 -0.3735  0.5936  1.3398
   22SAPC   H3S 2875   0.215   5.732   9.965  0.0663  0.0430 -0.0908
   22SAPC   C24 2876   0.154   5.939   9.967  0.4179  0.2964  0.1090
   22SAPC   H4R 2877   0.235   5.966   9.896 -0.6678 -1.1911 -1.7992
   22SAPC   H4S 2878   0.141   6.017  10.045  2.2514 -0.2589  1.0265
   22SAPC   C25 2879   0.026   5.922   9.890 -0.3688 -0.2830  0.5810
   22SAPC   H5R 2880  -0.055   5.918   9.964 -1.2099  2.2429 -0.1154
   22SAPC   C26 2881  -0.001   5.904   9.762 -0.5709  0.7262  0.7017
   22SAPC   H6R 2882  -0.106   5.877   9.741 -0.9659  1.2761  1.8835
   22SAPC   C27 2883   0.089   5.907   9.638 -0.2668 -0.5889 -0.1732
   22SAPC   H7R 2884   0.170   5.981   9.658 -0.9809  0.2890 -0.4877
   22SAPC   H7S 2885   0.030   5.951   9.555 -0.0368  1.9745  0.9091
   22SAPC   C28 2886   0.137   5.771   9.610  0.3515  0.4164 -0.0366
   22SAPC   H8R 2887   0.223   5.745   9.675  0.2457  0.1111 -0.0181
   22SAPC   C29 2888   0.107   5.689   9.512  1.0336  0.3390 -0.7730
   22SAPC   H9R 2889   0.151   5.588   9.500 -2.9861 -1.6301 -0.6770
   22SAPC  C210 2890   0.001   5.702   9.407 -0.1078 -0.0650  0.8393
   22SAPC  H10R 2891   0.042   5.714   9.305 -0.8740  0.2501  0.5595
   22SAPC  H10S 2892  -0.047   5.800   9.429  2.5445  1.7199 -0.7383
   22SAPC  C211 2893  -0.098   5.589   9.413 -0.3462 -0.2478 -0.1293
   22SAPC  H11R 2894  -0.059   5.486   9.401  1.0365 -0.1500  2.6797
   22SAPC  C212 2895  -0.227   5.607   9.425  0.6679 -0.7637  0.3080
   22SAPC  H12R 2896  -0.291   5.517   9.426  1.6052 -1.6378 -3.5881
   22SAPC  C213 2897  -0.295   5.741   9.423 -0.3756  0.0131  0.7653
   22SAPC  H13R 2898  -0.261   5.793   9.331  0.3274 -1.8450 -0.0862
   22SAPC  H13S 2899  -0.249   5.803   9.503  1.5310 -0.2418 -0.0812
   22SAPC  C214 2900  -0.447   5.744   9.428  0.4993  0.1122  0.5816
   22SAPC  H14R 2901  -0.502   5.649   9.424 -1.5530  1.2831 -1.3423
   22SAPC  C215 2902  -0.513   5.860   9.449 -0.4105  0.5345 -0.5643
   22SAPC  H15R 2903  -0.623   5.860   9.449 -0.4681  2.7359  0.9235
   22SAPC  C216 2904  -0.447   5.997   9.451  0.4922  0.7064 -0.5271
   22SAPC  H16R 2905  -0.503   6.048   9.369 -0.0498  1.1646  0.1033
   22SAPC  H16S 2906  -0.342   6.002   9.416  0.2831 -2.4941 -1.9481
   22SAPC  C217 2907  -0.461   6.070   9.590 -0.8054  0.2652 -0.0245
   22SAPC  H17R 2908  -0.563   6.055   9.632 -0.9285 -0.8380 -0.6662
   22SAPC  H17S 2909  -0.437   6.177   9.573 -0.9686  0.3683  0.3810
   22SAPC  C218 2910  -0.362   6.011   9.692  0.4769 -0.4615  0.4456
   22SAPC  H18R 2911  -0.263   6.015   9.641 -0.3970 -0.7446 -1.3092
   22SAPC  H18S 2912  -0.378   5.903   9.713 -1.7413  0.2275  2.8719
   22SAPC  C219 2913  -0.361   6.081   9.834  0.0858 -0.1658  0.0767
   22SAPC  H19R 2914  -0.361   6.189   9.809 -0.8996 -0.2926 -0.5149
   22SAPC  H19S 2915  -0.279   6.054   9.904 -1.7923 -1.9866  1.6950
   22SAPC  C220 2916  -0.493   6.060   9.915 -0.7072  0.0754  0.6758
   22SAPC  H20R 2917  -0.577   6.115   9.868 -0.6229 -0.9757 -0.7573
   22SAPC  H20S 2918  -0.480   6.118  10.009 -0.8558  1.9524 -0.4104
   22SAPC  H20T 2919  -0.514   5.952   9.934 -0.6250 -0.3695 -1.5080
   22SAPC   C33 2920   0.160   6.305   9.938 -0.3501  0.1853  0.1106
   22SAPC   H3X 2921   0.223   6.218   9.914  1.9178  1.3230  1.6013
   22SAPC   H3Y 2922   0.228   6.383   9.897 -0.3998  0.3460  0.3324
   22SAPC   C34 2923   0.024   6.301   9.862 -0.2434 -0.5001 -0.5316
   22SAPC   H4X 2924  -0.034   6.389   9.896 -1.4518 -1.8637  1.1333
   22SAPC   H4Y 2925  -0.029   6.208   9.894  0.4109 -0.7028 -0.0221
   22SAPC   C35 2926   0.048   6.293   9.714  0.0773  0.5057  0.6179
   22SAPC   H5X 2927   0.085   6.195   9.677 -1.2558  0.5712 -1.0229
   22SAPC   H5Y 2928   0.134   6.360   9.687  1.0188 -0.8111  0.2584
   22SAPC   C36 2929  -0.080   6.327   9.636  0.4559 -0.1240 -0.4461
   22SAPC   H6X 2930  -0.121   6.421   9.678  1.8389  0.8758 -1.2637
   22SAPC   H6Y 2931  -0.149   6.242   9.651 -0.3367  0.4844 -0.6103
   22SAPC   C37 2932  -0.061   6.352   9.488 -0.1272  0.0642  0.3369
   22SAPC   H7X 2933   0.019   6.288   9.445 -0.0857 -1.1103  2.0808
   22SAPC   H7Y 2934  -0.037   6.460   9.473 -0.5110  0.1768  0.5044
   22SAPC   C38 2935  -0.186   6.323   9.404 -0.8164  0.0845 -0.4516
   22SAPC   H8X 2936  -0.268   6.396   9.419 -0.6481  0.0758  0.5638
   22SAPC   H8Y 2937  -0.223   6.222   9.429  0.6195  0.1831  2.4253
   22SAPC   C39 2938  -0.153   6.329   9.254  0.1622 -0.5654  0.4137
   22SAPC   H9X 2939  -0.068   6.260   9.243  2.0750  1.8214 -0.7017
   22SAPC   H9Y 2940  -0.107   6.428   9.231  0.5380 -1.0988 -1.2064
   22SAPC  C310 2941  -0.274   6.298   9.167 -0.0096  0.4104  0.5297
   22SAPC  H10X 2942  -0.347   6.382   9.170  0.7045  1.0598  0.2125
   22SAPC  H10Y 2943  -0.320   6.205   9.206  1.4396 -0.2422  0.7542
   22SAPC  C311 2944  -0.240   6.271   9.013  0.4384  0.0692 -0.0848
   22SAPC  H11X 2945  -0.341   6.265   8.967  0.0095 -2.1545  1.0396
   22SAPC  H11Y 2946  -0.194   6.171   9.002 -0.0564 -0.2935  1.0596
   22SAPC  C312 2947  -0.131   6.354   8.950 -0.3849 -0.3294  0.2185
   22SAPC  H12X 2948  -0.037   6.348   9.009  1.1161  2.6855 -1.6723
   22SAPC  H12Y 2949  -0.158   6.462   8.954  1.4683  0.1338  2.5029
   22SAPC  C313 2950  -0.099   6.318   8.813  0.2239  0.4622 -0.2981
   22SAPC  H13X 2951  -0.180   6.351   8.745  0.2179 -0.5000 -0.7773
   22SAPC  H13Y 2952  -0.090   6.208   8.801 -3.5964 -0.1158  0.7605
   22SAPC  C314 2953   0.031   6.380   8.762  0.0537 -0.0079 -0.0345
   22SAPC  H14X 2954   0.106   6.335   8.831  1.2924  0.4924 -1.0235
   22SAPC  H14Y 2955   0.043   6.490   8.774 -0.2664  0.2491 -1.7778
   22SAPC  C315 2956   0.063   6.340   8.625 -0.7587 -0.5094 -0.3492
   22SAPC  H15X 2957  -0.000   6.393   8.551  0.9975 -3.0127 -3.9206
   22SAPC  H15Y 2958   0.061   6.230   8.609  4.6185 -1.2130  1.8938
   22SAPC  C316 2959   0.204   6.370   8.579 -0.5216  0.3385 -0.2160
   22SAPC  H16X 2960   0.273   6.340   8.661  0.1767 -0.5380 -1.0934
   22SAPC  H16Y 2961   0.217   6.479   8.568  1.9414 -0.0562 -2.0482
   22SAPC  C317 2962   0.260   6.295   8.457  0.5773  0.2194  0.0513
   22SAPC  H17X 2963   0.179   6.296   8.380 -1.0950 -0.9171  1.7045
   22SAPC  H17Y 2964   0.278   6.190   8.488 -1.0132 -0.6179 -1.6443
   22SAPC  C318 2965   0.391   6.342   8.387  0.1671 -0.9176  0.3992
   22SAPC  H18X 2966   0.383   6.446   8.348 -1.6296 -1.5220 -0.9814
   22SAPC  H18Y 2967   0.407   6.282   8.295  4.2730 -0.2345  0.4831
   22SAPC  H18Z 2968   0.483   6.326   8.447  1.0132 -0.7848 -0.8155
   23SAPC     N 2969   3.801   4.471  11.136 -0.4038 -0.0765  0.5654
   23SAPC   C12 2970   3.692   4.486  11.030 -0.1668 -0.8746 -0.7257
   23SAPC  H12A 2971   3.609   4.541  11.071  1.0151  1.5709 -1.4408
   23SAPC  H12B 2972   3.644   4.390  11.015 -2.1926  0.1156 -0.8107
   23SAPC   C13 2973   3.740   4.415  11.267 -0.8419 -0.6615  0.1877
   23SAPC  H13A 2974   3.804   4.357  11.332  0.6741  3.0638  2.3269
   23SAPC  H13B 2975   3.708   4.496  11.331 -0.9959 -0.1538 -0.5187
   23SAPC  H13C 2976   3.657   4.350  11.242 -1.8554  0.7237 -0.1944
   23SAPC   C14 2977   3.911   4.379  11.087  0.0770  0.3189 -0.0221
   23SAPC  H14A 2978   3.946   4.419  10.993 -1.8182  2.9612  0.2528
   23SAPC  H14B 2979   3.987   4.375  11.163  1.2970 -0.9883 -1.2702
   23SAPC  H14C 2980   3.862   4.284  11.071  0.6678 -0.1432  0.8514
   23SAPC   C15 2981   3.875   4.591  11.183 -0.0825 -0.6378  0.2269
   23SAPC  H15A 2982   3.799   4.661  11.214 -0.6282 -0.4619 -1.3874
   23SAPC  H15B 2983   3.936   4.573  11.270 -1.3039 -2.1990  0.8070
   23SAPC  H15C 2984   3.942   4.630  11.108  0.7519  0.9662  1.7239
   23SAPC   C11 2985   3.721   4.553  10.889 -0.3772 -0.6822 -0.1584
   23SAPC  H11A 2986   3.626   4.567  10.835 -1.4447  1.7946  2.1543
   23SAPC  H11B 2987   3.789   4.484  10.835  0.6599  1.2066 -1.3545
   23SAPC     P 2988   3.883   4.754  10.815  0.3221 -0.2637  0.0962
   23SAPC   O13 2989   3.850   4.897  10.824 -0.2997  0.0891  0.0579
   23SAPC   O14 2990   4.018   4.725  10.861  0.7337 -0.4142 -0.4676
   23SAPC   O12 2991   3.780   4.679  10.907 -0.2505  0.0827  0.6365
   23SAPC   O11 2992   3.859   4.697  10.670 -0.2325  0.0628  0.5378
   23SAPC    C1 2993   3.959   4.654  10.579 -0.5784  0.6902  0.2156
   23SAPC    HA 2994   4.059   4.649  10.627 -0.3172 -0.4187 -0.4068
   23SAPC    HB 2995   3.947   4.545  10.561  1.1280  0.6180 -0.7713
   23SAPC    C2 2996   3.961   4.732  10.448 -0.3157 -0.6102 -0.1691
   23SAPC    HS 2997   4.020   4.681  10.368 -0.2354  0.4660 -0.8031
   23SAPC   O21 2998   4.018   4.861  10.468  0.4186 -0.2987  0.1170
   23SAPC   C21 2999   4.144   4.878  10.476 -0.0870  0.6541 -0.0423
   23SAPC   O22 3000   4.223   4.779  10.474 -0.3241 -0.7076  0.8840
   23SAPC   C22 3001   4.196   5.032  10.479 -0.3804 -0.6188  0.1054
   23SAPC   H2R 3002   4.210   5.050  10.588  0.0084  1.6786 -0.2813
   23SAPC   H2S 3003   4.297   5.036  10.435 -0.3970 -0.2355  0.0988
   23SAPC    C3 3004   3.823   4.750  10.379  0.6079  0.3110  0.0261
   23SAPC    HX 3005   3.751   4.769  10.461  1.6081  2.4990  0.4852
   23SAPC    HY 3006   3.797   4.656  10.325  0.0881  0.0614  0.7051
   23SAPC   O31 3007   3.811   4.871  10.304  0.3752  0.0276  0.0203
   23SAPC   C31 3008   3.863   4.853  10.178  0.0433 -0.6887 -0.6209
   23SAPC   O32 3009   3.931   4.753  10.150 -0.5387  0.1328 -0.7197
   23SAPC   C32 3010   3.843   4.975  10.082  0.0321 -0.0204 -0.2746
   23SAPC   H2X 3011   3.921   5.052  10.102  0.0846 -0.4505  1.2843
   23SAPC   H2Y 3012   3.741   5.017  10.097 -0.0850 -0.5421  0.4593
   23SAPC   C23 3013   4.104   5.127  10.407 -0.2583 -0.9308 -0.9807
   23SAPC   H3R 3014   3.997   5.109  10.431 -0.2915  0.8350  0.3175
   23SAPC   H3S 3015   4.118   5.117  10.297  1.4304 -0.8636 -0.8039
   23SAPC   C24 3016   4.135   5.268  10.443 -0.2824  0.4542 -0.5265
   23SAPC   H4R 3017   4.127   5.285  10.553  0.1892  1.9482 -0.6987
   23SAPC   H4S 3018   4.050   5.332  10.409 -2.5067 -1.1830  1.5696
   23SAPC   C25 3019   4.262   5.320  10.383  0.4507 -0.3715 -0.4526
   23SAPC   H5R 3020   4.349   5.329  10.450  0.3498 -2.6969  0.0840
   23SAPC   C26 3021   4.278   5.363  10.259 -0.3535 -0.0168  0.2472
   23SAPC   H6R 3022   4.380   5.388  10.225 -0.3091 -1.6185 -0.8864
   23SAPC   C27 3023   4.174   5.373  10.154  0.7562  0.2029  0.6669
   23SAPC   H7R 3024   4.096   5.299  10.181  0.0029  0.0150 -1.7914
   23SAPC   H7S 3025   4.225   5.341  10.061 -1.3316 -0.7157 -0.2214
   23SAPC   C28 3026   4.113   5.510  10.135  0.3366  0.5870 -0.4505
   23SAPC   H8R 3027   4.075   5.570  10.219 -0.0710 -0.1806 -0.0749
   23SAPC   C29 3028   4.092   5.570  10.017  0.4861 -0.0215 -0.1449
   23SAPC   H9R 3029   4.035   5.664  10.018 -0.2292 -0.4386  1.4875
   23SAPC  C210 3030   4.131   5.514   9.880 -0.2648  0.4644 -0.0070
   23SAPC  H10R 3031   4.225   5.458   9.898 -0.5328  0.4279  1.4520
   23SAPC  H10S 3032   4.144   5.597   9.808 -0.9808  0.2107 -0.4373
   23SAPC  C211 3033   4.035   5.412   9.822  0.3735 -0.4489 -0.1621
   23SAPC  H11R 3034   3.964   5.367   9.892 -0.9820  0.9495 -0.5899
   23SAPC  C212 3035   4.017   5.383   9.698 -0.0381 -0.5522 -0.6310
   23SAPC  H12R 3036   3.935   5.312   9.681 -0.9609  0.7158 -1.6729
   23SAPC  C213 3037   4.092   5.429   9.577 -0.5725  0.3000 -0.0254
   23SAPC  H13R 3038   4.186   5.369   9.577 -0.5599  0.3197 -0.0358
   23SAPC  H13S 3039   4.113   5.536   9.600 -1.7626  0.4284  0.5235
   23SAPC  C214 3040   4.009   5.420   9.448  0.5778  0.5216  0.1364
   23SAPC  H14R 3041   3.933   5.500   9.443  1.7874  1.6519 -3.3634
   23SAPC  C215 3042   4.038   5.353   9.337 -0.1847 -0.3394  0.2315
   23SAPC  H15R 3043   3.969   5.364   9.252  0.2332 -2.6914 -0.4946
   23SAPC  C216 3044   4.162   5.273   9.312 -0.2840  0.4287  0.7006
   23SAPC  H16R 3045   4.146   5.206   9.224 -1.2354  1.7618 -0.1800
   23SAPC  H16S 3046   4.183   5.203   9.396 -0.7961  0.4522  0.8501
   23SAPC  C217 3047   4.281   5.363   9.280  0.5658  0.3447 -0.1768
   23SAPC  H17R 3048   4.295   5.432   9.366 -1.6830  2.2088 -1.1738
   23SAPC  H17S 3049   4.237   5.430   9.202 -1.4791  0.1147  0.6927
   23SAPC  C218 3050   4.410   5.293   9.241 -0.3939  0.4636 -0.0722
   23SAPC  H18R 3051   4.423   5.205   9.306 -3.3159  0.0092  0.0467
   23SAPC  H18S 3052   4.492   5.365   9.260  2.7103 -2.7616 -0.1730
   23SAPC  C219 3053   4.416   5.258   9.088 -0.4223  0.0422  0.1160
   23SAPC  H19R 3054   4.348   5.322   9.028  1.2490  0.9045 -0.9483
   23SAPC  H19S 3055   4.391   5.149   9.092  0.3528 -0.1119  0.9832
   23SAPC  C220 3056   4.553   5.292   9.019  0.3748 -0.2582  0.1268
   23SAPC  H20R 3057   4.625   5.222   9.067  0.4581 -0.6413 -0.5414
   23SAPC  H20S 3058   4.577   5.400   9.027  0.0254 -0.1771  0.0989
   23SAPC  H20T 3059   4.555   5.264   8.912  0.0038  0.3729 -0.0509
   23SAPC   C33 3060   3.851   4.924   9.937  0.6962  0.4803  0.5083
   23SAPC   H3X 3061   3.780   4.845   9.904  2.4730 -0.2220 -1.9833
   23SAPC   H3Y 3062   3.941   4.862   9.916 -1.9484 -3.9432  1.0233
   23SAPC   C34 3063   3.844   5.035   9.820 -0.3126 -0.0619 -0.1723
   23SAPC   H4X 3064   3.930   5.104   9.837 -3.5394  4.1674  0.6144
   23SAPC   H4Y 3065   3.749   5.092   9.818 -0.1604  0.1805 -0.6169
   23SAPC   C35 3066   3.872   4.983   9.681  0.0356  0.1152  0.0519
   23SAPC   H5X 3067   3.955   4.909   9.689  1.0962  1.1472 -0.8838
   23SAPC   H5Y 3068   3.925   5.061   9.621  1.0632 -0.2927  0.3987
   23SAPC   C36 3069   3.751   4.933   9.614  0.7983  0.1344  0.2590
   23SAPC   H6X 3070   3.679   5.017   9.617  0.1212 -0.4121 -0.3126
   23SAPC   H6Y 3071   3.715   4.852   9.681  1.9945  0.9334  1.9479
   23SAPC   C37 3072   3.762   4.880   9.469 -0.9537  0.2081 -0.0298
   23SAPC   H7X 3073   3.676   4.811   9.456 -0.6572 -0.3381  0.8370
   23SAPC   H7Y 3074   3.845   4.806   9.459 -0.3787  0.8601 -0.1502
   23SAPC   C38 3075   3.788   4.991   9.367 -0.9282 -0.0570  0.7227
   23SAPC   H8X 3076   3.884   5.037   9.400  1.2459 -2.4802 -1.7028
   23SAPC   H8Y 3077   3.696   5.054   9.377  0.5627  2.1397  1.4870
   23SAPC   C39 3078   3.824   4.919   9.235  0.3891 -0.2399  0.4446
   23SAPC   H9X 3079   3.734   4.864   9.200  0.8283 -0.3886 -0.4798
   23SAPC   H9Y 3080   3.902   4.842   9.251  0.0059 -1.1784 -1.7249
   23SAPC  C310 3081   3.887   5.006   9.123 -0.0720  0.4415  0.3695
   23SAPC  H10X 3082   3.970   5.061   9.173 -1.0661 -0.6463  3.4812
   23SAPC  H10Y 3083   3.817   5.078   9.075  1.5175  0.8558 -1.4511
   23SAPC  C311 3084   3.954   4.917   9.021 -0.2241 -0.4461  0.0407
   23SAPC  H11X 3085   3.877   4.850   8.977  0.0287 -0.4339 -0.4242
   23SAPC  H11Y 3086   4.017   4.851   9.086  1.7060  1.8009  0.6071
   23SAPC  C312 3087   4.048   4.982   8.915  1.0862 -0.5193  0.1203
   23SAPC  H12X 3088   4.134   5.023   8.972 -0.7213  1.2641  1.7236
   23SAPC  H12Y 3089   3.988   5.064   8.870 -0.2158 -1.3952  0.2109
   23SAPC  C313 3090   4.093   4.883   8.806 -0.4070 -0.0128 -0.4489
   23SAPC  H13X 3091   4.093   4.779   8.845 -2.0070 -0.0219 -0.4150
   23SAPC  H13Y 3092   4.190   4.920   8.766 -0.9905  1.8471 -0.2218
   23SAPC  C314 3093   3.989   4.881   8.692 -0.0098 -0.3261  0.1799
   23SAPC  H14X 3094   3.980   4.983   8.649  2.7830 -0.4004 -0.7992
   23SAPC  H14Y 3095   3.888   4.859   8.732  0.5196  0.0635  1.8346
   23SAPC  C315 3096   4.031   4.789   8.584  1.1551  0.3969  0.6519
   23SAPC  H15X 3097   4.045   4.687   8.623 -0.2734 -0.3663 -0.6952
   23SAPC  H15Y 3098   4.129   4.809   8.536  0.9656  0.3687  0.2402
   23SAPC  C316 3099   3.927   4.770   8.475  0.5257 -0.1773  0.5704
   23SAPC  H16X 3100   3.888   4.867   8.435  1.8826  0.0759 -0.1994
   23SAPC  H16Y 3101   3.831   4.742   8.523 -1.0114 -1.2974 -2.8892
   23SAPC  C317 3102   3.949   4.667   8.360 -0.2264  0.3293  0.3942
   23SAPC  H17X 3103   4.054   4.670   8.325 -0.0455 -2.9027  0.2864
   23SAPC  H17Y 3104   3.878   4.698   8.281 -1.4713  0.1165  1.3810
   23SAPC  C318 3105   3.937   4.526   8.403  0.1769 -0.1013  0.5158
   23SAPC  H18X 3106   3.959   4.455   8.320 -2.6781  0.8940 -1.2569
   23SAPC  H18Y 3107   3.834   4.493   8.430  1.0891 -3.5404  0.2548
   23SAPC  H18Z 3108   4.004   4.500   8.488  0.3301  1.3016  0.8468
   24SAPC     N 3109   1.039   3.296  11.063 -0.2313 -0.5503  0.1519
   24SAPC   C12 3110   0.987   3.214  10.953 -0.3020  0.1883 -0.2822
   24SAPC  H12A 3111   1.020   3.259  10.861 -0.7829  0.4021 -0.3547
   24SAPC  H12B 3112   0.879   3.214  10.951 -0.3203  2.1741 -1.0628
   24SAPC   C13 3113   1.188   3.273  11.062 -0.1396  0.2199 -0.0422
   24SAPC  H13A 3114   1.230   3.292  10.964 -0.1837  2.4149  0.3172
   24SAPC  H13B 3115   1.232   3.336  11.137  2.3639  2.1380 -2.8793
   24SAPC  H13C 3116   1.213   3.173  11.096  0.6118  0.5442  0.3796
   24SAPC   C14 3117   1.015   3.442  11.036  0.3680 -0.6208  0.3128
   24SAPC  H14A 3118   1.069   3.474  10.948 -1.2317  0.2258 -0.3982
   24SAPC  H14B 3119   0.912   3.466  11.017  0.8044  0.6328 -0.6154
   24SAPC  H14C 3120   1.037   3.509  11.118  0.4119 -0.4038  0.1250
   24SAPC   C15 3121   0.995   3.251  11.190  0.7833  0.5099  0.4880
   24SAPC  H15A 3122   1.014   3.144  11.194  0.1628  0.4166  1.2865
   24SAPC  H15B 3123   1.048   3.300  11.271 -2.0522 -0.0735  2.8919
   24SAPC  H15C 3124   0.894   3.278  11.214  0.5865  0.7830 -0.6065
   24SAPC   C11 3125   1.028   3.064  10.940 -0.6064  0.6204 -0.4459
   24SAPC  H11A 3126   1.138   3.065  10.923 -0.6579  2.3281 -0.8953
   24SAPC  H11B 3127   0.977   3.025  10.849 -0.7485 -0.5596  0.1232
   24SAPC     P 3128   0.851   2.930  11.068  0.5016 -0.2897  0.1738
   24SAPC   O13 3129   0.848   2.811  11.154  0.0190  0.3420 -0.1153
   24SAPC   O14 3130   0.755   3.038  11.100 -0.0630  0.2571  0.0513
   24SAPC   O12 3131   0.997   2.982  11.056 -0.9023 -0.1467  0.3639
   24SAPC   O11 3132   0.810   2.890  10.921  0.2690 -0.3599  0.6240
   24SAPC    C1 3133   0.836   2.763  10.856  0.8748  0.5245 -0.0688
   24SAPC    HA 3134   0.943   2.756  10.831  0.2741 -1.6349 -2.3842
   24SAPC    HB 3135   0.815   2.679  10.926 -0.8155  0.2827 -0.8122
   24SAPC    C2 3136   0.756   2.745  10.729 -0.0875  0.5047 -0.3724
   24SAPC    HS 3137   0.773   2.641  10.694 -2.3704  0.1685 -0.6459
   24SAPC   O21 3138   0.794   2.837  10.625  0.4237  0.0897 -0.1522
   24SAPC   C21 3139   0.907   2.803  10.563 -0.0002 -0.2131  0.4241
   24SAPC   O22 3140   0.978   2.707  10.583  0.3352  0.1913  0.2561
   24SAPC   C22 3141   0.931   2.910  10.460 -0.1196 -0.4714 -0.0579
   24SAPC   H2R 3142   0.835   2.940  10.413  0.1095  1.5284  0.6167
   24SAPC   H2S 3143   0.965   2.999  10.518 -0.5387 -0.9152  0.8949
   24SAPC    C3 3144   0.612   2.769  10.762 -0.5693  0.1517  0.6764
   24SAPC    HX 3145   0.587   2.876  10.775 -1.3155 -0.2058  2.5219
   24SAPC    HY 3146   0.582   2.728  10.861 -1.0210 -2.2711 -0.3802
   24SAPC   O31 3147   0.529   2.713  10.658  0.2595 -0.1782  0.2300
   24SAPC   C31 3148   0.458   2.600  10.691  0.2327 -0.4616  0.4831
   24SAPC   O32 3149   0.475   2.532  10.786  0.0777  0.0479  0.1226
   24SAPC   C32 3150   0.376   2.567  10.559  0.6042  0.2840 -0.0366
   24SAPC   H2X 3151   0.310   2.652  10.533 -1.5361 -1.8152 -1.9648
   24SAPC   H2Y 3152   0.311   2.478  10.575  2.4123 -1.5155 -2.2002
   24SAPC   C23 3153   1.029   2.883  10.348  0.0225 -0.3911 -0.3178
   24SAPC   H3R 3154   0.993   2.824  10.261 -2.0059 -0.1982  0.3579
   24SAPC   H3S 3155   1.113   2.821  10.387  1.2893  0.4624 -1.5675
   24SAPC   C24 3156   1.090   3.014  10.293  0.1267  0.2157  0.6742
   24SAPC   H4R 3157   1.158   2.975  10.214 -0.8606 -1.8484  0.7732
   24SAPC   H4S 3158   1.156   3.046  10.376  0.7979 -3.0552  1.5586
   24SAPC   C25 3159   1.006   3.120  10.241  0.9732 -0.0416  0.3609
   24SAPC   H5R 3160   0.925   3.158  10.306  0.0844  1.5182 -1.5541
   24SAPC   C26 3161   1.000   3.160  10.112 -0.1486  0.4957  0.4472
   24SAPC   H6R 3162   0.912   3.221  10.087  1.8730  3.0825 -0.7318
   24SAPC   C27 3163   1.069   3.110   9.984  0.0396  0.0413 -0.1386
   24SAPC   H7R 3164   0.995   3.057   9.921  0.3068 -0.7377  0.1874
   24SAPC   H7S 3165   1.157   3.043   9.998  0.3499  0.0674 -1.8470
   24SAPC   C28 3166   1.124   3.230   9.920 -0.1385  0.6442  0.6974
   24SAPC   H8R 3167   1.087   3.326   9.958  1.2848  1.7505 -0.6241
   24SAPC   C29 3168   1.216   3.235   9.820  0.5370  0.6908  0.1732
   24SAPC   H9R 3169   1.265   3.330   9.796 -1.0176  0.9012 -2.6053
   24SAPC  C210 3170   1.286   3.131   9.733 -0.2682  0.0587 -0.8861
   24SAPC  H10R 3171   1.289   3.042   9.800 -3.2211 -0.4720 -1.3148
   24SAPC  H10S 3172   1.392   3.162   9.731 -0.0564 -0.2141  1.8512
   24SAPC  C211 3173   1.223   3.100   9.598 -0.6043 -0.1799 -0.9562
   24SAPC  H11R 3174   1.114   3.085   9.605 -0.4803 -0.9400 -0.3772
   24SAPC  C212 3175   1.275   3.087   9.479  0.9579  0.1254 -0.5614
   24SAPC  H12R 3176   1.206   3.054   9.401 -1.6999 -1.6188  2.2779
   24SAPC  C213 3177   1.418   3.096   9.439 -0.2133 -0.1765  0.1324
   24SAPC  H13R 3178   1.477   3.140   9.522 -0.2110 -0.5837  0.3510
   24SAPC  H13S 3179   1.419   3.176   9.361 -0.0181  2.8976  3.0690
   24SAPC  C214 3180   1.478   2.974   9.392  0.1089  0.0363 -0.6403
   24SAPC  H14R 3181   1.495   2.889   9.460  1.0069  1.1567  0.6038
   24SAPC  C215 3182   1.524   2.950   9.266  0.0168 -0.0071 -0.9103
   24SAPC  H15R 3183   1.561   2.851   9.234  2.2450  0.1472  0.9281
   24SAPC  C216 3184   1.519   3.045   9.152 -0.0039 -0.2451 -0.1566
   24SAPC  H16R 3185   1.519   3.151   9.186  1.3733 -0.7926  1.7114
   24SAPC  H16S 3186   1.452   3.019   9.067  1.5338 -1.2737 -1.1090
   24SAPC  C217 3187   1.652   3.041   9.080  0.5891  0.0650 -0.3013
   24SAPC  H17R 3188   1.736   3.027   9.153 -1.8639 -0.0751  2.7029
   24SAPC  H17S 3189   1.663   3.135   9.022  0.8267  0.3767  0.2389
   24SAPC  C218 3190   1.654   2.927   8.968 -0.8983  0.2626 -1.1709
   24SAPC  H18R 3191   1.560   2.940   8.911 -0.8390  0.5219 -1.2129
   24SAPC  H18S 3192   1.648   2.833   9.028  0.7780 -0.4733 -2.0854
   24SAPC  C219 3193   1.772   2.938   8.877  0.2186  0.6033  0.3365
   24SAPC  H19R 3194   1.860   2.913   8.940  0.4654 -0.1983 -0.3076
   24SAPC  H19S 3195   1.799   3.043   8.854  0.7793  0.8003  1.7720
   24SAPC  C220 3196   1.765   2.849   8.750 -0.1820 -0.7367  0.0942
   24SAPC  H20R 3197   1.755   2.743   8.783 -1.7490 -1.1752 -1.6331
   24SAPC  H20S 3198   1.855   2.854   8.686 -1.0049  1.3779 -0.9819
   24SAPC  H20T 3199   1.682   2.886   8.686 -0.0584  1.5212  1.1348
   24SAPC   C33 3200   0.469   2.552  10.441 -0.1245  1.0726  0.6302
   24SAPC   H3X 3201   0.568   2.512  10.469  0.4098  2.1554  0.3438
   24SAPC   H3Y 3202   0.486   2.643  10.379 -2.4790 -0.0208 -1.8532
   24SAPC   C34 3203   0.416   2.446  10.345  0.2737  0.5599  0.4866
   24SAPC   H4X 3204   0.409   2.343  10.383 -1.3691  0.4910  0.0835
   24SAPC   H4Y 3205   0.492   2.439  10.264  0.8605  2.7347  0.7771
   24SAPC   C35 3206   0.276   2.480  10.289  0.3146  0.2523  0.0946
   24SAPC   H5X 3207   0.291   2.580  10.241  1.5310  0.5885  1.1330
   24SAPC   H5Y 3208   0.209   2.500  10.375 -0.3396  0.8929 -0.5373
   24SAPC   C36 3209   0.229   2.391  10.174  0.5795  0.2682  0.2193
   24SAPC   H6X 3210   0.140   2.437  10.126  0.4407  1.0169  1.1613
   24SAPC   H6Y 3211   0.205   2.290  10.213  1.5386  0.1702  0.5837
   24SAPC   C37 3212   0.320   2.370  10.050  0.3814  0.4635 -0.6137
   24SAPC   H7X 3213   0.268   2.307   9.976  2.8034  0.4670 -2.4500
   24SAPC   H7Y 3214   0.400   2.304  10.091 -0.6772 -0.7559 -0.4892
   24SAPC   C38 3215   0.369   2.490   9.974 -0.0621  0.2699  0.2133
   24SAPC   H8X 3216   0.451   2.540  10.031  0.6601 -0.9373  0.2752
   24SAPC   H8Y 3217   0.279   2.554   9.963 -0.1633  0.6073  2.3987
   24SAPC   C39 3218   0.437   2.445   9.837  0.0452  0.2225 -0.0585
   24SAPC   H9X 3219   0.520   2.375   9.854  0.0127  0.1661 -0.1342
   24SAPC   H9Y 3220   0.486   2.537   9.799  1.8224 -0.7445 -0.1914
   24SAPC  C310 3221   0.336   2.391   9.737 -0.4823  0.1791 -0.1936
   24SAPC  H10X 3222   0.252   2.464   9.736  0.8034  1.7342 -0.4669
   24SAPC  H10Y 3223   0.299   2.290   9.762 -0.0934  0.1347  0.2244
   24SAPC  C311 3224   0.382   2.384   9.589  0.7901 -0.2875  0.5668
   24SAPC  H11X 3225   0.465   2.311   9.576  2.1490  1.2383  0.3991
   24SAPC  H11Y 3226   0.408   2.488   9.560 -0.3461  0.0388  0.6777
   24SAPC  C312 3227   0.269   2.346   9.490 -0.4090  0.4783  0.1967
   24SAPC  H12X 3228   0.211   2.440   9.475  1.7663  1.7131 -0.8264
   24SAPC  H12Y 3229   0.204   2.267   9.534  0.0102 -1.8322 -2.9995
   24SAPC  C313 3230   0.304   2.294   9.350 -0.0531 -0.3060 -0.0551
   24SAPC  H13X 3231   0.359   2.198   9.357 -0.9146 -0.8563 -0.6370
   24SAPC  H13Y 3232   0.377   2.360   9.297  0.4875 -2.7549 -2.5878
   24SAPC  C314 3233   0.172   2.295   9.258 -0.0946 -0.4862 -0.4240
   24SAPC  H14X 3234   0.116   2.390   9.270  0.3417 -0.0813 -1.4223
   24SAPC  H14Y 3235   0.116   2.213   9.307 -0.4129  0.2260  0.4364
   24SAPC  C315 3236   0.192   2.263   9.114 -0.2453 -0.5279  0.0339
   24SAPC  H15X 3237   0.089   2.274   9.075  0.4085  1.6184 -1.2133
   24SAPC  H15Y 3238   0.220   2.155   9.110  0.6300 -0.3589  1.0481
   24SAPC  C316 3239   0.288   2.359   9.034  0.0516  0.2585 -0.8107
   24SAPC  H16X 3240   0.392   2.333   9.063 -0.4048  2.1243  3.0964
   24SAPC  H16Y 3241   0.275   2.462   9.071 -0.0467  0.7742 -2.2157
   24SAPC  C317 3242   0.267   2.361   8.887 -0.2872  0.8524  0.4684
   24SAPC  H17X 3243   0.264   2.260   8.840 -1.4005  1.5608 -1.0788
   24SAPC  H17Y 3244   0.358   2.408   8.844  0.6277 -1.9406 -0.9217
   24SAPC  C318 3245   0.146   2.444   8.843 -0.1496 -0.0016 -0.6770
   24SAPC  H18X 3246   0.152   2.547   8.884  0.3947 -0.3815  0.2319
   24SAPC  H18Y 3247   0.061   2.388   8.886  0.9970 -0.1598  1.5848
   24SAPC  H18Z 3248   0.140   2.455   8.733  0.9440  6.0875 -0.4839
   25SAPC     N 3249   5.599   0.313   5.973  0.0244  0.5432 -0.2470
   25SAPC   C12 3250   5.629   0.205   5.874  0.1179  0.0527 -0.0638
   25SAPC  H12A 3251   5.735   0.186   5.878 -0.0600 -0.8194  1.0031
   25SAPC  H12B 3252   5.606   0.242   5.775 -1.2325  2.0012  0.8994
   25SAPC   C13 3253   5.448   0.330   5.977  0.0346 -0.3383  0.1101
   25SAPC  H13A 3254   5.420   0.371   5.881  1.5647  0.1225 -0.1766
   25SAPC  H13B 3255   5.399   0.234   5.985 -1.2326  0.2685 -0.2860
   25SAPC  H13C 3256   5.419   0.392   6.061  0.3219 -0.2047  0.1126
   25SAPC   C14 3257   5.648   0.265   6.103 -0.0613  0.2899  0.4878
   25SAPC  H14A 3258   5.755   0.255   6.093  0.2280  3.2011 -0.4319
   25SAPC  H14B 3259   5.616   0.317   6.193 -0.1993 -1.4414  1.4783
   25SAPC  H14C 3260   5.599   0.170   6.115 -0.4011  0.5480  1.2187
   25SAPC   C15 3261   5.669   0.446   5.936 -0.3189  0.5594  0.4293
   25SAPC  H15A 3262   5.627   0.482   5.843  1.0259  0.4676 -0.2319
   25SAPC  H15B 3263   5.667   0.523   6.011 -2.3418 -0.4084  1.4402
   25SAPC  H15C 3264   5.771   0.413   5.923 -0.2829  0.0026  1.9686
   25SAPC   C11 3265   5.553   0.066   5.886 -0.0552 -0.2733  0.1242
   25SAPC  H11A 3266   5.582   0.006   5.798  1.8282  0.7411 -0.0118
   25SAPC  H11B 3267   5.444   0.084   5.892  0.0555  2.4120 -2.9170
   25SAPC     P 3268   5.549  -0.153   6.019 -0.2952 -0.0257 -0.8627
   25SAPC   O13 3269   5.442  -0.171   5.923  0.5362 -0.6723  0.1422
   25SAPC   O14 3270   5.674  -0.232   6.004  0.6181 -0.1650  0.4482
   25SAPC   O12 3271   5.585   0.005   6.015  0.4931 -0.0874  0.0346
   25SAPC   O11 3272   5.485  -0.178   6.164 -0.4305 -0.5846 -0.1506
   25SAPC    C1 3273   5.472  -0.072   6.256  0.3386 -0.0423  0.1166
   25SAPC    HA 3274   5.461  -0.116   6.358 -1.2550 -2.4597 -1.0158
   25SAPC    HB 3275   5.563  -0.008   6.257  0.0407  0.3843  0.9679
   25SAPC    C2 3276   5.343   0.009   6.247 -0.6007  0.0819 -0.6835
   25SAPC    HS 3277   5.348   0.079   6.161  2.2993  0.8305 -0.0323
   25SAPC   O21 3278   5.327   0.076   6.373 -0.4220  0.2795  0.2699
   25SAPC   C21 3279   5.245   0.187   6.370  0.1653  0.3571  0.1583
   25SAPC   O22 3280   5.179   0.218   6.272 -0.2631  0.3689  0.0118
   25SAPC   C22 3281   5.245   0.255   6.510  0.2328 -0.3354 -0.1817
   25SAPC   H2R 3282   5.240   0.183   6.595 -1.2349  0.9022  0.8444
   25SAPC   H2S 3283   5.340   0.311   6.495  0.9831 -1.6444 -0.5084
   25SAPC    C3 3284   5.222  -0.090   6.235 -1.2174 -0.7826  0.1946
   25SAPC    HX 3285   5.232  -0.156   6.146 -0.9019 -4.0438  2.4749
   25SAPC    HY 3286   5.128  -0.032   6.223 -0.7134 -0.1824 -1.1337
   25SAPC   O31 3287   5.203  -0.175   6.347  0.2793  0.6411 -0.0090
   25SAPC   C31 3288   5.114  -0.140   6.441 -1.1659  0.6990 -0.1049
   25SAPC   O32 3289   5.052  -0.033   6.441  0.4871  0.4408 -0.8394
   25SAPC   C32 3290   5.108  -0.250   6.554 -0.2784 -0.1846 -0.0966
   25SAPC   H2X 3291   5.127  -0.355   6.522  0.2520 -0.3200  0.6511
   25SAPC   H2Y 3292   5.008  -0.239   6.601  0.7722  2.2491  1.7794
   25SAPC   C23 3293   5.130   0.356   6.543  0.4869 -0.1918 -0.4025
   25SAPC   H3R 3294   5.036   0.299   6.554  0.1356  0.4827  0.1084
   25SAPC   H3S 3295   5.117   0.429   6.460 -3.1163 -0.3509 -0.0982
   25SAPC   C24 3296   5.173   0.432   6.670  0.4916 -0.7314 -0.3054
   25SAPC   H4R 3297   5.174   0.356   6.751 -0.3521  0.5102  0.9253
   25SAPC   H4S 3298   5.093   0.500   6.706 -1.5519 -2.2857 -1.6713
   25SAPC   C25 3299   5.293   0.519   6.657 -0.6903  0.2964  0.8549
   25SAPC   H5R 3300   5.300   0.565   6.557 -0.5253 -1.2141  0.1509
   25SAPC   C26 3301   5.380   0.542   6.752 -0.0788 -0.0455  0.3999
   25SAPC   H6R 3302   5.472   0.595   6.725 -1.0667  0.5422 -2.0497
   25SAPC   C27 3303   5.378   0.492   6.897 -0.1624  0.0725  0.5179
   25SAPC   H7R 3304   5.339   0.389   6.910 -0.7833  0.2073 -0.2227
   25SAPC   H7S 3305   5.308   0.554   6.956  1.2693  0.1784  2.1882
   25SAPC   C28 3306   5.504   0.509   6.974 -0.3569  0.6346 -0.4359
   25SAPC   H8R 3307   5.583   0.579   6.942  1.0585 -0.7582 -0.0787
   25SAPC   C29 3308   5.529   0.460   7.099  0.1210  0.0157  0.2560
   25SAPC   H9R 3309   5.621   0.486   7.154  0.3917  1.3656 -0.7804
   25SAPC  C210 3310   5.429   0.380   7.189 -0.7873  0.8055  0.6198
   25SAPC  H10R 3311   5.464   0.280   7.224  0.1506  1.3333  1.2305
   25SAPC  H10S 3312   5.340   0.356   7.127 -0.6912  1.7709  0.0913
   25SAPC  C211 3313   5.390   0.463   7.309 -0.2748  0.1050 -0.5050
   25SAPC  H11R 3314   5.321   0.546   7.292  0.0133  0.1953 -1.2671
   25SAPC  C212 3315   5.453   0.461   7.430 -0.0034  0.6508  0.9116
   25SAPC  H12R 3316   5.400   0.516   7.509 -0.5470  2.6217 -0.7165
   25SAPC  C213 3317   5.562   0.374   7.477 -0.4749  0.0906 -0.1647
   25SAPC  H13R 3318   5.623   0.428   7.552 -0.8349  0.9607 -0.4895
   25SAPC  H13S 3319   5.641   0.360   7.400  1.6450  0.7944  1.7868
   25SAPC  C214 3320   5.531   0.241   7.534  0.2610  0.0355  0.5227
   25SAPC  H14R 3321   5.514   0.160   7.462 -2.7744 -0.7892  2.0162
   25SAPC  C215 3322   5.511   0.215   7.663 -1.1694 -0.0790  0.3171
   25SAPC  H15R 3323   5.513   0.109   7.689 -0.0838  0.1242  1.1207
   25SAPC  C216 3324   5.511   0.311   7.780 -0.2788 -0.2548  0.3653
   25SAPC  H16R 3325   5.428   0.384   7.780  0.9704  1.2860  2.4502
   25SAPC  H16S 3326   5.606   0.369   7.789  1.3049 -2.7538  0.7181
   25SAPC  C217 3327   5.495   0.233   7.906  0.4797 -0.4888 -0.3124
   25SAPC  H17R 3328   5.545   0.133   7.907  0.1920 -0.6347 -0.5363
   25SAPC  H17S 3329   5.389   0.206   7.923  0.5238 -0.8191 -0.5464
   25SAPC  C218 3330   5.537   0.297   8.031 -0.3081  0.2373  0.5195
   25SAPC  H18R 3331   5.461   0.371   8.064 -1.3033 -0.8401  0.6932
   25SAPC  H18S 3332   5.632   0.355   8.021  0.6395 -0.5463  3.6590
   25SAPC  C219 3333   5.554   0.202   8.150  0.6591 -0.9620  0.4506
   25SAPC  H19R 3334   5.621   0.119   8.119  0.0108 -0.9088 -1.1941
   25SAPC  H19S 3335   5.449   0.172   8.175  0.6037 -0.1151  1.2956
   25SAPC  C220 3336   5.602   0.281   8.267  0.8019 -0.0016 -1.0136
   25SAPC  H20R 3337   5.699   0.330   8.246  1.0155 -0.0127 -0.0808
   25SAPC  H20S 3338   5.624   0.208   8.348 -0.8173  1.0455  0.4479
   25SAPC  H20T 3339   5.528   0.355   8.306 -0.4763 -0.5316 -2.3336
   25SAPC   C33 3340   5.211  -0.218   6.665  0.1308 -0.2456 -0.8030
   25SAPC   H3X 3341   5.311  -0.232   6.618 -0.5945 -0.4446 -2.3524
   25SAPC   H3Y 3342   5.206  -0.297   6.743  2.1860 -2.4108 -2.6734
   25SAPC   C34 3343   5.211  -0.077   6.727 -0.8042 -0.6041  0.3183
   25SAPC   H4X 3344   5.115  -0.054   6.778  0.6130  0.1341  2.8207
   25SAPC   H4Y 3345   5.229  -0.005   6.645  1.6051 -1.2641  0.1794
   25SAPC   C35 3346   5.318  -0.054   6.842  0.1681 -0.1592  0.1056
   25SAPC   H5X 3347   5.322   0.056   6.861 -0.5302 -0.0229 -0.4729
   25SAPC   H5Y 3348   5.420  -0.087   6.814  0.3100 -1.1953  1.7466
   25SAPC   C36 3349   5.292  -0.129   6.969  0.3306 -0.6850 -0.3999
   25SAPC   H6X 3350   5.264  -0.233   6.942 -2.2393 -0.2977  0.4612
   25SAPC   H6Y 3351   5.206  -0.088   7.027 -1.2524 -1.6285 -1.9840
   25SAPC   C37 3352   5.415  -0.136   7.063  0.7702  0.5520  0.6969
   25SAPC   H7X 3353   5.439  -0.030   7.082 -0.5337  1.0684 -0.4124
   25SAPC   H7Y 3354   5.499  -0.183   7.007 -1.3521  0.4895 -2.6909
   25SAPC   C38 3355   5.377  -0.206   7.201 -0.1770 -0.3443 -0.2543
   25SAPC   H8X 3356   5.342  -0.311   7.193 -1.8634  0.0696  1.0788
   25SAPC   H8Y 3357   5.296  -0.151   7.254  1.1754  0.0917  1.4664
   25SAPC   C39 3358   5.492  -0.196   7.296 -0.2259  0.6756 -0.4877
   25SAPC   H9X 3359   5.512  -0.088   7.315 -1.5977  0.6310  1.4584
   25SAPC   H9Y 3360   5.579  -0.249   7.250  0.5912  1.3427  0.2480
   25SAPC  C310 3361   5.450  -0.253   7.433 -0.2787 -0.3413 -0.5439
   25SAPC  H10X 3362   5.430  -0.360   7.411 -1.2737 -0.8878  2.4907
   25SAPC  H10Y 3363   5.357  -0.206   7.471  0.2828  2.3148 -2.1868
   25SAPC  C311 3364   5.556  -0.244   7.541 -0.2755 -0.3391 -0.2296
   25SAPC  H11X 3365   5.563  -0.137   7.569  0.1804 -0.8116  1.5919
   25SAPC  H11Y 3366   5.657  -0.277   7.509  1.3926  1.6507  2.5237
   25SAPC  C312 3367   5.511  -0.319   7.673 -0.5872  0.6391  0.2691
   25SAPC  H12X 3368   5.608  -0.319   7.727  0.8255 -0.2578 -2.1244
   25SAPC  H12Y 3369   5.488  -0.426   7.652  0.5119  0.6014 -0.9191
   25SAPC  C313 3370   5.398  -0.251   7.759 -0.9369  0.4969 -0.4540
   25SAPC  H13X 3371   5.303  -0.258   7.702 -0.9996  2.6440 -0.7072
   25SAPC  H13Y 3372   5.427  -0.145   7.775 -0.2140  0.3267 -0.5889
   25SAPC  C314 3373   5.381  -0.326   7.896 -0.0447  0.4795 -0.0703
   25SAPC  H14X 3374   5.385  -0.436   7.883 -0.1669  0.4735 -0.0665
   25SAPC  H14Y 3375   5.278  -0.308   7.935 -1.2013 -2.3761 -1.5374
   25SAPC  C315 3376   5.491  -0.299   7.991  0.3535 -0.1415 -0.6586
   25SAPC  H15X 3377   5.502  -0.189   8.000 -1.2048 -0.0845  1.1855
   25SAPC  H15Y 3378   5.588  -0.336   7.951 -0.7630 -1.7205 -2.0325
   25SAPC  C316 3379   5.468  -0.365   8.129  0.2121  0.4556  0.1572
   25SAPC  H16X 3380   5.457  -0.471   8.100 -4.3304  1.0116 -0.8696
   25SAPC  H16Y 3381   5.376  -0.337   8.186 -0.7326 -0.3646 -0.9238
   25SAPC  C317 3382   5.594  -0.358   8.209  0.1465 -0.1058  0.3695
   25SAPC  H17X 3383   5.607  -0.255   8.248  3.1392 -0.1185 -0.3284
   25SAPC  H17Y 3384   5.675  -0.367   8.134  0.7916  1.5081  0.8238
   25SAPC  C318 3385   5.591  -0.459   8.318  0.2776  0.0634  0.6243
   25SAPC  H18X 3386   5.535  -0.426   8.408  2.4564  2.7095  1.1258
   25SAPC  H18Y 3387   5.691  -0.483   8.361  0.4891  0.9256  0.6363
   25SAPC  H18Z 3388   5.550  -0.557   8.285  0.2044 -0.5998  2.5512
   26SAPC     N 3389   3.591   2.313   6.166 -0.1068  0.5317  0.0386
   26SAPC   C12 3390   3.703   2.220   6.213 -0.0343  0.1193 -0.1372
   26SAPC  H12A 3391   3.763   2.196   6.126 -1.3884 -0.5502 -0.9075
   26SAPC  H12B 3392   3.662   2.127   6.249  2.0910 -1.7045 -2.0708
   26SAPC   C13 3393   3.638   2.439   6.109 -0.5444 -0.4778  0.1734
   26SAPC  H13A 3394   3.551   2.501   6.096  0.6234  1.0739 -0.4586
   26SAPC  H13B 3395   3.699   2.493   6.180 -1.1516 -2.0805  2.0277
   26SAPC  H13C 3396   3.691   2.423   6.016 -3.0992 -2.3672 -1.0943
   26SAPC   C14 3397   3.505   2.237   6.069  0.4880  0.3676  0.0656
   26SAPC  H14A 3398   3.556   2.185   5.990  0.6278  1.1643 -0.3751
   26SAPC  H14B 3399   3.448   2.162   6.121  1.5373  1.1700  2.5100
   26SAPC  H14C 3400   3.439   2.313   6.029  1.4510  0.6688 -0.9928
   26SAPC   C15 3401   3.515   2.350   6.290  0.3822 -0.2281  0.0919
   26SAPC  H15A 3402   3.469   2.267   6.342 -1.6852  0.1537 -1.0089
   26SAPC  H15B 3403   3.573   2.407   6.361 -0.4523  0.4081  0.2725
   26SAPC  H15C 3404   3.439   2.424   6.272  0.3383 -0.2466  0.2016
   26SAPC   C11 3405   3.815   2.276   6.303 -0.0022  0.2280 -0.3776
   26SAPC  H11A 3406   3.885   2.193   6.327  3.3890  2.9077 -0.1092
   26SAPC  H11B 3407   3.774   2.315   6.399 -2.4077  0.7028 -1.5317
   26SAPC     P 3408   4.027   2.349   6.158 -0.2327  0.4001 -0.1933
   26SAPC   O13 3409   4.003   2.238   6.066 -0.2882 -0.2661  0.5111
   26SAPC   O14 3410   4.063   2.479   6.098 -0.3726  0.2813 -0.4853
   26SAPC   O12 3411   3.891   2.373   6.234  0.5143 -0.3010 -0.6533
   26SAPC   O11 3412   4.137   2.301   6.259 -0.0211 -0.8493 -0.1100
   26SAPC    C1 3413   4.178   2.402   6.359  0.4734  0.4340  0.3469
   26SAPC    HA 3414   4.229   2.487   6.309 -0.6599  1.4374  0.8455
   26SAPC    HB 3415   4.085   2.446   6.400  0.4759 -0.0201  0.8364
   26SAPC    C2 3416   4.253   2.338   6.475 -0.1964 -0.6234 -0.0245
   26SAPC    HS 3417   4.339   2.281   6.433  1.3694  0.4225  1.5677
   26SAPC   O21 3418   4.165   2.263   6.549 -0.0610  0.3086 -0.3846
   26SAPC   C21 3419   4.180   2.130   6.524  0.1809  0.4957  0.4253
   26SAPC   O22 3420   4.264   2.083   6.452  0.5368  0.3887 -0.0510
   26SAPC   C22 3421   4.072   2.048   6.599  0.5617 -0.7399  0.6224
   26SAPC   H2R 3422   4.043   2.111   6.686  2.2813 -0.0478  0.7299
   26SAPC   H2S 3423   3.991   2.035   6.524  0.2539 -1.8530  1.1279
   26SAPC    C3 3424   4.327   2.451   6.555 -0.3066  0.0294 -0.2015
   26SAPC    HX 3425   4.264   2.539   6.578 -0.5631 -0.4702  1.0708
   26SAPC    HY 3426   4.417   2.483   6.498  0.2083 -0.3266  0.3956
   26SAPC   O31 3427   4.358   2.406   6.687 -0.0482  0.3376  0.2422
   26SAPC   C31 3428   4.484   2.362   6.692  1.5669  0.3579  0.3118
   26SAPC   O32 3429   4.564   2.356   6.602 -0.0414  0.1378  0.1678
   26SAPC   C32 3430   4.523   2.322   6.834  0.7959  0.2527  0.9213
   26SAPC   H2X 3431   4.440   2.263   6.881  0.1904  1.7558  1.8319
   26SAPC   H2Y 3432   4.543   2.411   6.897  1.9438  0.5586  0.1344
   26SAPC   C23 3433   4.130   1.922   6.660 -0.0403  0.2202 -0.4790
   26SAPC   H3R 3434   4.192   1.873   6.582 -0.5966 -0.9613 -0.2000
   26SAPC   H3S 3435   4.050   1.848   6.680  1.1520 -1.1826 -0.7061
   26SAPC   C24 3436   4.199   1.958   6.794  0.2757 -0.0626 -0.0802
   26SAPC   H4R 3437   4.128   2.017   6.855  0.1028 -1.1599  0.8337
   26SAPC   H4S 3438   4.289   2.022   6.779  0.9960 -0.4779  2.0819
   26SAPC   C25 3439   4.242   1.831   6.866  0.7515  0.2690 -0.0935
   26SAPC   H5R 3440   4.284   1.757   6.797  1.2923 -0.3594  0.8865
   26SAPC   C26 3441   4.238   1.801   6.994 -0.7335 -0.4834 -0.1318
   26SAPC   H6R 3442   4.274   1.702   7.025  1.2822  0.4567  0.7188
   26SAPC   C27 3443   4.195   1.889   7.108 -0.2503  0.2301 -0.0308
   26SAPC   H7R 3444   4.109   1.846   7.164 -2.1072  1.5122 -1.7571
   26SAPC   H7S 3445   4.150   1.982   7.068  0.1406 -0.0332 -1.1233
   26SAPC   C28 3446   4.310   1.937   7.198 -0.4045  0.3682 -0.3097
   26SAPC   H8R 3447   4.379   2.003   7.142 -0.0124 -0.2880 -0.6129
   26SAPC   C29 3448   4.327   1.926   7.332  0.1143  0.4682  0.0690
   26SAPC   H9R 3449   4.416   1.964   7.384  0.1693 -1.6199  1.6184
   26SAPC  C210 3450   4.230   1.846   7.422 -0.2145 -0.1049 -0.0909
   26SAPC  H10R 3451   4.167   1.777   7.363  1.4573 -1.8046  0.0121
   26SAPC  H10S 3452   4.161   1.918   7.469  0.2786 -0.5000  1.2708
   26SAPC  C211 3453   4.304   1.757   7.522 -0.1488 -0.4181  0.0132
   26SAPC  H11R 3454   4.408   1.736   7.492 -1.0788 -0.1055 -4.0787
   26SAPC  C212 3455   4.263   1.701   7.642  0.2478 -0.6311  0.4970
   26SAPC  H12R 3456   4.340   1.656   7.707 -0.1401 -1.9957  0.0485
   26SAPC  C213 3457   4.138   1.723   7.720  0.1050  0.2568 -0.4308
   26SAPC  H13R 3458   4.105   1.643   7.790 -1.1788  0.2377 -1.0145
   26SAPC  H13S 3459   4.055   1.714   7.646  0.4745  1.2857 -0.9759
   26SAPC  C214 3460   4.120   1.865   7.781  0.4170 -0.5030 -0.5279
   26SAPC  H14R 3461   4.177   1.945   7.732 -0.2231 -0.3671 -1.0730
   26SAPC  C215 3462   4.042   1.891   7.889  0.0351 -0.8676  0.2211
   26SAPC  H15R 3463   4.042   1.989   7.938  1.9212 -0.5597 -0.3362
   26SAPC  C216 3464   3.951   1.793   7.966  0.1853 -0.4430  0.0585
   26SAPC  H16R 3465   3.922   1.701   7.910 -2.0381 -0.2025  0.7428
   26SAPC  H16S 3466   3.855   1.843   7.988  0.2518  0.7381 -2.0999
   26SAPC  C217 3467   4.015   1.750   8.100 -0.3819 -0.1637  0.8531
   26SAPC  H17R 3468   3.993   1.829   8.174 -2.5509  0.3560 -0.2582
   26SAPC  H17S 3469   4.126   1.735   8.097 -0.2038  0.8391  2.0013
   26SAPC  C218 3470   3.949   1.623   8.155 -0.4526  0.1570  0.1226
   26SAPC  H18R 3471   3.995   1.540   8.097  0.5015 -0.5984  1.8968
   26SAPC  H18S 3472   3.842   1.627   8.125 -1.1630 -1.4141  2.2568
   26SAPC  C219 3473   3.955   1.601   8.307 -0.2687  0.1602  0.5648
   26SAPC  H19R 3474   4.061   1.621   8.330  0.0761 -1.2549  0.3037
   26SAPC  H19S 3475   3.928   1.493   8.314 -0.0638  0.1194  0.7136
   26SAPC  C220 3476   3.862   1.690   8.387  0.1870  0.8593 -0.3931
   26SAPC  H20R 3477   3.755   1.668   8.366 -0.1883  0.9145  1.2758
   26SAPC  H20S 3478   3.891   1.797   8.374  0.3962  0.7547 -0.7719
   26SAPC  H20T 3479   3.877   1.684   8.497  1.6082  1.0240 -0.5590
   26SAPC   C33 3480   4.656   2.240   6.843 -0.1528  0.5405  0.5724
   26SAPC   H3X 3481   4.733   2.279   6.773  0.3341  2.1792  1.9657
   26SAPC   H3Y 3482   4.626   2.142   6.801  0.5067  1.3438 -2.0003
   26SAPC   C34 3483   4.709   2.249   6.989 -0.0547 -0.2293 -0.3756
   26SAPC   H4X 3484   4.625   2.207   7.048 -1.4287  1.6445 -0.9139
   26SAPC   H4Y 3485   4.728   2.349   7.034  1.4181 -2.3622  4.3856
   26SAPC   C35 3486   4.834   2.154   7.019 -0.1939 -0.0055 -0.6516
   26SAPC   H5X 3487   4.910   2.163   6.939  0.1688  0.2287 -0.2884
   26SAPC   H5Y 3488   4.803   2.048   7.027 -1.5787  0.4830  1.6128
   26SAPC   C36 3489   4.917   2.187   7.143  0.0655 -0.1525  0.7598
   26SAPC   H6X 3490   4.943   2.295   7.135  4.1293 -1.0993 -3.5019
   26SAPC   H6Y 3491   5.019   2.145   7.128  0.6522  1.3998  0.1905
   26SAPC   C37 3492   4.860   2.167   7.281 -0.3291 -0.5933 -0.3767
   26SAPC   H7X 3493   4.823   2.066   7.306 -2.1844  0.3359  0.7958
   26SAPC   H7Y 3494   4.781   2.243   7.296 -1.7888 -2.2544  0.7283
   26SAPC   C38 3495   4.969   2.198   7.388  0.0932  0.6005  0.1870
   26SAPC   H8X 3496   5.030   2.286   7.358 -0.5561  1.0547  0.1718
   26SAPC   H8Y 3497   5.038   2.112   7.377  0.5594  0.5901  2.6753
   26SAPC   C39 3498   4.917   2.235   7.519  0.8664  0.4449 -0.4276
   26SAPC   H9X 3499   4.869   2.142   7.556 -1.1444  1.5515 -0.1319
   26SAPC   H9Y 3500   4.836   2.311   7.517 -0.2090 -0.6431  0.4520
   26SAPC  C310 3501   5.031   2.272   7.619  0.6898 -0.7271  0.2281
   26SAPC  H10X 3502   5.071   2.372   7.590 -0.2101 -0.6076 -0.6737
   26SAPC  H10Y 3503   5.108   2.193   7.608  1.3312 -0.0321 -0.4132
   26SAPC  C311 3504   4.976   2.274   7.764  0.3422  0.1054  1.0632
   26SAPC  H11X 3505   4.931   2.177   7.793 -6.1567  2.7885  1.8597
   26SAPC  H11Y 3506   4.887   2.341   7.774  0.3915  0.8613 -2.3285
   26SAPC  C312 3507   5.081   2.324   7.869 -0.1021  0.1110 -0.1768
   26SAPC  H12X 3508   5.094   2.422   7.818 -1.9488  0.8282  0.6328
   26SAPC  H12Y 3509   5.175   2.267   7.851 -0.1643  0.0793 -0.4122
   26SAPC  C313 3510   5.026   2.329   8.014  0.3813 -0.2417 -0.2528
   26SAPC  H13X 3511   4.955   2.413   8.027  1.0764  0.0795  1.7690
   26SAPC  H13Y 3512   5.107   2.342   8.088 -0.4381  1.9074  0.3476
   26SAPC  C314 3513   4.946   2.207   8.063  0.8076 -0.2439  0.5048
   26SAPC  H14X 3514   4.996   2.110   8.043  1.9919  0.4562 -0.0314
   26SAPC  H14Y 3515   4.842   2.223   8.028  1.0736  1.2250  0.3069
   26SAPC  C315 3516   4.930   2.206   8.221  0.1812  0.5947 -0.2258
   26SAPC  H15X 3517   4.909   2.311   8.251 -1.9513  0.7776 -2.0666
   26SAPC  H15Y 3518   5.023   2.166   8.266  0.2656  1.0928  0.0477
   26SAPC  C316 3519   4.809   2.120   8.265 -0.3981 -0.0343  0.1675
   26SAPC  H16X 3520   4.707   2.159   8.246 -1.1804 -0.0913  3.5848
   26SAPC  H16Y 3521   4.802   2.115   8.376 -0.6412 -0.1831  0.1474
   26SAPC  C317 3522   4.810   1.974   8.205  0.8958  0.3163 -0.1802
   26SAPC  H17X 3523   4.898   1.920   8.247 -0.7909 -1.1699  1.6256
   26SAPC  H17Y 3524   4.819   1.976   8.094 -0.5948 -0.9321 -0.3498
   26SAPC  C318 3525   4.686   1.890   8.236  0.1209 -0.2128  0.1191
   26SAPC  H18X 3526   4.705   1.794   8.184  2.8030  0.9218 -1.1904
   26SAPC  H18Y 3527   4.597   1.945   8.199 -1.4768 -1.2842  2.1694
   26SAPC  H18Z 3528   4.675   1.868   8.344 -0.6986 -1.1870 -0.1483
   27SAPC     N 3529   1.371   2.956   6.391  0.8902 -1.0073 -0.2924
   27SAPC   C12 3530   1.297   3.083   6.380  0.4645 -0.9610  0.0365
   27SAPC  H12A 3531   1.262   3.098   6.279 -1.0384 -1.4728  0.4582
   27SAPC  H12B 3532   1.355   3.172   6.401 -1.6770  0.7179 -0.6901
   27SAPC   C13 3533   1.273   2.844   6.346 -0.0569  0.2523 -0.5238
   27SAPC  H13A 3534   1.223   2.860   6.252 -0.1425 -1.4861 -0.7994
   27SAPC  H13B 3535   1.332   2.756   6.329 -2.1605 -2.1163  3.1434
   27SAPC  H13C 3536   1.204   2.826   6.427  0.7625 -0.0957  0.1167
   27SAPC   C14 3537   1.487   2.956   6.294 -0.4261  0.6215  0.2141
   27SAPC  H14A 3538   1.553   3.037   6.321 -0.0445  0.9754 -1.6096
   27SAPC  H14B 3539   1.541   2.863   6.288 -1.5801  0.0127 -3.2736
   27SAPC  H14C 3540   1.459   2.980   6.192 -1.4076  0.8224  0.5237
   27SAPC   C15 3541   1.405   2.927   6.531  0.3625 -0.0576  0.4631
   27SAPC  H15A 3542   1.495   2.869   6.548  1.3806  1.3297 -0.0392
   27SAPC  H15B 3543   1.419   3.015   6.592  0.6662  1.1997 -1.3635
   27SAPC  H15C 3544   1.321   2.887   6.586 -0.6701  1.9683  0.4493
   27SAPC   C11 3545   1.164   3.107   6.456  0.4141  0.3388 -0.2332
   27SAPC  H11A 3546   1.094   3.022   6.442  0.4865  0.2966 -0.3397
   27SAPC  H11B 3547   1.113   3.198   6.418 -0.2844  0.5136  1.0769
   27SAPC     P 3548   1.275   3.238   6.654 -0.1369 -0.3877 -0.3839
   27SAPC   O13 3549   1.354   3.173   6.766  0.1543  0.2105  0.6568
   27SAPC   O14 3550   1.350   3.296   6.547  0.3743  0.6395 -0.3564
   27SAPC   O12 3551   1.178   3.131   6.594 -0.3401 -0.2446 -0.5652
   27SAPC   O11 3552   1.175   3.347   6.715 -0.1286  0.4444 -0.1756
   27SAPC    C1 3553   1.056   3.287   6.773 -0.4985  0.4589 -0.6319
   27SAPC    HA 3554   0.985   3.234   6.706 -1.7232 -0.2475  1.1435
   27SAPC    HB 3555   1.072   3.229   6.866 -0.9876 -0.7269 -1.2643
   27SAPC    C2 3556   0.963   3.401   6.822  0.2916 -0.3680  0.3948
   27SAPC    HS 3557   0.949   3.484   6.750 -0.3870  0.4622  1.4476
   27SAPC   O21 3558   1.021   3.450   6.949 -0.0158  0.2149 -0.1029
   27SAPC   C21 3559   0.993   3.571   6.989 -0.0408  0.2855 -0.4772
   27SAPC   O22 3560   0.924   3.649   6.921  0.7791 -0.1401 -0.0517
   27SAPC   C22 3561   1.058   3.602   7.125 -0.3915 -0.0154  0.4957
   27SAPC   H2R 3562   1.168   3.591   7.111 -0.1563  0.5803  1.7481
   27SAPC   H2S 3563   1.041   3.707   7.156  0.6890  0.9860 -2.0822
   27SAPC    C3 3564   0.818   3.344   6.846 -0.0232 -0.0654  0.4001
   27SAPC    HX 3565   0.785   3.294   6.753  0.2705 -0.6267  0.5910
   27SAPC    HY 3566   0.745   3.424   6.871 -1.4218 -0.7568 -1.2673
   27SAPC   O31 3567   0.814   3.244   6.950  0.0177 -0.4133  0.4491
   27SAPC   C31 3568   0.691   3.210   6.993 -0.3793  0.1042  0.3343
   27SAPC   O32 3569   0.586   3.253   6.942  0.1393  0.1517  0.8188
   27SAPC   C32 3570   0.697   3.106   7.100  0.3663 -0.3123  0.1174
   27SAPC   H2X 3571   0.795   3.118   7.152 -0.2702  1.4719  1.0028
   27SAPC   H2Y 3572   0.693   3.008   7.049  1.9878 -0.8568  0.9614
   27SAPC   C23 3573   1.031   3.505   7.244 -0.2644 -0.3520  0.1809
   27SAPC   H3R 3574   1.097   3.530   7.330  0.3014  1.1037 -0.6500
   27SAPC   H3S 3575   1.053   3.400   7.214  2.4403  0.7664 -2.1468
   27SAPC   C24 3576   0.878   3.510   7.292 -0.0696  0.6010  0.0956
   27SAPC   H4R 3577   0.808   3.510   7.206  0.6429  1.3916 -0.5026
   27SAPC   H4S 3578   0.857   3.609   7.338 -0.9439  0.4681 -0.0156
   27SAPC   C25 3579   0.863   3.389   7.386  0.3758 -0.7238  0.2947
   27SAPC   H5R 3580   0.842   3.288   7.346 -2.5314 -0.1127  0.0574
   27SAPC   C26 3581   0.878   3.399   7.519 -0.0578  0.6593 -0.5287
   27SAPC   H6R 3582   0.850   3.317   7.587 -0.9723 -1.0243 -2.8041
   27SAPC   C27 3583   0.933   3.521   7.591  0.3007 -0.6268  0.2226
   27SAPC   H7R 3584   0.852   3.572   7.647  0.8647  1.8698 -1.0797
   27SAPC   H7S 3585   0.963   3.595   7.515  0.7630 -2.4106 -1.4026
   27SAPC   C28 3586   1.050   3.495   7.685  0.5941 -0.1244 -0.2455
   27SAPC   H8R 3587   1.126   3.425   7.648  0.6806  1.3366 -3.0859
   27SAPC   C29 3588   1.066   3.554   7.803 -0.1871  0.3747  0.4423
   27SAPC   H9R 3589   1.147   3.520   7.870  0.3559  0.7972  0.0172
   27SAPC  C210 3590   0.972   3.657   7.871  0.0840 -0.0643  0.5964
   27SAPC  H10R 3591   0.865   3.635   7.854  0.4662 -0.7434 -1.1933
   27SAPC  H10S 3592   0.986   3.753   7.817  0.3168  0.5755  1.7616
   27SAPC  C211 3593   1.002   3.683   8.016 -0.8355 -0.3338 -0.1084
   27SAPC  H11R 3594   1.067   3.772   8.023 -0.0813 -0.7677 -1.2478
   27SAPC  C212 3595   0.952   3.616   8.119 -0.3330  0.0265  0.0557
   27SAPC  H12R 3596   0.985   3.646   8.220  0.4058  0.1305 -0.2148
   27SAPC  C213 3597   0.857   3.496   8.112 -0.1432  1.1072 -0.4097
   27SAPC  H13R 3598   0.796   3.504   8.020  0.5986 -0.3980 -1.0555
   27SAPC  H13S 3599   0.777   3.488   8.188 -0.5009 -3.3988 -1.0203
   27SAPC  C214 3600   0.938   3.368   8.118  0.1296 -0.7529  0.0569
   27SAPC  H14R 3601   1.001   3.334   8.034  0.7214 -1.5183  0.7984
   27SAPC  C215 3602   0.945   3.282   8.217  0.9875  0.6801 -0.4527
   27SAPC  H15R 3603   0.994   3.186   8.196 -0.2807  0.0465 -0.5871
   27SAPC  C216 3604   0.887   3.294   8.355 -0.2740  0.1754 -1.3882
   27SAPC  H16R 3605   0.777   3.292   8.367 -0.2798  3.1252 -0.1096
   27SAPC  H16S 3606   0.919   3.395   8.388 -0.8789 -0.8146  2.7527
   27SAPC  C217 3607   0.950   3.184   8.443 -0.8436 -0.4346 -0.3277
   27SAPC  H17R 3608   0.950   3.226   8.545  0.4923  0.4726 -0.6643
   27SAPC  H17S 3609   1.055   3.167   8.411 -0.4672 -1.6332  1.3888
   27SAPC  C218 3610   0.871   3.061   8.446  0.0164  0.2658 -0.5012
   27SAPC  H18R 3611   0.889   3.010   8.349  0.8185 -0.6140  0.0793
   27SAPC  H18S 3612   0.762   3.081   8.441 -0.2245 -1.1698 -1.4476
   27SAPC  C219 3613   0.905   2.958   8.549 -0.2840 -0.0524 -0.9039
   27SAPC  H19R 3614   0.909   2.996   8.653  0.2172 -4.0907  0.7125
   27SAPC  H19S 3615   1.000   2.905   8.526 -1.0733 -1.4295 -1.0983
   27SAPC  C220 3616   0.797   2.842   8.549  0.1685  0.4764 -0.6071
   27SAPC  H20R 3617   0.802   2.783   8.455  0.6748  0.1465 -0.3744
   27SAPC  H20S 3618   0.697   2.889   8.561 -0.8836 -1.3156 -1.9544
   27SAPC  H20T 3619   0.803   2.771   8.635 -1.4205 -0.3771 -1.1566
   27SAPC   C33 3620   0.588   3.115   7.215 -0.3645 -0.2087 -0.7456
   27SAPC   H3X 3621   0.491   3.074   7.181 -0.7471 -0.7178  0.8993
   27SAPC   H3Y 3622   0.570   3.221   7.245 -1.9210 -0.7722  0.4189
   27SAPC   C34 3623   0.627   3.038   7.342  0.2547 -0.3167  0.1161
   27SAPC   H4X 3624   0.713   3.082   7.397 -0.1930 -2.3037  2.5892
   27SAPC   H4Y 3625   0.649   2.930   7.325  1.0215 -0.7718  3.2759
   27SAPC   C35 3626   0.524   3.047   7.453  0.5963 -0.6083 -0.0859
   27SAPC   H5X 3627   0.549   2.978   7.536  1.1934 -2.5423 -1.7923
   27SAPC   H5Y 3628   0.425   3.006   7.422  0.4662 -0.5599  0.2575
   27SAPC   C36 3629   0.507   3.192   7.507 -0.4969  0.3773  0.2159
   27SAPC   H6X 3630   0.455   3.258   7.434 -0.1626  1.7546  1.1868
   27SAPC   H6Y 3631   0.610   3.232   7.512 -0.5747  0.6889 -0.5828
   27SAPC   C37 3632   0.461   3.203   7.651 -0.1152  0.0251 -0.0627
   27SAPC   H7X 3633   0.380   3.127   7.656 -0.9016  0.9143  0.9910
   27SAPC   H7Y 3634   0.417   3.301   7.678  0.0107  1.3496 -4.0358
   27SAPC   C38 3635   0.575   3.170   7.754  0.4821  0.3497 -0.3439
   27SAPC   H8X 3636   0.649   3.253   7.757  0.9280 -0.0122 -1.0758
   27SAPC   H8Y 3637   0.632   3.081   7.721  0.2334  0.3741 -0.8568
   27SAPC   C39 3638   0.533   3.161   7.901 -0.0043  0.4968 -1.0257
   27SAPC   H9X 3639   0.465   3.074   7.912 -0.0105  0.4811 -1.1879
   27SAPC   H9Y 3640   0.471   3.250   7.927 -0.8090 -0.7569  1.7940
   27SAPC  C310 3641   0.648   3.154   8.006 -0.4626  0.3653 -0.3431
   27SAPC  H10X 3642   0.710   3.241   7.977 -0.0022 -0.1758 -1.0222
   27SAPC  H10Y 3643   0.701   3.059   7.980 -1.7381 -0.5189  0.1686
   27SAPC  C311 3644   0.601   3.152   8.155 -0.3134  0.2362  0.7239
   27SAPC  H11X 3645   0.576   3.260   8.164 -0.9330  0.1465  0.1875
   27SAPC  H11Y 3646   0.688   3.130   8.220 -1.9211 -0.4807  2.7185
   27SAPC  C312 3647   0.484   3.065   8.197 -0.1465 -0.0775  0.4462
   27SAPC  H12X 3648   0.480   2.971   8.138  1.9609  0.3512 -0.4854
   27SAPC  H12Y 3649   0.397   3.118   8.153  0.3461  0.1010 -0.3417
   27SAPC  C313 3650   0.471   3.029   8.347 -0.1320 -0.0607 -0.2057
   27SAPC  H13X 3651   0.558   2.965   8.374 -0.7837  0.1935  2.8760
   27SAPC  H13Y 3652   0.384   2.962   8.361 -0.1939 -0.3459 -1.7652
   27SAPC  C314 3653   0.471   3.146   8.451  0.4622 -0.2981  0.0059
   27SAPC  H14X 3654   0.411   3.232   8.414  0.9833  0.2577  0.4321
   27SAPC  H14Y 3655   0.572   3.186   8.471 -0.1456  1.0373  0.5626
   27SAPC  C315 3656   0.424   3.099   8.583 -0.0585  0.2321  0.2092
   27SAPC  H15X 3657   0.492   3.025   8.630 -1.5441 -1.1153  0.2877
   27SAPC  H15Y 3658   0.324   3.052   8.588  0.6830 -1.4153  0.2840
   27SAPC  C316 3659   0.420   3.219   8.687 -0.0465 -1.3418 -0.4251
   27SAPC  H16X 3660   0.367   3.306   8.641 -1.9287 -2.0660  0.2679
   27SAPC  H16Y 3661   0.526   3.252   8.689  0.7745 -3.5238 -2.6334
   27SAPC  C317 3662   0.365   3.191   8.830  0.3616 -0.2255  0.2056
   27SAPC  H17X 3663   0.432   3.118   8.878  1.1935  1.0881  1.1096
   27SAPC  H17Y 3664   0.270   3.135   8.819  0.1823  0.2901 -1.0494
   27SAPC  C318 3665   0.361   3.315   8.916  0.3328 -0.6485  0.4493
   27SAPC  H18X 3666   0.447   3.314   8.986 -0.5162 -1.3248  1.5197
   27SAPC  H18Y 3667   0.263   3.311   8.968 -0.4213  1.9020 -0.6141
   27SAPC  H18Z 3668   0.376   3.410   8.861 -0.0412  0.1239  1.6651
   28SAPC     N 3669   2.225   1.922   6.063 -0.1632  0.0552 -0.0348
   28SAPC   C12 3670   2.354   1.958   6.137  0.3056 -0.6269  0.5115
   28SAPC  H12A 3671   2.323   2.012   6.226 -1.3793  0.8381 -0.8978
   28SAPC  H12B 3672   2.409   2.027   6.074 -0.6131 -0.4663 -0.1327
   28SAPC   C13 3673   2.256   1.844   5.945 -0.3601 -0.1344 -0.0232
   28SAPC  H13A 3674   2.312   1.901   5.872 -1.4009  2.4839  1.0974
   28SAPC  H13B 3675   2.299   1.746   5.960  1.0335  0.3997 -0.3918
   28SAPC  H13C 3676   2.167   1.818   5.890 -0.9813 -0.1057  0.9406
   28SAPC   C14 3677   2.131   1.857   6.149 -0.0848 -0.3478 -0.2690
   28SAPC  H14A 3678   2.160   1.754   6.166  0.6460 -0.0126  0.5870
   28SAPC  H14B 3679   2.138   1.903   6.246  2.8005  2.7801 -1.7409
   28SAPC  H14C 3680   2.028   1.864   6.114 -0.0667 -0.0587 -0.2652
   28SAPC   C15 3681   2.160   2.046   6.012  0.7322 -0.7615  0.1923
   28SAPC  H15A 3682   2.113   2.101   6.092 -0.2846 -0.9990 -0.2275
   28SAPC  H15B 3683   2.237   2.109   5.970  0.7120 -0.5914  0.4093
   28SAPC  H15C 3684   2.086   2.024   5.936  0.3334 -0.3007  0.4408
   28SAPC   C11 3685   2.438   1.838   6.184  0.3306  0.7212 -0.7900
   28SAPC  H11A 3686   2.538   1.862   6.224  0.4192 -1.8824  0.7723
   28SAPC  H11B 3687   2.458   1.781   6.091 -1.7242  0.4745 -1.1412
   28SAPC     P 3688   2.336   1.785   6.425  0.1903 -0.3795 -0.2439
   28SAPC   O13 3689   2.463   1.822   6.487  0.1581 -0.0511 -0.0143
   28SAPC   O14 3690   2.227   1.877   6.442 -0.1332  0.4954 -0.3140
   28SAPC   O12 3691   2.364   1.751   6.270 -0.0004 -0.5294 -0.9977
   28SAPC   O11 3692   2.297   1.642   6.476 -0.4617 -0.1077 -0.0829
   28SAPC    C1 3693   2.185   1.596   6.548 -0.1456  0.4627 -0.7665
   28SAPC    HA 3694   2.102   1.670   6.542  0.0145  0.5994 -1.3525
   28SAPC    HB 3695   2.144   1.504   6.501 -2.1644 -0.1041  1.8450
   28SAPC    C2 3696   2.210   1.571   6.707  0.3225 -1.0703  0.1145
   28SAPC    HS 3697   2.127   1.510   6.748  0.3186 -0.7134  0.6397
   28SAPC   O21 3698   2.216   1.695   6.770  0.1629 -0.1158 -0.6526
   28SAPC   C21 3699   2.109   1.774   6.783  0.0945  0.1939  0.7251
   28SAPC   O22 3700   2.000   1.745   6.737  0.5643  0.0355 -0.4113
   28SAPC   C22 3701   2.141   1.909   6.853  0.8480  0.3934  0.4400
   28SAPC   H2R 3702   2.243   1.912   6.897 -0.0861  0.8717  2.7262
   28SAPC   H2S 3703   2.132   1.989   6.776  0.8072  0.5649  0.6216
   28SAPC    C3 3704   2.343   1.500   6.735 -0.3268 -0.0156 -0.1348
   28SAPC    HX 3705   2.425   1.551   6.682 -0.5977  3.4149  2.3837
   28SAPC    HY 3706   2.343   1.396   6.695  0.4378  0.6643 -1.9840
   28SAPC   O31 3707   2.373   1.505   6.880 -0.0665 -0.3718  0.1106
   28SAPC   C31 3708   2.306   1.411   6.945  0.9968  0.0286 -0.7490
   28SAPC   O32 3709   2.220   1.335   6.903 -0.2126  0.8238  0.1932
   28SAPC   C32 3710   2.362   1.425   7.094  0.7434  0.0507  0.3476
   28SAPC   H2X 3711   2.344   1.531   7.122 -0.6345  0.3400 -1.4723
   28SAPC   H2Y 3712   2.470   1.397   7.088  0.4938 -0.6636 -1.2217
   28SAPC   C23 3713   2.026   1.942   6.950  0.9771  0.0300  0.0536
   28SAPC   H3R 3714   1.935   1.882   6.929  2.7675 -2.4987 -0.9639
   28SAPC   H3S 3715   1.989   2.046   6.939  0.5991  0.1782  2.2640
   28SAPC   C24 3716   2.064   1.939   7.103  0.3761 -0.2071 -1.0520
   28SAPC   H4R 3717   2.142   2.017   7.113  0.0742 -0.2113  3.5433
   28SAPC   H4S 3718   1.974   1.975   7.156  1.2005  0.9544 -0.4000
   28SAPC   C25 3719   2.102   1.807   7.142  0.6819  0.3518 -0.4733
   28SAPC   H5R 3720   2.169   1.753   7.073  1.0321  0.5718 -0.3071
   28SAPC   C26 3721   2.045   1.737   7.245 -0.0228  0.3524  0.8619
   28SAPC   H6R 3722   2.066   1.630   7.262  2.0129  0.9234  2.2743
   28SAPC   C27 3723   1.938   1.784   7.343  0.0082  0.2071 -0.4283
   28SAPC   H7R 3724   1.949   1.894   7.361  0.5734  0.1319 -0.2876
   28SAPC   H7S 3725   1.958   1.730   7.438  0.7545  1.6774  0.2822
   28SAPC   C28 3726   1.804   1.754   7.297  0.4538  0.1687 -0.1950
   28SAPC   H8R 3727   1.799   1.725   7.191  1.6676 -3.9073  0.6892
   28SAPC   C29 3728   1.690   1.744   7.366 -0.1990 -0.0892  0.5275
   28SAPC   H9R 3729   1.590   1.732   7.321  0.2935  0.4791 -0.7693
   28SAPC  C210 3730   1.680   1.757   7.525  0.0851 -0.2139  0.7125
   28SAPC  H10R 3731   1.601   1.833   7.545 -0.1333 -0.7486  2.0006
   28SAPC  H10S 3732   1.773   1.801   7.566 -0.8035  2.3124  0.1961
   28SAPC  C211 3733   1.655   1.618   7.580  0.9199 -0.2754  0.8759
   28SAPC  H11R 3734   1.717   1.537   7.538  0.4444 -0.0082 -0.3978
   28SAPC  C212 3735   1.561   1.591   7.671  0.4949  0.5621 -0.6016
   28SAPC  H12R 3736   1.544   1.486   7.697  0.1827  0.8902  0.5871
   28SAPC  C213 3737   1.461   1.684   7.734  0.0114 -0.0636 -0.3982
   28SAPC  H13R 3738   1.369   1.623   7.743 -1.0344  1.3386 -1.1913
   28SAPC  H13S 3739   1.435   1.764   7.662  1.8757 -0.5518 -1.7138
   28SAPC  C214 3740   1.502   1.743   7.869 -0.6045  1.0903  0.3556
   28SAPC  H14R 3741   1.590   1.809   7.875  1.2166 -1.1171 -0.6161
   28SAPC  C215 3742   1.439   1.725   7.990  0.4882 -0.9667 -0.3763
   28SAPC  H15R 3743   1.488   1.765   8.081  0.2718 -3.1106  0.7486
   28SAPC  C216 3744   1.326   1.627   8.012 -0.0476  0.1382 -0.1733
   28SAPC  H16R 3745   1.264   1.638   7.921 -0.4514  2.2763  0.2964
   28SAPC  H16S 3746   1.256   1.660   8.091  1.2401 -0.1421  1.1280
   28SAPC  C217 3747   1.360   1.475   8.042 -0.8405 -0.3004 -0.2000
   28SAPC  H17R 3748   1.404   1.461   8.143 -2.4577  0.5259  0.6626
   28SAPC  H17S 3749   1.433   1.423   7.977  0.9187  2.1606 -0.3382
   28SAPC  C218 3750   1.245   1.372   8.039 -0.3090 -0.4530 -0.4441
   28SAPC  H18R 3751   1.293   1.273   8.026  1.8203  0.6503 -1.4789
   28SAPC  H18S 3752   1.179   1.396   7.953 -2.2256 -0.6095  0.9064
   28SAPC  C219 3753   1.156   1.368   8.169  0.0338  0.3747  0.2378
   28SAPC  H19R 3754   1.126   1.473   8.187 -2.7815 -0.0019 -1.5110
   28SAPC  H19S 3755   1.213   1.331   8.256 -1.1104 -2.6842 -0.1626
   28SAPC  C220 3756   1.033   1.294   8.148 -0.1510 -0.3676  0.5650
   28SAPC  H20R 3757   0.957   1.323   8.224 -2.6723 -0.9449 -1.5892
   28SAPC  H20S 3758   1.054   1.185   8.157  0.5105 -0.4307 -1.2833
   28SAPC  H20T 3759   0.997   1.309   8.045  1.8375 -1.3665 -0.3385
   28SAPC   C33 3760   2.302   1.324   7.191 -0.0860  0.5800  0.1755
   28SAPC   H3X 3761   2.360   1.316   7.285  1.4028  0.5481 -0.7087
   28SAPC   H3Y 3762   2.305   1.224   7.142 -0.8575  1.0029 -0.7734
   28SAPC   C34 3763   2.151   1.353   7.221 -0.9836 -0.6349  0.3504
   28SAPC   H4X 3764   2.103   1.277   7.156  1.3953 -1.1010 -1.0048
   28SAPC   H4Y 3765   2.129   1.457   7.188  0.6631 -0.5065 -0.4622
   28SAPC   C35 3766   2.119   1.330   7.368 -0.7631 -0.5907 -1.4263
   28SAPC   H5X 3767   2.188   1.371   7.444 -2.3971 -0.1276 -0.1457
   28SAPC   H5Y 3768   2.110   1.220   7.381 -0.1984 -0.3664  1.5808
   28SAPC   C36 3769   1.982   1.383   7.393  0.1533 -0.6576  0.4655
   28SAPC   H6X 3770   1.916   1.368   7.305  0.2291 -2.3971  0.6755
   28SAPC   H6Y 3771   1.975   1.493   7.409 -0.2918 -0.6991  0.5774
   28SAPC   C37 3772   1.896   1.312   7.501 -0.0189 -0.3898  0.7734
   28SAPC   H7X 3773   1.904   1.203   7.486  1.1328 -0.1212 -0.8130
   28SAPC   H7Y 3774   1.789   1.328   7.473  0.1942 -0.9452 -0.3821
   28SAPC   C38 3775   1.922   1.351   7.647  0.1979  0.2770  0.0245
   28SAPC   H8X 3776   1.912   1.462   7.651  1.8212  0.4732 -0.4949
   28SAPC   H8Y 3777   2.027   1.336   7.680 -0.4459 -0.3173  1.9210
   28SAPC   C39 3778   1.817   1.285   7.733 -0.2172 -0.3130  0.5375
   28SAPC   H9X 3779   1.795   1.186   7.687 -1.0901  0.3034 -0.4322
   28SAPC   H9Y 3780   1.719   1.335   7.716  0.1198  1.9722  4.2402
   28SAPC  C310 3781   1.853   1.277   7.887  0.4410  0.4840  0.6245
   28SAPC  H10X 3782   1.890   1.378   7.915 -0.4331  0.7598  0.8339
   28SAPC  H10Y 3783   1.939   1.212   7.913  0.1204 -0.1788  0.0450
   28SAPC  C311 3784   1.727   1.238   7.967 -0.6198  0.3390 -0.2357
   28SAPC  H11X 3785   1.684   1.143   7.928 -0.6041  0.1363  0.2220
   28SAPC  H11Y 3786   1.646   1.311   7.947 -0.3694  1.2754  1.8467
   28SAPC  C312 3787   1.739   1.244   8.121  0.1912  0.1734 -0.0192
   28SAPC  H12X 3788   1.756   1.352   8.143  1.0762  0.1087 -0.3243
   28SAPC  H12Y 3789   1.838   1.196   8.135  0.3436  1.0922  2.6081
   28SAPC  C313 3790   1.625   1.179   8.192  0.0645 -0.5584 -0.3777
   28SAPC  H13X 3791   1.635   1.070   8.174  1.1257 -1.1306  2.9637
   28SAPC  H13Y 3792   1.527   1.212   8.153  0.2930  2.5243  1.3015
   28SAPC  C314 3793   1.629   1.195   8.345 -0.0817 -0.0450 -0.2601
   28SAPC  H14X 3794   1.528   1.173   8.386 -0.3248  0.4954 -0.5520
   28SAPC  H14Y 3795   1.661   1.299   8.369  0.4555  0.4333 -2.7681
   28SAPC  C315 3796   1.720   1.096   8.420  0.2135 -0.0823 -0.6774
   28SAPC  H15X 3797   1.819   1.144   8.400 -0.7389  1.0180 -3.1421
   28SAPC  H15Y 3798   1.717   0.992   8.381  0.6926 -0.5267  0.4198
   28SAPC  C316 3799   1.701   1.081   8.567  0.9319  0.3830 -0.0968
   28SAPC  H16X 3800   1.602   1.035   8.589  0.5596  0.4357 -1.5675
   28SAPC  H16Y 3801   1.675   1.178   8.615 -1.0278  0.0878 -0.4822
   28SAPC  C317 3802   1.820   1.008   8.636 -0.7089  0.3108 -0.4291
   28SAPC  H17X 3803   1.820   1.012   8.747 -0.2229 -0.0193 -0.4145
   28SAPC  H17Y 3804   1.917   1.047   8.599 -0.1837 -1.9115 -1.5238
   28SAPC  C318 3805   1.816   0.858   8.612  0.3328  0.4713  0.0414
   28SAPC  H18X 3806   1.721   0.821   8.657  1.2981 -1.6656  0.4309
   28SAPC  H18Y 3807   1.892   0.805   8.672  1.0861  0.3790 -0.9734
   28SAPC  H18Z 3808   1.831   0.817   8.509  1.9112  1.0151  0.0410
   29SAPC     N 3809   2.464   2.162   6.629  0.1125  0.2583 -0.2987
   29SAPC   C12 3810   2.566   2.120   6.532  0.0766  0.1297  0.4715
   29SAPC  H12A 3811   2.543   2.014   6.522 -1.6070  0.6654 -2.7732
   29SAPC  H12B 3812   2.665   2.130   6.572  0.8199 -1.7994 -0.7249
   29SAPC   C13 3813   2.325   2.131   6.570 -0.3854 -0.0703 -0.2677
   29SAPC  H13A 3814   2.301   2.188   6.481 -1.2669 -0.3937 -0.2541
   29SAPC  H13B 3815   2.325   2.030   6.532  0.4937 -0.7215  1.3563
   29SAPC  H13C 3816   2.247   2.141   6.644  0.6503 -1.9860  1.1641
   29SAPC   C14 3817   2.473   2.081   6.758  0.2860 -0.1493  0.2873
   29SAPC  H14A 3818   2.576   2.093   6.788  0.6090 -1.2424 -0.3593
   29SAPC  H14B 3819   2.398   2.106   6.832  2.1349 -0.1851  2.2501
   29SAPC  H14C 3820   2.460   1.976   6.738 -1.2071 -0.2723  1.6230
   29SAPC   C15 3821   2.462   2.312   6.661 -0.1127  1.0674 -0.2121
   29SAPC  H15A 3822   2.449   2.374   6.574  1.7773  1.3334 -0.3446
   29SAPC  H15B 3823   2.381   2.335   6.728  0.2011  1.3136  0.0847
   29SAPC  H15C 3824   2.556   2.343   6.704  0.6970 -0.8958 -0.4496
   29SAPC   C11 3825   2.547   2.185   6.393 -0.3523 -0.7388 -0.2466
   29SAPC  H11A 3826   2.529   2.295   6.401  1.2168 -0.3346 -1.8381
   29SAPC  H11B 3827   2.460   2.131   6.350 -0.4851 -1.1625  0.5417
   29SAPC     P 3828   2.793   2.201   6.325 -0.4468 -0.0733 -0.1571
   29SAPC   O13 3829   2.868   2.172   6.205  0.9861 -0.1192  0.6026
   29SAPC   O14 3830   2.796   2.333   6.386 -0.7950  0.1588  0.1897
   29SAPC   O12 3831   2.649   2.158   6.297 -0.0554  0.0924 -0.1900
   29SAPC   O11 3832   2.836   2.098   6.435 -0.5229  1.1734 -0.2930
   29SAPC    C1 3833   2.957   2.130   6.517  0.4724  0.6100  0.2116
   29SAPC    HA 3834   3.022   2.041   6.505 -1.9815 -0.9893 -3.0406
   29SAPC    HB 3835   3.015   2.217   6.479  0.0715  0.3599 -1.0470
   29SAPC    C2 3836   2.928   2.146   6.671  0.1916 -0.5016 -0.3407
   29SAPC    HS 3837   3.025   2.132   6.724 -0.1933 -2.1726 -0.0531
   29SAPC   O21 3838   2.833   2.046   6.716  0.4421  0.0925 -0.1047
   29SAPC   C21 3839   2.868   1.922   6.708 -0.0481 -0.7841 -0.3933
   29SAPC   O22 3840   2.976   1.878   6.670 -0.1601  0.0701 -0.6449
   29SAPC   C22 3841   2.738   1.838   6.739  0.1052  0.0888  0.2522
   29SAPC   H2R 3842   2.654   1.871   6.674  1.6858 -0.0700 -1.9739
   29SAPC   H2S 3843   2.767   1.735   6.707 -0.5306  0.0784 -0.3038
   29SAPC    C3 3844   2.873   2.289   6.702  0.9772 -0.2770 -0.3152
   29SAPC    HX 3845   2.774   2.302   6.654  1.4930 -2.0631 -2.0036
   29SAPC    HY 3846   2.932   2.364   6.646 -1.3103  1.3403 -0.7101
   29SAPC   O31 3847   2.875   2.322   6.841  0.1155  0.9783 -0.2181
   29SAPC   C31 3848   2.767   2.313   6.917 -0.6330 -0.3943 -0.3185
   29SAPC   O32 3849   2.663   2.264   6.880 -0.0631 -0.0347  0.2327
   29SAPC   C32 3850   2.802   2.363   7.057  0.0615 -0.7221  0.3846
   29SAPC   H2X 3851   2.755   2.461   7.078 -1.2142 -1.1733 -0.2240
   29SAPC   H2Y 3852   2.912   2.377   7.062 -0.0179 -0.3019  1.0413
   29SAPC   C23 3853   2.707   1.850   6.885  0.3723 -0.3684 -0.1820
   29SAPC   H3R 3854   2.610   1.796   6.889 -1.0317  1.9563 -1.1442
   29SAPC   H3S 3855   2.680   1.950   6.923 -1.4672 -1.6758  2.2696
   29SAPC   C24 3856   2.808   1.790   6.979 -0.1531 -0.3297  0.5136
   29SAPC   H4R 3857   2.859   1.876   7.028  3.0231 -2.3053  0.9794
   29SAPC   H4S 3858   2.886   1.734   6.923  0.9170  0.3900  1.2528
   29SAPC   C25 3859   2.758   1.691   7.076  0.1504 -0.2453 -0.0489
   29SAPC   H5R 3860   2.764   1.588   7.038  1.2955 -1.2672  2.6743
   29SAPC   C26 3861   2.713   1.710   7.199 -0.6318 -0.2196  0.4306
   29SAPC   H6R 3862   2.665   1.625   7.251  0.1238 -0.6624  0.4122
   29SAPC   C27 3863   2.710   1.841   7.281  1.0105 -0.7879 -0.2450
   29SAPC   H7R 3864   2.813   1.881   7.281  0.9637 -0.6479 -0.8493
   29SAPC   H7S 3865   2.719   1.817   7.389  0.1819  1.6183  0.4174
   29SAPC   C28 3866   2.586   1.935   7.260 -0.4596 -0.2685  0.4618
   29SAPC   H8R 3867   2.600   2.013   7.184 -0.4027  0.0244  0.7726
   29SAPC   C29 3868   2.470   1.922   7.331 -0.0657 -0.0282  0.6082
   29SAPC   H9R 3869   2.387   1.994   7.315  0.8753  0.7458 -1.1349
   29SAPC  C210 3870   2.433   1.819   7.434 -0.5307 -0.9842  0.6540
   29SAPC  H10R 3871   2.519   1.784   7.495  0.3419  3.9890  2.6859
   29SAPC  H10S 3872   2.387   1.728   7.388 -0.9926 -0.7484  0.6413
   29SAPC  C211 3873   2.326   1.870   7.529 -0.0899 -0.5394  0.1423
   29SAPC  H11R 3874   2.257   1.945   7.488  0.7883  0.4384  0.4155
   29SAPC  C212 3875   2.309   1.828   7.654 -0.1211  0.2837  0.4278
   29SAPC  H12R 3876   2.240   1.881   7.721  0.5174  0.0755  1.2664
   29SAPC  C213 3877   2.392   1.732   7.730 -0.5507  0.2385  0.2534
   29SAPC  H13R 3878   2.395   1.634   7.679  0.6008  0.2758  0.2419
   29SAPC  H13S 3879   2.347   1.702   7.827  0.0921 -2.6500 -0.2735
   29SAPC  C214 3880   2.534   1.780   7.763  0.8543  1.0581 -0.0461
   29SAPC  H14R 3881   2.566   1.873   7.715  0.3307  1.1492 -0.2274
   29SAPC  C215 3882   2.621   1.718   7.847  0.1813  0.1248 -0.6171
   29SAPC  H15R 3883   2.708   1.781   7.871  0.8684 -0.5225 -1.3812
   29SAPC  C216 3884   2.604   1.602   7.936 -0.0881  0.3235  0.1387
   29SAPC  H16R 3885   2.681   1.527   7.906 -1.7655 -2.1625  1.5750
   29SAPC  H16S 3886   2.513   1.539   7.924  1.1993 -1.3656 -1.3394
   29SAPC  C217 3887   2.618   1.638   8.082  0.3025 -0.4278  0.0824
   29SAPC  H17R 3888   2.719   1.680   8.098  0.4624  0.3274 -2.4545
   29SAPC  H17S 3889   2.615   1.545   8.143 -0.9153  0.1868  1.0096
   29SAPC  C218 3890   2.506   1.730   8.128  0.6431 -0.8731  0.0937
   29SAPC  H18R 3891   2.406   1.688   8.106  0.5584 -1.6208  1.7731
   29SAPC  H18S 3892   2.526   1.822   8.069  0.4265 -0.2925  0.9038
   29SAPC  C219 3893   2.529   1.760   8.274 -0.1122 -0.1783 -0.0943
   29SAPC  H19R 3894   2.636   1.784   8.296 -1.0272  3.2675  1.2867
   29SAPC  H19S 3895   2.495   1.664   8.318 -1.0343  0.7311  1.2787
   29SAPC  C220 3896   2.451   1.875   8.319 -0.6334 -0.2845 -0.3032
   29SAPC  H20R 3897   2.355   1.885   8.263 -0.5658 -0.4925 -0.4600
   29SAPC  H20S 3898   2.499   1.974   8.305 -0.3202 -0.2389  0.9872
   29SAPC  H20T 3899   2.414   1.859   8.423 -1.2673 -0.0105 -0.4809
   29SAPC   C33 3900   2.766   2.260   7.159 -0.0855  0.6351  0.9150
   29SAPC   H3X 3901   2.827   2.168   7.157  1.7154  1.7448  1.6746
   29SAPC   H3Y 3902   2.659   2.233   7.147  0.7496 -2.0692 -1.3927
   29SAPC   C34 3903   2.796   2.310   7.303 -0.2027 -0.6712 -0.2565
   29SAPC   H4X 3904   2.725   2.394   7.318 -0.0029 -0.3500 -1.0806
   29SAPC   H4Y 3905   2.902   2.340   7.315  0.3178 -1.1234 -3.0167
   29SAPC   C35 3906   2.757   2.198   7.398  0.4851 -0.5239  0.2459
   29SAPC   H5X 3907   2.812   2.108   7.364  1.3033  0.3793 -0.8652
   29SAPC   H5Y 3908   2.647   2.179   7.397  0.1808  1.1440 -0.4009
   29SAPC   C36 3909   2.810   2.227   7.540  0.2119 -0.2735 -0.1623
   29SAPC   H6X 3910   2.761   2.323   7.566  1.8959  0.2207  1.4220
   29SAPC   H6Y 3911   2.920   2.243   7.551  0.0489  0.5864  0.2426
   29SAPC   C37 3912   2.776   2.117   7.644  0.3555 -0.3577  0.0269
   29SAPC   H7X 3913   2.830   2.027   7.607  1.4199 -0.2931  1.3479
   29SAPC   H7Y 3914   2.666   2.101   7.646  0.0794  0.9836 -1.5167
   29SAPC   C38 3915   2.826   2.152   7.777  0.2037 -0.9263 -0.6697
   29SAPC   H8X 3916   2.784   2.249   7.811 -0.7601 -1.3491 -0.6327
   29SAPC   H8Y 3917   2.937   2.161   7.771  0.4423 -2.4602  0.8580
   29SAPC   C39 3918   2.796   2.050   7.885 -0.0680  0.7031  1.0691
   29SAPC   H9X 3919   2.811   1.945   7.854  0.8684  1.0670  0.1939
   29SAPC   H9Y 3920   2.686   2.059   7.889 -0.1027  1.1338 -0.1646
   29SAPC  C310 3921   2.865   2.093   8.008  0.9754  0.1061 -0.1292
   29SAPC  H10X 3922   2.805   2.176   8.051 -0.5819 -0.1437 -1.7047
   29SAPC  H10Y 3923   2.966   2.134   7.985  3.0232 -3.6242  1.2267
   29SAPC  C311 3924   2.875   1.993   8.118  0.5645 -0.4076 -0.5800
   29SAPC  H11X 3925   2.939   1.910   8.083  1.3370  0.5088 -1.4230
   29SAPC  H11Y 3926   2.774   1.952   8.134 -0.6704  2.8246  0.8991
   29SAPC  C312 3927   2.927   2.040   8.258  0.0996 -0.1990  0.3772
   29SAPC  H12X 3928   2.874   2.134   8.281 -1.1191 -0.6269 -0.5728
   29SAPC  H12Y 3929   3.035   2.066   8.253 -0.0858  0.4159 -2.2723
   29SAPC  C313 3930   2.903   1.936   8.365  0.0453 -0.6399  0.3668
   29SAPC  H13X 3931   2.967   1.845   8.357  0.7765 -0.0367 -1.3344
   29SAPC  H13Y 3932   2.800   1.895   8.365  0.3382 -1.3911  0.4407
   29SAPC  C314 3933   2.931   1.998   8.501  0.7174 -0.8218 -0.0695
   29SAPC  H14X 3934   3.031   2.046   8.494 -0.3781  1.4865 -1.0376
   29SAPC  H14Y 3935   2.937   1.933   8.591  1.0944 -0.3229  0.2675
   29SAPC  C315 3936   2.838   2.122   8.541 -0.5897 -0.2112 -1.2334
   29SAPC  H15X 3937   2.829   2.210   8.473  1.6643  2.2054  1.3631
   29SAPC  H15Y 3938   2.876   2.161   8.637 -1.0403 -1.5930 -0.4734
   29SAPC  C316 3939   2.687   2.076   8.561 -0.4834 -0.0347  0.5944
   29SAPC  H16X 3940   2.703   1.976   8.607  0.6757  0.0180  0.3392
   29SAPC  H16Y 3941   2.635   2.060   8.465 -2.0219  1.2186  1.1926
   29SAPC  C317 3942   2.584   2.166   8.640 -0.3705  0.1759 -0.1458
   29SAPC  H17X 3943   2.594   2.269   8.599 -1.0318  0.8843  1.4185
   29SAPC  H17Y 3944   2.615   2.172   8.746 -1.6718 -0.4378  0.2833
   29SAPC  C318 3945   2.438   2.114   8.626 -0.6467 -0.0848  0.7098
   29SAPC  H18X 3946   2.416   2.115   8.517 -2.4498 -0.5624  1.0311
   29SAPC  H18Y 3947   2.374   2.189   8.678 -1.1099  0.0492 -0.0431
   29SAPC  H18Z 3948   2.422   2.009   8.658 -1.2062 -0.8570 -1.8546
   30SAPC     N 3949   5.069   2.098   5.812 -0.0604 -0.2239  0.0940
   30SAPC   C12 3950   5.037   2.062   5.951  0.4601 -0.3852 -0.0665
   30SAPC  H12A 3951   5.125   2.089   6.008  0.2774  2.2447 -0.8961
   30SAPC  H12B 3952   5.031   1.954   5.958  0.8219 -0.2872  2.6678
   30SAPC   C13 3953   5.054   2.249   5.802  0.2388 -0.1478 -0.0312
   30SAPC  H13A 3954   5.135   2.296   5.857 -0.0634 -0.4353  0.6712
   30SAPC  H13B 3955   5.057   2.285   5.700  1.4673 -0.2523 -0.0448
   30SAPC  H13C 3956   4.960   2.277   5.847  0.0494  0.0370 -0.5404
   30SAPC   C14 3957   5.212   2.074   5.780 -0.1610  1.0930 -0.5442
   30SAPC  H14A 3958   5.240   2.099   5.679 -0.8922 -0.3215 -1.1218
   30SAPC  H14B 3959   5.277   2.124   5.851 -0.5351 -0.7298  1.1636
   30SAPC  H14C 3960   5.233   1.969   5.793 -0.8320  0.9095 -0.9076
   30SAPC   C15 3961   4.979   2.032   5.714 -0.4277  0.5242  0.3849
   30SAPC  H15A 3962   4.874   2.057   5.724 -0.2758  0.8718  1.2091
   30SAPC  H15B 3963   5.008   2.066   5.616  1.6481 -0.0386  0.7520
   30SAPC  H15C 3964   4.988   1.926   5.732  0.7329  0.8309  1.8412
   30SAPC   C11 3965   4.904   2.120   6.009  0.0601  0.0726  0.5656
   30SAPC  H11A 3966   4.873   2.055   6.093 -1.4361 -0.1425 -0.1226
   30SAPC  H11B 3967   4.828   2.115   5.927  0.0802  0.3012  0.5312
   30SAPC     P 3968   4.825   2.328   6.139  0.1309  0.1401 -0.2514
   30SAPC   O13 3969   4.902   2.376   6.261 -0.2216 -0.5791 -0.0937
   30SAPC   O14 3970   4.749   2.424   6.050 -0.2512 -0.2707  0.6306
   30SAPC   O12 3971   4.937   2.255   6.052 -0.0497  0.5812 -0.0058
   30SAPC   O11 3972   4.726   2.206   6.182 -0.1042 -0.3564  0.3745
   30SAPC    C1 3973   4.686   2.190   6.320 -0.8790  0.0533  0.8927
   30SAPC    HA 3974   4.717   2.269   6.391  2.9865 -1.0932  0.6664
   30SAPC    HB 3975   4.576   2.189   6.336 -1.4039 -0.1023 -2.0771
   30SAPC    C2 3976   4.748   2.059   6.370 -0.6072  0.4790  0.1272
   30SAPC    HS 3977   4.751   1.991   6.282 -0.5096  0.4127  0.1806
   30SAPC   O21 3978   4.673   1.990   6.467 -0.0603  0.3025 -0.5704
   30SAPC   C21 3979   4.557   1.940   6.440 -0.3425  0.1919  0.0335
   30SAPC   O22 3980   4.491   1.966   6.341  0.4496  0.2545  0.2628
   30SAPC   C22 3981   4.523   1.833   6.542  0.0043 -0.0923 -0.2038
   30SAPC   H2R 3982   4.580   1.861   6.633 -1.3480 -1.4525  1.1199
   30SAPC   H2S 3983   4.414   1.847   6.559 -0.1516 -2.7439  1.6641
   30SAPC    C3 3984   4.891   2.077   6.421  1.2705  0.1158  0.6362
   30SAPC    HX 3985   4.895   2.179   6.464  2.7035  0.5971 -0.5787
   30SAPC    HY 3986   4.962   2.082   6.335 -0.0958  0.5760 -0.4955
   30SAPC   O31 3987   4.947   1.975   6.503  0.0947 -0.2989  0.6891
   30SAPC   C31 3988   4.959   2.010   6.630  0.0997 -0.4205 -0.6475
   30SAPC   O32 3989   4.913   2.112   6.685 -0.3751  0.4596 -0.4562
   30SAPC   C32 3990   5.049   1.906   6.696 -0.7266 -0.3700  0.6035
   30SAPC   H2X 3991   5.152   1.940   6.669 -1.6313  0.0752 -2.8008
   30SAPC   H2Y 3992   5.015   1.806   6.663 -1.3408 -0.1016  0.4095
   30SAPC   C23 3993   4.552   1.685   6.501  0.5793  0.1619  1.2304
   30SAPC   H3R 3994   4.647   1.688   6.444  0.1698  2.2079  0.5723
   30SAPC   H3S 3995   4.480   1.648   6.425  0.7064  0.6502  0.8699
   30SAPC   C24 3996   4.563   1.591   6.623  0.4266  0.5206 -0.4492
   30SAPC   H4R 3997   4.565   1.490   6.577 -1.6679  0.4192 -0.4339
   30SAPC   H4S 3998   4.475   1.604   6.690  0.0511  1.2057 -1.0551
   30SAPC   C25 3999   4.683   1.626   6.711 -0.0918 -0.1714  0.5564
   30SAPC   H5R 4000   4.781   1.592   6.674  0.3105  0.5249  0.9645
   30SAPC   C26 4001   4.687   1.689   6.831  0.4785 -0.3859 -0.1752
   30SAPC   H6R 4002   4.791   1.691   6.867  0.2435 -0.9441  0.5866
   30SAPC   C27 4003   4.564   1.731   6.912  0.1787 -0.5557 -0.3934
   30SAPC   H7R 4004   4.476   1.666   6.891 -0.6335  1.1461 -2.8252
   30SAPC   H7S 4005   4.516   1.821   6.869  0.4485  0.0289  0.5164
   30SAPC   C28 4006   4.590   1.763   7.059  0.2433  0.2471 -0.5601
   30SAPC   H8R 4007   4.601   1.870   7.080 -1.9412  0.2594  0.8521
   30SAPC   C29 4008   4.586   1.674   7.164 -0.2354 -1.7496  0.8202
   30SAPC   H9R 4009   4.599   1.725   7.261  2.5606  0.7360 -0.7193
   30SAPC  C210 4010   4.565   1.529   7.142  0.6198  0.6343  0.9034
   30SAPC  H10R 4011   4.610   1.493   7.048  0.7780  0.2828  1.1150
   30SAPC  H10S 4012   4.457   1.501   7.141  0.3806  1.3800 -1.8315
   30SAPC  C211 4013   4.626   1.449   7.253 -0.1734  0.2707 -0.0578
   30SAPC  H11R 4014   4.734   1.436   7.237 -0.3729  0.6465 -1.8836
   30SAPC  C212 4015   4.565   1.388   7.357 -0.0330 -0.2199  0.7920
   30SAPC  H12R 4016   4.627   1.335   7.430  0.9749 -0.5889 -0.3073
   30SAPC  C213 4017   4.416   1.376   7.384  0.2485 -0.6211 -0.0023
   30SAPC  H13R 4018   4.348   1.446   7.331 -0.4115 -3.1797 -2.7518
   30SAPC  H13S 4019   4.393   1.400   7.490  0.0122  0.0893 -0.2091
   30SAPC  C214 4020   4.375   1.233   7.357  0.2527  0.1871 -0.1224
   30SAPC  H14R 4021   4.326   1.215   7.260  2.4964  0.8881 -1.4476
   30SAPC  C215 4022   4.378   1.123   7.442 -0.2069 -0.1009  0.1323
   30SAPC  H15R 4023   4.325   1.035   7.404 -0.9072  0.7594 -0.9311
   30SAPC  C216 4024   4.438   1.134   7.575 -0.5279  0.1425 -0.4506
   30SAPC  H16R 4025   4.423   1.237   7.611 -2.5393 -0.2598  0.0188
   30SAPC  H16S 4026   4.547   1.111   7.571 -0.4912  0.2094  0.2080
   30SAPC  C217 4027   4.379   1.035   7.679  0.4802  0.3056 -0.3186
   30SAPC  H17R 4028   4.397   0.929   7.651 -1.5876  0.1953 -1.4835
   30SAPC  H17S 4029   4.269   1.045   7.664  0.8727  2.1405 -2.5963
   30SAPC  C218 4030   4.401   1.058   7.831  0.6803  0.3089  0.5946
   30SAPC  H18R 4031   4.365   1.159   7.859 -0.2944  0.3679 -0.7665
   30SAPC  H18S 4032   4.510   1.068   7.850  1.1134 -0.2257 -1.3447
   30SAPC  C219 4033   4.327   0.947   7.916 -0.3514 -0.6251 -0.2559
   30SAPC  H19R 4034   4.372   0.852   7.882 -0.9425 -1.1135  0.3093
   30SAPC  H19S 4035   4.218   0.951   7.897 -0.9038  1.5966  2.5910
   30SAPC  C220 4036   4.356   0.973   8.061 -0.0156  1.0721 -0.5547
   30SAPC  H20R 4037   4.327   0.885   8.122  3.8036  0.5836  0.8339
   30SAPC  H20S 4038   4.298   1.063   8.092  0.8674  1.3769  0.2731
   30SAPC  H20T 4039   4.464   0.993   8.077  0.3777 -0.9943 -0.3558
   30SAPC   C33 4040   5.048   1.917   6.850  0.2829  0.0353 -0.0111
   30SAPC   H3X 4041   4.942   1.909   6.884 -0.7499  0.7868 -2.7846
   30SAPC   H3Y 4042   5.092   2.016   6.873 -0.6169  0.0490  1.8067
   30SAPC   C34 4043   5.125   1.802   6.913 -0.0780 -0.1616  0.4112
   30SAPC   H4X 4044   5.228   1.790   6.875  0.4587  2.3018  0.9230
   30SAPC   H4Y 4045   5.071   1.705   6.904 -1.1296  0.4127  0.3128
   30SAPC   C35 4046   5.133   1.833   7.058  0.4831  0.7673 -0.8794
   30SAPC   H5X 4047   5.182   1.929   7.083  2.4118 -0.0893 -1.2149
   30SAPC   H5Y 4048   5.206   1.755   7.089  0.9745 -0.1276 -3.9717
   30SAPC   C36 4049   5.007   1.791   7.136  0.2726  0.3825 -0.2410
   30SAPC   H6X 4050   4.972   1.691   7.105 -0.8690 -0.1624  2.5171
   30SAPC   H6Y 4051   4.922   1.857   7.108 -0.2515 -0.8088 -1.5637
   30SAPC   C37 4052   5.024   1.781   7.289  0.1459 -0.1547 -0.0365
   30SAPC   H7X 4053   5.070   1.874   7.330  2.4336 -1.1295 -0.2725
   30SAPC   H7Y 4054   5.102   1.707   7.317  0.0471  0.0089  0.6979
   30SAPC   C38 4055   4.886   1.730   7.353 -0.4222  0.0035  0.1974
   30SAPC   H8X 4056   4.858   1.635   7.304  0.7257 -0.0725 -0.3418
   30SAPC   H8Y 4057   4.808   1.806   7.331 -0.4365 -0.0334  0.1225
   30SAPC   C39 4058   4.910   1.706   7.505  0.5634 -0.3418 -0.3572
   30SAPC   H9X 4059   4.932   1.798   7.563 -3.5249  0.6257 -0.0684
   30SAPC   H9Y 4060   4.991   1.630   7.512  1.6388  0.7968  0.0904
   30SAPC  C310 4061   4.781   1.641   7.567 -0.2969 -0.8837 -0.1645
   30SAPC  H10X 4062   4.740   1.564   7.498 -1.6519 -1.8072  1.5849
   30SAPC  H10Y 4063   4.701   1.718   7.573 -0.1948 -0.7560 -0.4072
   30SAPC  C311 4064   4.809   1.601   7.713  0.1238  0.0051  0.8317
   30SAPC  H11X 4065   4.856   1.688   7.763  1.6078 -1.7935  2.6849
   30SAPC  H11Y 4066   4.890   1.526   7.709  1.4061  1.2705  2.2021
   30SAPC  C312 4067   4.677   1.540   7.770 -0.3037  0.3770 -0.3585
   30SAPC  H12X 4068   4.651   1.447   7.715 -1.4259 -0.4095  1.3954
   30SAPC  H12Y 4069   4.595   1.609   7.744 -1.0355 -0.7689 -1.1527
   30SAPC  C313 4070   4.675   1.533   7.919  0.4645 -0.0247 -0.6395
   30SAPC  H13X 4071   4.661   1.634   7.963  0.2006  0.1160 -1.0386
   30SAPC  H13Y 4072   4.774   1.502   7.957  0.6887  2.2511  0.7963
   30SAPC  C314 4073   4.559   1.445   7.964 -0.2307  0.4860  0.6016
   30SAPC  H14X 4074   4.579   1.336   7.951  0.8729  1.0628 -4.4595
   30SAPC  H14Y 4075   4.470   1.461   7.900  0.9292 -0.3984 -1.3071
   30SAPC  C315 4076   4.497   1.458   8.110 -0.3092 -0.3328  0.9602
   30SAPC  H15X 4077   4.496   1.567   8.134  1.7130  0.0221 -0.3096
   30SAPC  H15Y 4078   4.575   1.416   8.178  0.4838  0.5941  0.6541
   30SAPC  C316 4079   4.364   1.388   8.119  0.3317  0.3626  0.2950
   30SAPC  H16X 4080   4.375   1.280   8.097 -1.3159 -0.3750  2.6489
   30SAPC  H16Y 4081   4.282   1.417   8.049  0.3275 -0.6107 -0.1264
   30SAPC  C317 4082   4.301   1.378   8.265  0.6967  0.1549  0.7383
   30SAPC  H17X 4083   4.202   1.328   8.257  0.9536 -0.1656 -0.7131
   30SAPC  H17Y 4084   4.271   1.481   8.295  0.7706  0.2656  0.4340
   30SAPC  C318 4085   4.380   1.295   8.370 -0.1545  0.1597 -0.7158
   30SAPC  H18X 4086   4.315   1.250   8.448 -0.0731  0.0158 -0.7316
   30SAPC  H18Y 4087   4.455   1.357   8.424 -0.2827  0.4454 -0.8640
   30SAPC  H18Z 4088   4.436   1.219   8.312 -1.0685 -0.3842 -0.9024
   31SAPC     N 4089   5.417   5.138   6.144 -0.0032 -0.0323 -0.4525
   31SAPC   C12 4090   5.305   5.062   6.205  0.6524 -0.1840 -0.1733
   31SAPC  H12A 4091   5.317   4.956   6.192  0.9474 -0.4277  1.8624
   31SAPC  H12B 4092   5.229   5.089   6.133  0.1445  2.0398  1.1163
   31SAPC   C13 4093   5.376   5.278   6.115  0.3036  0.9247  0.3584
   31SAPC  H13A 4094   5.296   5.286   6.042 -0.9578  0.6571  1.6776
   31SAPC  H13B 4095   5.345   5.333   6.202  0.9379  2.1373 -0.1555
   31SAPC  H13C 4096   5.462   5.333   6.081  1.7505 -1.6565 -0.3645
   31SAPC   C14 4097   5.544   5.133   6.230 -0.5295  0.1494  0.0425
   31SAPC  H14A 4098   5.526   5.136   6.337  0.4613  2.2453  0.2091
   31SAPC  H14B 4099   5.593   5.041   6.204 -0.6572  0.3935 -1.1285
   31SAPC  H14C 4100   5.613   5.209   6.198 -0.3878  0.4725  1.0807
   31SAPC   C15 4101   5.462   5.082   6.011  0.6935 -0.7307 -0.2668
   31SAPC  H15A 4102   5.546   5.136   5.970  0.3110  2.4303  2.6395
   31SAPC  H15B 4103   5.494   4.980   6.027  2.2422 -0.0347  1.5349
   31SAPC  H15C 4104   5.379   5.090   5.943  0.3173  0.8327  0.3321
   31SAPC   C11 4105   5.266   5.089   6.353  0.4623 -1.1148  0.4147
   31SAPC  H11A 4106   5.359   5.066   6.409  0.1493 -1.1123  0.9400
   31SAPC  H11B 4107   5.190   5.011   6.375 -0.9300 -0.7762 -2.6561
   31SAPC     P 4108   5.063   5.255   6.355 -0.0408 -0.0884  0.0899
   31SAPC   O13 4109   5.041   5.401   6.351 -0.1789  0.2769 -0.1181
   31SAPC   O14 4110   5.002   5.171   6.245  0.3384 -0.3315 -0.4297
   31SAPC   O12 4111   5.222   5.225   6.376 -0.0023  0.2599  0.3787
   31SAPC   O11 4112   5.014   5.205   6.494 -0.2451  0.0091 -0.3081
   31SAPC    C1 4113   5.057   5.262   6.616 -0.1913 -0.4440 -0.5553
   31SAPC    HA 4114   5.098   5.364   6.598  0.2211 -0.8543 -2.0240
   31SAPC    HB 4115   4.973   5.262   6.690  0.0790 -0.6578 -0.2480
   31SAPC    C2 4116   5.171   5.181   6.678 -0.3393 -0.1932 -0.6749
   31SAPC    HS 4117   5.260   5.189   6.613 -1.5664 -1.0827 -2.5483
   31SAPC   O21 4118   5.135   5.048   6.704  0.5084 -0.1685 -0.0065
   31SAPC   C21 4119   5.234   4.967   6.724  1.1230 -0.3737 -0.1589
   31SAPC   O22 4120   5.347   4.992   6.710  0.2924  0.3410 -0.1129
   31SAPC   C22 4121   5.175   4.829   6.753  0.6388  0.6267 -0.3236
   31SAPC   H2R 4122   5.065   4.841   6.758  0.5228 -0.4872 -0.0405
   31SAPC   H2S 4123   5.204   4.767   6.666 -0.5399 -0.0837 -0.2281
   31SAPC    C3 4124   5.218   5.247   6.814  0.3056 -0.1595 -0.0242
   31SAPC    HX 4125   5.243   5.353   6.792  0.1132  0.0015  0.5169
   31SAPC    HY 4126   5.319   5.212   6.842  0.2529  0.2683  0.7532
   31SAPC   O31 4127   5.114   5.230   6.915  0.2363  0.1529  0.2921
   31SAPC   C31 4128   5.132   5.296   7.027  0.1181  0.5881  0.4758
   31SAPC   O32 4129   5.232   5.357   7.058 -0.5104 -0.6860 -0.6316
   31SAPC   C32 4130   5.014   5.265   7.114 -0.2663 -0.5574 -0.1726
   31SAPC   H2X 4131   4.987   5.158   7.099  0.5835 -0.9131  0.7386
   31SAPC   H2Y 4132   4.931   5.334   7.086  0.1303  0.2993  0.6734
   31SAPC   C23 4133   5.236   4.767   6.882  0.1495 -0.8178  0.2432
   31SAPC   H3R 4134   5.224   4.845   6.959 -0.0612 -0.1417 -0.4659
   31SAPC   H3S 4135   5.342   4.738   6.865  0.7442  0.8052  1.0540
   31SAPC   C24 4136   5.155   4.645   6.933  0.2712  0.0813  0.5204
   31SAPC   H4R 4137   5.160   4.559   6.862 -0.2684 -0.8889  1.6266
   31SAPC   H4S 4138   5.046   4.664   6.933 -0.2693 -2.5272  1.9624
   31SAPC   C25 4139   5.184   4.608   7.078  0.1102  0.3829  0.3117
   31SAPC   H5R 4140   5.247   4.518   7.090 -2.1524 -1.2275  0.7353
   31SAPC   C26 4141   5.133   4.674   7.184  0.5995 -0.1701 -1.4058
   31SAPC   H6R 4142   5.167   4.650   7.286  1.9865  1.5979 -1.3922
   31SAPC   C27 4143   5.042   4.802   7.181 -0.8070  0.4593  0.4187
   31SAPC   H7R 4144   4.940   4.765   7.202 -1.0753  0.2382 -1.1985
   31SAPC   H7S 4145   5.026   4.834   7.076  1.8346  0.2400 -0.1363
   31SAPC   C28 4146   5.083   4.918   7.265 -0.2798 -0.0167 -0.2543
   31SAPC   H8R 4147   5.142   4.992   7.209  0.5584 -0.3820  0.1409
   31SAPC   C29 4148   5.053   4.939   7.396 -0.1230  0.4533  0.5958
   31SAPC   H9R 4149   5.082   5.032   7.446  2.7606  1.1718 -2.0818
   31SAPC  C210 4150   4.982   4.835   7.480  0.1361  0.9098  0.3163
   31SAPC  H10R 4151   5.034   4.740   7.454 -0.0686  1.3459 -1.8304
   31SAPC  H10S 4152   4.874   4.834   7.454  0.5745 -1.8219 -1.8268
   31SAPC  C211 4153   4.985   4.869   7.620  0.3830  0.5577 -0.4741
   31SAPC  H11R 4154   4.900   4.934   7.645  0.5520  0.9760 -0.9589
   31SAPC  C212 4155   5.064   4.824   7.722 -0.0562 -0.1084 -0.1516
   31SAPC  H12R 4156   5.062   4.866   7.823 -0.9605 -2.2684  0.8030
   31SAPC  C213 4157   5.173   4.728   7.694 -0.4702 -0.1031 -0.3345
   31SAPC  H13R 4158   5.262   4.750   7.756 -1.4060 -1.8707  1.7408
   31SAPC  H13S 4159   5.217   4.746   7.593  3.5680  1.7046  1.4992
   31SAPC  C214 4160   5.156   4.581   7.709 -0.4132  0.2055  0.1735
   31SAPC  H14R 4161   5.166   4.527   7.614  1.2665  3.4046 -1.6429
   31SAPC  C215 4162   5.149   4.514   7.822  0.0641  0.2068 -0.0660
   31SAPC  H15R 4163   5.137   4.405   7.828 -1.5243  0.4402  3.0117
   31SAPC  C216 4164   5.162   4.582   7.963 -0.4296  0.0862  0.9675
   31SAPC  H16R 4165   5.140   4.690   7.973 -0.6517 -0.1181  3.1476
   31SAPC  H16S 4166   5.266   4.581   8.000  0.3633 -2.1495 -1.0676
   31SAPC  C217 4167   5.071   4.517   8.061  0.2447 -1.0756 -0.5171
   31SAPC  H17R 4168   5.073   4.406   8.055 -0.6043 -1.0130 -3.1874
   31SAPC  H17S 4169   4.969   4.548   8.029  0.5321  0.8362  0.2790
   31SAPC  C218 4170   5.105   4.568   8.203 -0.0404  0.1105 -0.2639
   31SAPC  H18R 4171   5.111   4.678   8.217  0.3315 -0.2737  3.8563
   31SAPC  H18S 4172   5.207   4.529   8.224 -0.9913 -1.7155  1.2584
   31SAPC  C219 4173   5.012   4.505   8.316 -0.5492 -0.0746 -0.3214
   31SAPC  H19R 4174   5.084   4.499   8.400 -0.5133 -0.1452 -0.3570
   31SAPC  H19S 4175   4.999   4.400   8.283 -0.8773  0.4408 -1.8811
   31SAPC  C220 4176   4.886   4.575   8.350 -0.5887 -0.0233 -0.3873
   31SAPC  H20R 4177   4.921   4.671   8.394 -0.3218 -0.3811  0.1926
   31SAPC  H20S 4178   4.818   4.513   8.412  1.9345 -1.5680  1.0156
   31SAPC  H20T 4179   4.835   4.608   8.257  0.5851  0.5063 -0.8684
   31SAPC   C33 4180   5.059   5.277   7.260 -0.1173 -0.2326 -0.2675
   31SAPC   H3X 4181   5.168   5.274   7.280 -0.3304 -1.3458  0.8560
   31SAPC   H3Y 4182   5.006   5.197   7.318 -0.9401  0.9500  0.6677
   31SAPC   C34 4183   5.008   5.406   7.318  0.2880 -0.2362  0.1780
   31SAPC   H4X 4184   4.899   5.424   7.306  0.6289  2.1035  0.0981
   31SAPC   H4Y 4185   5.060   5.486   7.262  1.7842 -0.9174  0.5297
   31SAPC   C35 4186   5.045   5.416   7.467 -0.1287 -0.5601 -0.2933
   31SAPC   H5X 4187   5.005   5.515   7.497 -2.0093 -2.0660  2.6493
   31SAPC   H5Y 4188   5.155   5.410   7.479  0.0692  1.6221 -0.5718
   31SAPC   C36 4189   4.975   5.315   7.566 -0.7805  0.4520  0.4686
   31SAPC   H6X 4190   4.997   5.211   7.537 -1.3920  1.4265 -4.3728
   31SAPC   H6Y 4191   4.865   5.329   7.554 -0.8000  0.1866  0.3292
   31SAPC   C37 4192   5.019   5.335   7.712 -0.5884  0.1945 -0.2316
   31SAPC   H7X 4193   5.033   5.440   7.744  5.7132 -0.7186  1.5209
   31SAPC   H7Y 4194   5.120   5.289   7.717 -1.0187 -1.0409 -1.9752
   31SAPC   C38 4195   4.922   5.252   7.796  0.3411  0.0941 -0.1465
   31SAPC   H8X 4196   4.906   5.156   7.743 -2.6146  0.4484 -0.0748
   31SAPC   H8Y 4197   4.824   5.303   7.791  0.4581  0.6017  1.8764
   31SAPC   C39 4198   4.978   5.231   7.939 -0.0208 -0.0227 -0.3312
   31SAPC   H9X 4199   5.008   5.331   7.977  0.6351 -0.0007 -0.9021
   31SAPC   H9Y 4200   5.074   5.176   7.931 -0.6521 -0.9956 -1.5993
   31SAPC  C310 4201   4.885   5.165   8.040  0.0563  0.0381 -0.7439
   31SAPC  H10X 4202   4.828   5.081   7.994 -1.8689  0.3468  0.9159
   31SAPC  H10Y 4203   4.820   5.243   8.086  1.9574  1.1930  0.0828
   31SAPC  C311 4204   4.969   5.097   8.149  0.6299 -0.2131 -0.1244
   31SAPC  H11X 4205   5.036   5.177   8.187 -0.8944  0.1036  2.1219
   31SAPC  H11Y 4206   5.027   5.019   8.096  1.3203  0.9208 -1.0917
   31SAPC  C312 4207   4.885   5.043   8.259 -0.4779  0.0431  0.2822
   31SAPC  H12X 4208   4.929   4.953   8.307  2.8194  1.0190 -0.6865
   31SAPC  H12Y 4209   4.794   4.998   8.214  0.8562  0.0206 -2.5826
   31SAPC  C313 4210   4.830   5.156   8.357 -0.4444  0.7561 -0.0930
   31SAPC  H13X 4211   4.775   5.229   8.294 -0.0920 -0.2882 -1.6667
   31SAPC  H13Y 4212   4.903   5.204   8.425 -0.5525  1.5535 -0.5234
   31SAPC  C314 4213   4.715   5.094   8.438  0.2523  0.2760 -0.4713
   31SAPC  H14X 4214   4.763   5.019   8.505  0.4197  0.9079  0.1319
   31SAPC  H14Y 4215   4.649   5.035   8.371  0.1282 -1.1285  0.8273
   31SAPC  C315 4216   4.636   5.195   8.518  0.6180  0.6160 -1.0296
   31SAPC  H15X 4217   4.591   5.269   8.449 -0.5172  0.6884 -0.2384
   31SAPC  H15Y 4218   4.712   5.255   8.571  0.6378  0.5819 -1.0198
   31SAPC  C316 4219   4.517   5.130   8.594  1.0318  0.2815  0.3657
   31SAPC  H16X 4220   4.563   5.085   8.685 -1.1311  0.7422  1.7716
   31SAPC  H16Y 4221   4.470   5.052   8.530 -1.8562  0.7978  1.6915
   31SAPC  C317 4222   4.419   5.234   8.646 -0.1716 -0.8705  0.5834
   31SAPC  H17X 4223   4.383   5.287   8.555  1.0843 -0.6651  0.1922
   31SAPC  H17Y 4224   4.472   5.310   8.707  1.9964 -0.6094 -1.4791
   31SAPC  C318 4225   4.302   5.180   8.724 -0.0431 -0.1457  0.6080
   31SAPC  H18X 4226   4.263   5.099   8.658  0.7155  0.3017 -0.4151
   31SAPC  H18Y 4227   4.230   5.259   8.753 -1.0009 -0.7019 -0.1480
   31SAPC  H18Z 4228   4.345   5.138   8.817  0.5137 -0.4617  0.2110
   32SAPC     N 4229   5.669   3.411   6.168  0.0615 -0.1580 -0.7102
   32SAPC   C12 4230   5.780   3.454   6.078  0.4464  0.3412 -0.1256
   32SAPC  H12A 4231   5.807   3.379   6.005 -0.0973  1.5536 -1.6375
   32SAPC  H12B 4232   5.870   3.476   6.134  0.5296  0.0687 -0.1509
   32SAPC   C13 4233   5.638   3.520   6.261  0.5030 -0.2002  0.4520
   32SAPC  H13A 4234   5.617   3.606   6.199  3.3286  0.9915  1.0013
   32SAPC  H13B 4235   5.553   3.505   6.326  0.5572  2.7847  1.3402
   32SAPC  H13C 4236   5.730   3.535   6.315  2.1433  0.1275 -2.2419
   32SAPC   C14 4237   5.541   3.377   6.095 -0.0624 -0.4257  0.4863
   32SAPC  H14A 4238   5.505   3.463   6.040  2.2982  1.2881  1.5000
   32SAPC  H14B 4239   5.564   3.294   6.029 -0.8892 -0.0605 -0.2828
   32SAPC  H14C 4240   5.466   3.337   6.162 -1.4554 -1.5585 -1.5918
   32SAPC   C15 4241   5.712   3.300   6.254  0.0619 -0.4137  0.0006
   32SAPC  H15A 4242   5.640   3.281   6.332  0.1598  1.2494  0.5388
   32SAPC  H15B 4243   5.731   3.206   6.204  0.3322 -1.3277  1.7361
   32SAPC  H15C 4244   5.807   3.327   6.298  0.3922 -0.9309 -0.3807
   32SAPC   C11 4245   5.751   3.580   5.988  0.1403  0.4771 -0.4685
   32SAPC  H11A 4246   5.642   3.592   5.967 -0.3333  1.3257  2.1109
   32SAPC  H11B 4247   5.815   3.579   5.897 -0.0272 -1.9819 -0.6118
   32SAPC     P 4248   5.922   3.762   6.052 -0.0650  0.0840 -0.3601
   32SAPC   O13 4249   6.024   3.665   6.103  0.1032 -0.5622 -0.0346
   32SAPC   O14 4250   5.929   3.822   5.918  0.3529  0.3272  0.2669
   32SAPC   O12 4251   5.779   3.696   6.061 -0.2895 -0.1177 -0.0532
   32SAPC   O11 4252   5.919   3.877   6.159 -0.2574  0.5887 -0.0157
   32SAPC    C1 4253   5.804   3.931   6.226  0.7562 -0.0015 -0.4289
   32SAPC    HA 4254   5.816   4.041   6.231 -0.6517  0.3581 -3.2058
   32SAPC    HB 4255   5.709   3.914   6.171 -0.5799  0.9362  1.4848
   32SAPC    C2 4256   5.782   3.869   6.370  0.5205  0.2894 -0.7670
   32SAPC    HS 4257   5.768   3.759   6.361 -0.2647  0.2119  0.9884
   32SAPC   O21 4258   5.679   3.944   6.434  0.3432  0.3780  0.3221
   32SAPC   C21 4259   5.558   3.896   6.427  0.1066 -0.4777 -0.0906
   32SAPC   O22 4260   5.518   3.816   6.347  0.3360  0.6653 -0.2631
   32SAPC   C22 4261   5.475   3.973   6.534 -0.2988 -0.2209 -0.0157
   32SAPC   H2R 4262   5.532   3.992   6.627 -2.0406  0.8829  0.8928
   32SAPC   H2S 4263   5.446   4.075   6.499  3.4753  0.7123 -0.8201
   32SAPC    C3 4264   5.904   3.881   6.459 -0.5620 -0.2823  0.1014
   32SAPC    HX 4265   5.945   3.984   6.470 -1.2176  0.1806 -1.5322
   32SAPC    HY 4266   5.979   3.822   6.401 -0.8938  0.5879 -1.2482
   32SAPC   O31 4267   5.882   3.810   6.583  0.0554  0.0269 -0.2052
   32SAPC   C31 4268   5.966   3.836   6.679 -0.3921 -0.1156 -0.4474
   32SAPC   O32 4269   6.068   3.903   6.652  0.2419  0.1388  0.0066
   32SAPC   C32 4270   5.915   3.775   6.811  0.7233 -0.0674 -0.0451
   32SAPC   H2X 4271   5.966   3.676   6.810  1.0579  0.1003 -0.9326
   32SAPC   H2Y 4272   5.805   3.759   6.803  0.8264 -0.7550 -0.1494
   32SAPC   C23 4273   5.351   3.893   6.577 -0.2695 -0.5661  0.4004
   32SAPC   H3R 4274   5.316   3.833   6.490 -0.1306 -0.9985  0.6399
   32SAPC   H3S 4275   5.277   3.971   6.603  1.3892  2.2315 -2.4930
   32SAPC   C24 4276   5.376   3.805   6.693 -0.0936  0.5998 -0.0370
   32SAPC   H4R 4277   5.403   3.864   6.783 -0.8079 -0.2654  0.7648
   32SAPC   H4S 4278   5.457   3.732   6.673 -2.4450 -1.5869 -2.3225
   32SAPC   C25 4279   5.258   3.720   6.731  0.6704 -0.0647  0.2501
   32SAPC   H5R 4280   5.168   3.762   6.684 -0.2013 -0.6457  1.3240
   32SAPC   C26 4281   5.252   3.609   6.804 -0.3315  0.2927 -0.5018
   32SAPC   H6R 4282   5.152   3.566   6.821  0.3655 -0.8427  0.9735
   32SAPC   C27 4283   5.377   3.549   6.874  0.1142 -0.1734  0.0842
   32SAPC   H7R 4284   5.469   3.604   6.846  1.1605 -1.7783  0.1843
   32SAPC   H7S 4285   5.392   3.448   6.830 -2.7926 -1.9543  2.7944
   32SAPC   C28 4286   5.359   3.535   7.025  0.2557 -0.1483 -0.7039
   32SAPC   H8R 4287   5.363   3.431   7.061 -0.9951 -0.0313 -0.1706
   32SAPC   C29 4288   5.344   3.629   7.119 -0.6878 -0.2089 -0.1650
   32SAPC   H9R 4289   5.346   3.601   7.226 -2.7901 -0.2324 -0.1048
   32SAPC  C210 4290   5.334   3.778   7.098 -0.0808  0.5334  0.6351
   32SAPC  H10R 4291   5.233   3.812   7.129 -1.4843 -2.2788 -0.5417
   32SAPC  H10S 4292   5.335   3.799   6.989  1.1701  0.2961  0.5788
   32SAPC  C211 4293   5.448   3.850   7.161 -0.4900 -1.2932  0.3249
   32SAPC  H11R 4294   5.537   3.857   7.096 -1.0318  0.0247 -0.3121
   32SAPC  C212 4295   5.444   3.910   7.278 -0.5080  0.9187  0.0315
   32SAPC  H12R 4296   5.538   3.959   7.308 -0.4909  0.3060  1.0126
   32SAPC  C213 4297   5.339   3.923   7.378  0.3588 -0.4131 -0.0962
   32SAPC  H13R 4298   5.243   3.876   7.348  0.9915 -1.8726  0.1221
   32SAPC  H13S 4299   5.318   4.032   7.383  1.6776 -0.1267 -0.4698
   32SAPC  C214 4300   5.374   3.866   7.515 -0.3172  0.2482  0.6599
   32SAPC  H14R 4301   5.402   3.760   7.508  1.6835  0.8100 -0.6381
   32SAPC  C215 4302   5.376   3.923   7.635  0.7231  0.0357  1.0992
   32SAPC  H15R 4303   5.428   3.867   7.715  0.5220 -0.1026  1.1341
   32SAPC  C216 4304   5.330   4.069   7.658  0.4093  0.1068  0.6664
   32SAPC  H16R 4305   5.258   4.102   7.579  0.9696  0.9404  0.4949
   32SAPC  H16S 4306   5.416   4.138   7.666 -1.0618  2.1182  0.1881
   32SAPC  C217 4307   5.250   4.094   7.782 -0.3398  0.7523  0.9352
   32SAPC  H17R 4308   5.148   4.050   7.775  0.2072 -0.2561 -2.1663
   32SAPC  H17S 4309   5.254   4.203   7.807 -1.5015  1.2301 -0.7861
   32SAPC  C218 4310   5.323   4.029   7.906  0.4439  0.0776  0.0156
   32SAPC  H18R 4311   5.331   3.920   7.888 -1.2173  0.2589 -2.2648
   32SAPC  H18S 4312   5.261   4.033   7.999  0.6662  0.1170  0.1650
   32SAPC  C219 4313   5.451   4.100   7.944 -0.5064 -0.8401  0.0180
   32SAPC  H19R 4314   5.529   4.098   7.865  0.2695 -1.0739  0.7828
   32SAPC  H19S 4315   5.491   4.032   8.022 -0.9832 -1.2807 -0.1154
   32SAPC  C220 4316   5.422   4.240   7.996  0.3842  0.3687  0.1881
   32SAPC  H20R 4317   5.512   4.286   8.041  0.3063  1.7418 -0.9912
   32SAPC  H20S 4318   5.357   4.245   8.086  1.7259  4.5303  1.1191
   32SAPC  H20T 4319   5.378   4.302   7.915 -0.0414 -1.7788 -1.3245
   32SAPC   C33 4320   5.956   3.855   6.941  0.0204  0.5113 -0.2220
   32SAPC   H3X 4321   5.945   3.964   6.919  0.6290  0.4341 -0.9528
   32SAPC   H3Y 4322   6.062   3.843   6.973 -0.8810 -1.2825  2.4025
   32SAPC   C34 4323   5.876   3.811   7.064 -0.3160 -0.2538  0.0372
   32SAPC   H4X 4324   5.917   3.715   7.100 -0.5087 -0.9164 -1.4491
   32SAPC   H4Y 4325   5.774   3.783   7.029 -0.2611 -1.6050  0.9112
   32SAPC   C35 4326   5.886   3.921   7.179 -0.1150  0.4846 -0.3008
   32SAPC   H5X 4327   5.822   4.003   7.139 -0.2813  1.4497  1.8150
   32SAPC   H5Y 4328   5.991   3.957   7.182 -0.2428  0.7955  0.6068
   32SAPC   C36 4329   5.847   3.882   7.314  0.3333  0.2918  0.2179
   32SAPC   H6X 4330   5.908   3.795   7.347 -1.3203 -1.6040 -1.4753
   32SAPC   H6Y 4331   5.747   3.834   7.316  1.0545 -1.2576  0.3506
   32SAPC   C37 4332   5.852   3.993   7.423 -0.2115  0.4367 -0.6027
   32SAPC   H7X 4333   5.767   4.055   7.387 -0.0937  0.6276 -0.5534
   32SAPC   H7Y 4334   5.950   4.045   7.420 -1.0332  2.2893  1.7052
   32SAPC   C38 4335   5.800   3.939   7.554  0.8001  0.2038  0.0600
   32SAPC   H8X 4336   5.852   3.846   7.585 -1.6863 -1.4811 -0.4973
   32SAPC   H8Y 4337   5.694   3.914   7.534  0.5134  1.4232  0.0385
   32SAPC   C39 4338   5.819   4.056   7.660  0.4028 -0.2939  0.2585
   32SAPC   H9X 4339   5.755   4.143   7.633 -0.8788 -1.3605 -0.2401
   32SAPC   H9Y 4340   5.921   4.097   7.649  0.0566  0.1299 -1.7449
   32SAPC  C310 4341   5.801   4.010   7.807  0.5757 -0.2257  0.1286
   32SAPC  H10X 4342   5.865   3.920   7.820  1.7855  0.5580 -0.2592
   32SAPC  H10Y 4343   5.693   3.989   7.825  0.6633  0.5397  1.7020
   32SAPC  C311 4344   5.858   4.118   7.893 -0.5808  0.2907  0.1294
   32SAPC  H11X 4345   5.832   4.216   7.849  1.2427  0.6958 -0.1613
   32SAPC  H11Y 4346   5.969   4.120   7.882 -0.2301  0.0044  3.0597
   32SAPC  C312 4347   5.849   4.100   8.042 -1.0456 -0.0630 -0.4939
   32SAPC  H12X 4348   5.909   4.014   8.079 -1.9885  0.6515  3.0180
   32SAPC  H12Y 4349   5.741   4.079   8.058 -1.1268  1.0430  0.6058
   32SAPC  C313 4350   5.899   4.225   8.124  0.0844  0.3289 -0.5173
   32SAPC  H13X 4351   5.853   4.320   8.092  0.0297  0.3073 -0.5004
   32SAPC  H13Y 4352   6.010   4.234   8.115  0.0919  1.3439  0.4313
   32SAPC  C314 4353   5.864   4.219   8.283  0.8165  0.8137  0.0495
   32SAPC  H14X 4354   5.911   4.130   8.332 -0.6101 -0.2356 -0.4156
   32SAPC  H14Y 4355   5.755   4.207   8.297  0.7258 -1.2070 -1.7495
   32SAPC  C315 4356   5.927   4.337   8.360  0.7078  0.6177 -0.5827
   32SAPC  H15X 4357   5.894   4.329   8.466  0.5690 -1.2658 -0.7279
   32SAPC  H15Y 4358   5.884   4.428   8.313 -1.1918 -0.4521 -1.0165
   32SAPC  C316 4359   6.074   4.343   8.354  0.0937 -0.1818 -0.0076
   32SAPC  H16X 4360   6.106   4.381   8.255  1.5886 -1.0814  0.1014
   32SAPC  H16Y 4361   6.104   4.236   8.357  1.3655  0.1829  0.8228
   32SAPC  C317 4362   6.141   4.419   8.468 -0.3953  0.2570  0.4451
   32SAPC  H17X 4363   6.122   4.370   8.565 -0.4486 -1.6444 -0.4756
   32SAPC  H17Y 4364   6.095   4.520   8.469  1.7454  1.3457 -1.2011
   32SAPC  C318 4365   6.295   4.434   8.465  0.5503  0.0941 -0.3662
   32SAPC  H18X 4366   6.334   4.497   8.548  1.4800  0.1745 -0.8516
   32SAPC  H18Y 4367   6.330   4.474   8.368 -0.1787 -3.8829 -2.5069
   32SAPC  H18Z 4368   6.348   4.336   8.476 -1.6573 -1.2282 -0.9164
   33POPC     N 4369   5.456   6.171  10.755 -0.3995 -0.0403 -0.2048
   33POPC   C12 4370   5.564   6.071  10.733  0.3493 -0.7577  0.0854
   33POPC  H12A 4371   5.620   6.058  10.825  0.4166 -2.1946 -0.1360
   33POPC  H12B 4372   5.630   6.116  10.662 -0.5386  1.7323  0.7440
   33POPC   C13 4373   5.390   6.140  10.884 -0.1118  0.1869 -0.3587
   33POPC  H13A 4374   5.332   6.049  10.876  0.7890 -0.2365 -2.5621
   33POPC  H13B 4375   5.457   6.143  10.969 -1.5182 -1.3304  0.8738
   33POPC  H13C 4376   5.315   6.218  10.890  1.8776  2.2752 -1.1023
   33POPC   C14 4377   5.525   6.309  10.776  0.4683 -0.4164 -0.3230
   33POPC  H14A 4378   5.603   6.302  10.850 -0.5281 -0.2030  0.7761
   33POPC  H14B 4379   5.579   6.349  10.691  1.4174  1.0599  0.9259
   33POPC  H14C 4380   5.449   6.379  10.808  1.1041 -0.0523  0.3949
   33POPC   C15 4381   5.365   6.183  10.637 -0.5552  1.0842 -0.2491
   33POPC  H15A 4382   5.416   6.193  10.542  0.0456 -2.5941 -0.4513
   33POPC  H15B 4383   5.286   6.255  10.657 -1.0478  0.1594  1.3436
   33POPC  H15C 4384   5.313   6.088  10.627 -0.2348  0.6273  1.9687
   33POPC   C11 4385   5.518   5.925  10.690  0.5948  0.2502  0.1815
   33POPC  H11A 4386   5.609   5.862  10.676  1.0828  0.7338  1.0534
   33POPC  H11B 4387   5.477   5.945  10.589  2.3385 -0.2993 -0.6792
   33POPC     P 4388   5.289   5.818  10.716 -0.3877  0.1093  0.1026
   33POPC   O13 4389   5.216   5.934  10.658  0.0930  0.1691  0.2355
   33POPC   O14 4390   5.225   5.731  10.816  0.1649 -0.3786  0.5002
   33POPC   O12 4391   5.422   5.869  10.785 -0.1328 -0.2276  0.3677
   33POPC   O11 4392   5.335   5.729  10.598 -0.1247 -0.5191 -0.7087
   33POPC    C1 4393   5.245   5.644  10.525 -0.4095 -0.3862 -0.2337
   33POPC    HA 4394   5.216   5.557  10.588  4.2949 -1.3207  1.0137
   33POPC    HB 4395   5.148   5.697  10.512 -0.7972 -1.1274 -0.3975
   33POPC    C2 4396   5.296   5.591  10.384  0.6105 -0.3139 -0.5456
   33POPC    HS 4397   5.364   5.506  10.407 -1.7103 -1.7787  1.5669
   33POPC   O21 4398   5.369   5.701  10.321  0.4210 -0.3577 -0.1175
   33POPC   C21 4399   5.457   5.667  10.231  0.2364 -0.1101  0.6171
   33POPC   O22 4400   5.491   5.559  10.191  0.0469  0.0596  0.8503
   33POPC   C22 4401   5.505   5.801  10.168  0.2243 -0.0426  0.2348
   33POPC   H2R 4402   5.586   5.772  10.098 -1.3717  0.8182 -2.0775
   33POPC   H2S 4403   5.536   5.874  10.246 -3.0093  0.3796  1.2921
   33POPC    C3 4404   5.167   5.543  10.307 -0.5608  0.7688 -0.0147
   33POPC    HX 4405   5.119   5.460  10.363 -1.3866  1.9950  1.1638
   33POPC    HY 4406   5.206   5.502  10.212  4.2189  0.8187  1.6555
   33POPC   O31 4407   5.069   5.648  10.295 -0.2662 -0.3170  0.2472
   33POPC   C31 4408   5.049   5.703  10.175 -0.7268  0.6985  0.4856
   33POPC   O32 4409   5.096   5.654  10.073 -0.1763  0.0816 -0.2103
   33POPC   C32 4410   4.962   5.826  10.191 -0.8447  0.0892  0.0145
   33POPC   H2X 4411   4.995   5.876  10.285 -0.3297  0.7771 -0.5228
   33POPC   H2Y 4412   4.857   5.798  10.215 -0.0287 -0.6721  3.2237
   33POPC   C23 4413   5.398   5.870  10.083 -0.0603 -0.0046  0.7279
   33POPC   H3R 4414   5.413   5.979  10.094 -1.0600  0.0491  1.6760
   33POPC   H3S 4415   5.301   5.847  10.131  0.4812  1.0585  2.4355
   33POPC   C24 4416   5.392   5.820   9.932 -0.0709 -0.0966  0.3905
   33POPC   H4R 4417   5.363   5.713   9.929 -0.4293  0.0132 -0.7496
   33POPC   H4S 4418   5.499   5.821   9.902  0.3837 -0.5201  1.9373
   33POPC   C25 4419   5.313   5.894   9.822  0.2748  0.0504 -0.8955
   33POPC   H5R 4420   5.211   5.867   9.856  0.9775 -0.0767  1.2441
   33POPC   H5S 4421   5.327   5.845   9.723 -2.1788 -0.3113 -1.1316
   33POPC   C26 4422   5.342   6.054   9.819  0.2783  0.2996  0.4105
   33POPC   H6R 4423   5.445   6.079   9.789  0.4695  0.1431  0.9273
   33POPC   H6S 4424   5.316   6.104   9.915  2.0973 -0.8492  1.5503
   33POPC   C27 4425   5.256   6.124   9.706  0.4300  0.3297 -0.3092
   33POPC   H7R 4426   5.281   6.230   9.687 -0.0462  0.9476  2.1703
   33POPC   H7S 4427   5.151   6.108   9.739 -0.1142 -1.8854 -2.7910
   33POPC   C28 4428   5.256   6.054   9.567 -0.4878  0.3236 -0.2101
   33POPC   H8R 4429   5.189   6.099   9.490  2.1852 -0.6186 -3.3273
   33POPC   H8S 4430   5.219   5.950   9.573 -0.2959  0.2166 -0.7865
   33POPC   C29 4431   5.387   6.051   9.501 -0.3615  0.6588 -0.2018
   33POPC   H91 4432   5.464   6.010   9.568 -1.0752  0.3641  0.4521
   33POPC  C210 4433   5.425   6.085   9.381 -0.0177  0.0010  0.7086
   33POPC  H101 4434   5.524   6.057   9.342 -0.5191  1.7316 -2.1433
   33POPC  C211 4435   5.340   6.151   9.277  0.7502  0.3050 -0.3772
   33POPC  H11R 4436   5.233   6.124   9.289  1.5728 -3.5013 -0.1863
   33POPC  H11S 4437   5.379   6.114   9.179 -0.9027  1.4453 -1.5257
   33POPC  C212 4438   5.350   6.301   9.292 -0.4303  0.3003 -0.0460
   33POPC  H12R 4439   5.454   6.335   9.308 -0.6855  0.8383  0.5084
   33POPC  H12S 4440   5.290   6.323   9.383  0.6704  3.3691  0.0475
   33POPC  C213 4441   5.310   6.381   9.169 -0.0724 -0.1621 -0.0075
   33POPC  H13R 4442   5.371   6.347   9.083  1.7786  0.2717  1.0729
   33POPC  H13S 4443   5.343   6.484   9.198 -0.7816  0.0379  0.1150
   33POPC  C214 4444   5.160   6.381   9.141 -0.4031 -0.0235  0.2311
   33POPC  H14R 4445   5.107   6.446   9.214  1.1337 -1.1299  2.4335
   33POPC  H14S 4446   5.120   6.278   9.152 -0.0796 -0.0123  1.6614
   33POPC  C215 4447   5.147   6.470   9.015 -0.0232  0.1648 -1.2207
   33POPC  H15R 4448   5.227   6.437   8.945  0.0562 -0.0638 -1.0243
   33POPC  H15S 4449   5.174   6.575   9.038  0.8218 -0.1647 -0.6795
   33POPC  C216 4450   5.015   6.456   8.940  0.1549 -0.1902 -0.3493
   33POPC  H16R 4451   4.918   6.475   8.991 -1.0936  2.1029 -3.2159
   33POPC  H16S 4452   5.007   6.350   8.907 -1.2418 -0.4020  0.5657
   33POPC  C217 4453   5.017   6.540   8.808 -0.3845 -0.0824 -0.5125
   33POPC  H17R 4454   5.040   6.642   8.845 -0.8728  0.1144 -0.7421
   33POPC  H17S 4455   4.915   6.541   8.763  0.6292  0.9196 -2.9177
   33POPC  C218 4456   5.113   6.495   8.700 -0.0963  0.1569  0.2815
   33POPC  H18R 4457   5.214   6.503   8.746 -0.8028 -0.3759  2.0289
   33POPC  H18S 4458   5.102   6.562   8.613 -5.5041  2.0534  2.0432
   33POPC  H18T 4459   5.100   6.389   8.669 -0.0988  0.5349 -1.0632
   33POPC   C33 4460   4.967   5.916  10.057 -0.1923  0.4367  0.4834
   33POPC   H3X 4461   5.077   5.927  10.048 -0.1851  0.0696  0.1133
   33POPC   H3Y 4462   4.928   6.018  10.079  0.2435  0.5340  0.8247
   33POPC   C34 4463   4.889   5.847   9.937 -0.6139  0.8035 -0.6415
   33POPC   H4X 4464   4.783   5.863   9.963 -1.2482  0.2090 -2.6558
   33POPC   H4Y 4465   4.929   5.744   9.923  0.2252  1.0170  0.0601
   33POPC   C35 4466   4.919   5.915   9.799  0.3397 -0.1443  0.1505
   33POPC   H5X 4467   5.025   5.909   9.767  0.1240 -0.1663 -0.5833
   33POPC   H5Y 4468   4.882   6.018   9.812  0.5607 -0.1507  0.8641
   33POPC   C36 4469   4.832   5.847   9.690 -0.4044  0.0352  1.1140
   33POPC   H6X 4470   4.722   5.857   9.698 -0.2730  2.1614  0.7002
   33POPC   H6Y 4471   4.874   5.747   9.668  0.8376  0.7887 -0.0280
   33POPC   C37 4472   4.858   5.928   9.561 -0.5544  0.7629 -0.6286
   33POPC   H7X 4473   4.812   5.876   9.474 -2.8593  1.8914 -0.1594
   33POPC   H7Y 4474   4.968   5.939   9.555 -0.2493 -1.4111 -0.1653
   33POPC   C38 4475   4.811   6.072   9.554  0.2419 -0.4742 -0.9698
   33POPC   H8X 4476   4.849   6.131   9.641  0.4583 -0.7817 -0.8532
   33POPC   H8Y 4477   4.701   6.073   9.563  0.1437  0.8860 -1.9746
   33POPC   C39 4478   4.857   6.151   9.437 -0.2445  0.3162 -0.5436
   33POPC   H9X 4479   4.967   6.162   9.442 -0.1424 -0.8687  0.4297
   33POPC   H9Y 4480   4.814   6.253   9.425 -1.8538 -0.2819 -0.1281
   33POPC  C310 4481   4.836   6.075   9.303 -0.5029  0.0128 -0.2075
   33POPC  H10X 4482   4.759   5.995   9.299 -0.9064  0.3811  0.0146
   33POPC  H10Y 4483   4.932   6.028   9.277  0.3654  2.6723 -2.3248
   33POPC  C311 4484   4.808   6.174   9.185  0.4824 -0.2485 -0.0865
   33POPC  H11X 4485   4.815   6.114   9.091 -0.6027 -2.0898  0.9445
   33POPC  H11Y 4486   4.901   6.234   9.178  2.1580 -2.7380 -0.9242
   33POPC  C312 4487   4.673   6.251   9.196 -0.7749  0.2539 -0.5291
   33POPC  H12X 4488   4.658   6.311   9.289 -1.9885  0.1500 -0.6315
   33POPC  H12Y 4489   4.590   6.177   9.201 -1.5694  0.9302 -2.8416
   33POPC  C313 4490   4.646   6.355   9.096  0.6941 -0.1179 -0.0277
   33POPC  H13X 4491   4.715   6.441   9.107  3.7174 -2.0363 -2.1982
   33POPC  H13Y 4492   4.538   6.380   9.101  0.0452 -2.7073  0.7058
   33POPC  C314 4493   4.673   6.308   8.951  0.0434  0.3449 -0.1816
   33POPC  H14X 4494   4.607   6.222   8.925  1.7894 -0.4456 -2.2494
   33POPC  H14Y 4495   4.779   6.274   8.952  0.7313  2.3651 -0.2860
   33POPC  C315 4496   4.656   6.429   8.856  0.1576  0.3226  0.0097
   33POPC  H15X 4497   4.679   6.389   8.755  1.0596  2.7181 -0.8077
   33POPC  H15Y 4498   4.734   6.506   8.871 -0.2332  1.2308 -2.1854
   33POPC  C316 4499   4.522   6.505   8.861 -0.0315 -0.2637 -0.1178
   33POPC  H16X 4500   4.512   6.593   8.794  0.0346  0.4703  0.8159
   33POPC  H16Y 4501   4.508   6.543   8.964  1.2186 -2.9681  1.1629
   33POPC  H16Z 4502   4.437   6.433   8.853  0.8522 -1.5127  1.1836
   34POPC     N 4503   3.331   2.011  10.805  0.1608 -0.2544 -0.1980
   34POPC   C12 4504   3.360   1.956  10.667 -0.1500 -0.9197  0.4629
   34POPC  H12A 4505   3.274   1.946  10.602 -1.7783  0.3200  2.2756
   34POPC  H12B 4506   3.391   1.853  10.672 -0.5123 -1.4310 -4.0134
   34POPC   C13 4507   3.252   2.139  10.805  0.1997 -0.0538  0.0959
   34POPC  H13A 4508   3.287   2.216  10.739 -2.9366 -0.8841 -2.8326
   34POPC  H13B 4509   3.147   2.135  10.781 -0.6999  4.0824  2.4700
   34POPC  H13C 4510   3.253   2.195  10.897  2.4322 -1.0962  0.7844
   34POPC   C14 4511   3.256   1.908  10.880  1.0631 -0.1590 -0.5182
   34POPC  H14A 4512   3.288   1.808  10.856 -0.3875 -0.6128 -0.6496
   34POPC  H14B 4513   3.282   1.916  10.985 -0.1929 -1.1427 -0.0981
   34POPC  H14C 4514   3.149   1.913  10.867  0.9787 -0.3498  0.0523
   34POPC   C15 4515   3.463   2.044  10.870 -0.2178 -1.3523  0.4844
   34POPC  H15A 4516   3.535   1.964  10.865 -1.1007 -2.2291  1.4294
   34POPC  H15B 4517   3.461   2.083  10.971  1.5346  0.5292 -0.1461
   34POPC  H15C 4518   3.511   2.122  10.812  0.7979 -2.9225 -0.8489
   34POPC   C11 4519   3.461   2.028  10.576  0.9524  0.4283  0.8055
   34POPC  H11A 4520   3.450   1.968  10.483 -4.5905  1.3871  0.4756
   34POPC  H11B 4521   3.561   2.021  10.623  0.9591 -0.2134  0.7096
   34POPC     P 4522   3.539   2.278  10.561 -0.3897 -0.3688  0.2581
   34POPC   O13 4523   3.612   2.261  10.687 -0.5439 -0.2428  0.6624
   34POPC   O14 4524   3.468   2.409  10.541  0.1370  0.7387  0.4108
   34POPC   O12 4525   3.428   2.165  10.549 -0.3382 -0.2546  0.7913
   34POPC   O11 4526   3.639   2.261  10.447  0.6264  0.0202  0.1762
   34POPC    C1 4527   3.590   2.222  10.318  0.8941 -0.1363 -0.2251
   34POPC    HA 4528   3.494   2.273  10.297  0.5850 -0.6139  0.0181
   34POPC    HB 4529   3.581   2.114  10.297  1.5223  0.0459 -1.5197
   34POPC    C2 4530   3.691   2.266  10.216 -0.4773 -0.1183  0.0403
   34POPC    HS 4531   3.793   2.247  10.255 -0.6506 -0.7445  0.2022
   34POPC   O21 4532   3.669   2.407  10.186  0.1740 -0.0433 -0.3996
   34POPC   C21 4533   3.775   2.492  10.213 -0.3365  0.5438 -0.4247
   34POPC   O22 4534   3.883   2.453  10.254 -0.1816 -0.3001 -0.0063
   34POPC   C22 4535   3.742   2.631  10.177 -0.0454  0.1597 -0.9455
   34POPC   H2R 4536   3.703   2.663  10.275  0.0391 -0.7183 -0.6192
   34POPC   H2S 4537   3.654   2.641  10.109  0.1832 -0.2472 -1.3091
   34POPC    C3 4538   3.679   2.192  10.076  0.0346 -0.0866 -0.3078
   34POPC    HX 4539   3.582   2.224  10.033 -0.2989 -0.7732 -0.0749
   34POPC    HY 4540   3.663   2.084  10.092 -1.1674 -0.1490 -1.7234
   34POPC   O31 4541   3.788   2.220   9.983 -0.4914  0.6614  0.5236
   34POPC   C31 4542   3.753   2.252   9.860 -0.1789 -0.2988 -0.1908
   34POPC   O32 4543   3.642   2.251   9.808 -0.5627 -0.1814 -0.9309
   34POPC   C32 4544   3.886   2.287   9.783 -0.1838 -0.3198  0.3644
   34POPC   H2X 4545   3.970   2.250   9.847 -0.4112 -0.2473  0.7089
   34POPC   H2Y 4546   3.889   2.398   9.780 -0.2424 -0.2622  1.6709
   34POPC   C23 4547   3.862   2.713  10.136  0.0988 -0.4706 -0.8547
   34POPC   H3R 4548   3.945   2.701  10.209 -0.0557 -1.4406 -0.8126
   34POPC   H3S 4549   3.826   2.817  10.151  0.0948 -0.3288 -1.7813
   34POPC   C24 4550   3.909   2.678   9.990 -0.3208 -0.8770  0.8497
   34POPC   H4R 4551   3.956   2.577   9.989  0.4554 -0.5538  2.1248
   34POPC   H4S 4552   4.001   2.733   9.963  0.1141 -1.5476  0.9379
   34POPC   C25 4553   3.804   2.697   9.877 -0.3110 -0.1959 -0.9416
   34POPC   H5R 4554   3.750   2.794   9.882  0.8227  0.3963  0.4368
   34POPC   H5S 4555   3.727   2.618   9.888  1.6454 -2.3351 -1.8469
   34POPC   C26 4556   3.868   2.698   9.737  0.0501  0.2575 -0.0661
   34POPC   H6R 4557   3.954   2.627   9.734  2.0505  2.5007 -3.5802
   34POPC   H6S 4558   3.909   2.797   9.709  0.3924  0.6941  1.8260
   34POPC   C27 4559   3.771   2.668   9.618  0.3556  0.0040 -0.1820
   34POPC   H7R 4560   3.677   2.724   9.638 -1.3012 -3.3090  2.2626
   34POPC   H7S 4561   3.741   2.561   9.617  1.4323 -0.3122  0.2368
   34POPC   C28 4562   3.827   2.724   9.489 -0.0135  0.1610 -0.5015
   34POPC   H8R 4563   3.845   2.834   9.493  0.0617  0.1408 -0.2124
   34POPC   H8S 4564   3.737   2.721   9.424 -1.1273 -0.8545  1.0108
   34POPC   C29 4565   3.936   2.628   9.443 -0.2364 -0.1412  0.7188
   34POPC   H91 4566   3.998   2.570   9.512  2.3546  1.6135  0.0204
   34POPC  C210 4567   3.966   2.610   9.310 -0.4361 -0.0659 -0.6153
   34POPC  H101 4568   4.051   2.544   9.291  0.4511  1.6796 -3.2726
   34POPC  C211 4569   3.910   2.679   9.188 -0.2001 -0.2484  0.2089
   34POPC  H11R 4570   3.807   2.718   9.208 -0.0347  1.7802 -2.3040
   34POPC  H11S 4571   3.894   2.602   9.109 -1.2829 -0.5246  0.6671
   34POPC  C212 4572   3.991   2.792   9.122 -0.5584 -0.8373 -0.1309
   34POPC  H12R 4573   4.088   2.753   9.086  0.3887 -1.8229  3.1361
   34POPC  H12S 4574   4.021   2.866   9.199  2.2925 -2.1125  0.0978
   34POPC  C213 4575   3.914   2.856   9.001 -0.5264 -0.2653 -0.2629
   34POPC  H13R 4576   3.964   2.952   8.976  0.3485 -0.1723  1.6273
   34POPC  H13S 4577   3.809   2.874   9.031 -0.6798 -0.3900 -0.7208
   34POPC  C214 4578   3.928   2.774   8.876 -0.0530 -0.4844  0.0468
   34POPC  H14R 4579   3.845   2.703   8.898  0.5658 -0.8151  1.4117
   34POPC  H14S 4580   4.029   2.728   8.872 -0.4040 -1.2566  0.0555
   34POPC  C215 4581   3.882   2.847   8.745 -0.3986 -0.2944 -0.3049
   34POPC  H15R 4582   3.786   2.902   8.756  0.2633  0.7872  0.1631
   34POPC  H15S 4583   3.868   2.764   8.673  1.5626 -0.6164 -0.3600
   34POPC  C216 4584   3.996   2.941   8.680  0.4415 -0.0055 -0.4808
   34POPC  H16R 4585   4.079   2.869   8.660  0.2745  0.1797 -1.9614
   34POPC  H16S 4586   4.034   3.009   8.759 -0.8755 -0.8103  0.8884
   34POPC  C217 4587   3.960   3.030   8.567  0.3465 -0.7201 -0.3975
   34POPC  H17R 4588   3.893   3.106   8.614  0.0002  0.7213 -3.0600
   34POPC  H17S 4589   3.901   2.969   8.496  0.4203 -1.1029 -0.1344
   34POPC  C218 4590   4.077   3.106   8.503 -0.4277 -0.3463 -0.0639
   34POPC  H18R 4591   4.061   3.163   8.409  0.4375  2.5833  1.4382
   34POPC  H18S 4592   4.156   3.029   8.485 -1.1967 -0.6602 -2.4317
   34POPC  H18T 4593   4.117   3.177   8.579 -1.6363  1.7619 -1.3158
   34POPC   C33 4594   3.900   2.233   9.641  0.1414 -0.5359 -0.2269
   34POPC   H3X 4595   3.968   2.296   9.580 -0.9104  0.5024 -0.3580
   34POPC   H3Y 4596   3.798   2.223   9.598 -0.0319 -0.9069  0.2639
   34POPC   C34 4597   3.952   2.090   9.640  0.1495 -0.7292  0.4441
   34POPC   H4X 4598   3.906   2.030   9.722  0.5768 -1.5748  0.0801
   34POPC   H4Y 4599   4.061   2.079   9.659  0.5460  1.1671 -0.4693
   34POPC   C35 4600   3.937   2.017   9.503 -0.3711 -0.3297  0.2423
   34POPC   H5X 4601   3.828   2.008   9.484 -0.6433  0.8448  1.1414
   34POPC   H5Y 4602   3.980   1.914   9.501 -2.7650 -1.4863 -3.7210
   34POPC   C36 4603   3.992   2.094   9.387  0.5636 -0.6622  0.3118
   34POPC   H6X 4604   4.097   2.130   9.399  0.0288  0.8770  0.6013
   34POPC   H6Y 4605   3.942   2.192   9.370  1.9327  0.4813  2.4540
   34POPC   C37 4606   4.001   2.017   9.249  0.1080 -0.4515  0.3781
   34POPC   H7X 4607   3.908   1.981   9.198  0.7597 -1.6814  0.0036
   34POPC   H7Y 4608   4.048   1.921   9.282 -0.4280 -1.0652 -0.5892
   34POPC   C38 4609   4.079   2.097   9.141  0.3621 -0.9170 -0.0138
   34POPC   H8X 4610   4.096   2.022   9.061  0.3307 -1.6762  0.6758
   34POPC   H8Y 4611   4.172   2.126   9.195  1.3203 -3.2655 -0.2793
   34POPC   C39 4612   4.007   2.214   9.083  0.0977  0.6090 -0.4069
   34POPC   H9X 4613   3.958   2.278   9.160  0.4805 -0.8246  1.0925
   34POPC   H9Y 4614   3.913   2.189   9.029 -0.8506  0.4769  1.2467
   34POPC  C310 4615   4.105   2.310   9.000  0.5611  0.7094  0.2972
   34POPC  H10X 4616   4.210   2.293   9.032  0.0738  1.6259  2.5768
   34POPC  H10Y 4617   4.083   2.417   9.019  0.3509  0.7661 -0.2622
   34POPC  C311 4618   4.106   2.266   8.852  0.0020  0.2060 -0.1718
   34POPC  H11X 4619   4.006   2.254   8.805 -0.7665  3.6155  0.3190
   34POPC  H11Y 4620   4.158   2.168   8.842 -1.7599 -0.8684  0.6757
   34POPC  C312 4621   4.184   2.366   8.764 -0.2247  0.2831  0.6495
   34POPC  H12X 4622   4.268   2.328   8.704 -1.6552  1.1289 -2.0416
   34POPC  H12Y 4623   4.235   2.428   8.841 -1.7662  0.4738  1.5673
   34POPC  C313 4624   4.089   2.456   8.680 -0.4473 -0.0850  0.2047
   34POPC  H13X 4625   4.006   2.492   8.745 -0.8454 -1.9884  0.8261
   34POPC  H13Y 4626   4.029   2.390   8.613  0.4313 -0.7046  0.0175
   34POPC  C314 4627   4.161   2.564   8.603  0.0350  0.3968  0.0533
   34POPC  H14X 4628   4.265   2.526   8.593 -1.1092 -2.9889 -0.1216
   34POPC  H14Y 4629   4.175   2.659   8.660  0.1000  1.7071 -2.0477
   34POPC  C315 4630   4.087   2.602   8.468 -0.2670  1.0568 -1.0713
   34POPC  H15X 4631   3.998   2.664   8.495 -0.5297  0.6483 -0.9990
   34POPC  H15Y 4632   4.047   2.507   8.429  2.5014 -0.6903  0.0205
   34POPC  C316 4633   4.178   2.669   8.368  0.4105 -0.4521 -0.4985
   34POPC  H16X 4634   4.274   2.615   8.368  0.9941  0.5481  0.2249
   34POPC  H16Y 4635   4.207   2.767   8.412  1.9144 -1.5245  0.9852
   34POPC  H16Z 4636   4.138   2.686   8.266  0.6574  0.5612 -0.4391
   35POPC     N 4637   1.720   5.560  10.930  0.0613  0.2048  0.5786
   35POPC   C12 4638   1.580   5.530  10.990 -0.1735 -0.0915  0.5932
   35POPC  H12A 4639   1.511   5.608  10.959  3.0896  2.3109 -1.2260
   35POPC  H12B 4640   1.584   5.547  11.096 -1.4041  2.0518  0.3580
   35POPC   C13 4641   1.736   5.703  10.957 -0.4381  0.1715 -0.1541
   35POPC  H13A 4642   1.720   5.734  11.059 -1.1966 -0.9807  0.0980
   35POPC  H13B 4643   1.825   5.736  10.905 -1.6897  2.6436 -0.9323
   35POPC  H13C 4644   1.648   5.740  10.907 -0.1959 -0.4110 -1.0286
   35POPC   C14 4645   1.833   5.479  10.990 -0.1167  0.9150  0.3600
   35POPC  H14A 4646   1.857   5.505  11.092 -0.0170 -0.1536  0.6268
   35POPC  H14B 4647   1.821   5.372  10.994  0.1419  0.9009  0.8399
   35POPC  H14C 4648   1.913   5.499  10.919  0.7369 -0.8904  0.7508
   35POPC   C15 4649   1.708   5.539  10.781 -0.7074  0.1210 -1.0071
   35POPC  H15A 4650   1.795   5.582  10.733  2.2404 -0.2734  3.3850
   35POPC  H15B 4651   1.618   5.573  10.733 -2.0249  0.7648  1.7308
   35POPC  H15C 4652   1.726   5.434  10.766  0.9704  0.2599 -0.1676
   35POPC   C11 4653   1.525   5.379  10.972  0.6642  0.0221 -0.5589
   35POPC  H11A 4654   1.598   5.306  11.013  1.0332  1.1917  0.9414
   35POPC  H11B 4655   1.509   5.356  10.864 -1.8783 -2.2333  0.2001
   35POPC     P 4656   1.267   5.466  10.980 -0.1126 -0.7411 -0.0030
   35POPC   O13 4657   1.300   5.601  10.924 -0.3133 -0.1103 -0.1408
   35POPC   O14 4658   1.153   5.460  11.074 -0.0860  0.2962  0.5362
   35POPC   O12 4659   1.396   5.392  11.042 -0.2698 -0.3633 -0.3932
   35POPC   O11 4660   1.230   5.384  10.857 -0.2398 -0.3176  0.6183
   35POPC    C1 4661   1.187   5.246  10.869  0.4155  0.2374 -0.4128
   35POPC    HA 4662   1.111   5.234  10.950  0.7903 -0.9552 -0.2073
   35POPC    HB 4663   1.277   5.190  10.903  1.6767  1.0495 -2.2845
   35POPC    C2 4664   1.132   5.192  10.744 -0.3764  0.7977 -0.8144
   35POPC    HS 4665   1.083   5.094  10.760  0.5401  0.0760 -2.2017
   35POPC   O21 4666   1.230   5.184  10.642 -0.5260  0.7259 -0.8847
   35POPC   C21 4667   1.315   5.084  10.646  0.1259  0.2005  0.4051
   35POPC   O22 4668   1.319   4.998  10.736  0.1271  0.7084  0.6298
   35POPC   C22 4669   1.420   5.094  10.533  0.5764 -0.2343 -0.0656
   35POPC   H2R 4670   1.477   4.998  10.529  1.1564  0.0998 -0.0123
   35POPC   H2S 4671   1.486   5.178  10.562 -0.6871  0.5558  0.5755
   35POPC    C3 4672   1.006   5.270  10.692 -0.2926  0.4376  0.5675
   35POPC    HX 4673   1.027   5.378  10.673 -0.4151 -0.0069 -2.5919
   35POPC    HY 4674   0.923   5.265  10.766  1.2088  1.7467  2.4404
   35POPC   O31 4675   0.974   5.244  10.555  0.0770 -0.3135  0.5725
   35POPC   C31 4676   0.886   5.149  10.539 -0.8007  0.1993  0.1915
   35POPC   O32 4677   0.841   5.079  10.630 -0.5715  0.0434 -0.3901
   35POPC   C32 4678   0.855   5.145  10.387  0.6147  0.5913 -0.3244
   35POPC   H2X 4679   0.943   5.193  10.338  0.6575  1.1007  0.2343
   35POPC   H2Y 4680   0.768   5.214  10.376  1.4600  2.1111  1.8653
   35POPC   C23 4681   1.352   5.119  10.396 -0.1176 -0.3928 -0.0912
   35POPC   H3R 4682   1.437   5.146  10.330  0.2801 -0.1583  0.5051
   35POPC   H3S 4683   1.283   5.205  10.408  0.1102  0.4078 -3.4820
   35POPC   C24 4684   1.274   4.997  10.348  0.2299 -0.4224 -0.2119
   35POPC   H4R 4685   1.186   4.993  10.415 -1.0662 -3.2009 -1.8968
   35POPC   H4S 4686   1.331   4.911  10.388  0.3629  0.4433  1.5524
   35POPC   C25 4687   1.235   5.002  10.197  0.0233 -0.1095 -0.2229
   35POPC   H5R 4688   1.169   5.090  10.185  2.5773  1.6394 -2.4600
   35POPC   H5S 4689   1.179   4.915  10.157  1.7280 -1.9975  1.2173
   35POPC   C26 4690   1.351   5.007  10.098 -0.0462 -0.2074  0.1251
   35POPC   H6R 4691   1.412   4.915  10.110  0.2557 -0.0051  0.1476
   35POPC   H6S 4692   1.399   5.106  10.114 -2.8160  1.8556 -3.1384
   35POPC   C27 4693   1.309   4.991   9.951  0.5486  0.3417 -0.1209
   35POPC   H7R 4694   1.206   5.031   9.936 -1.4148 -3.5709  1.2601
   35POPC   H7S 4695   1.283   4.887   9.923 -0.1228  1.1955 -2.9503
   35POPC   C28 4696   1.401   5.063   9.857  0.1735 -0.4917  0.9124
   35POPC   H8R 4697   1.500   5.013   9.865 -0.2083 -1.0738  2.1463
   35POPC   H8S 4698   1.405   5.163   9.904  0.4985  0.0189 -0.1543
   35POPC   C29 4699   1.350   5.066   9.711  0.7203  0.4985  0.0494
   35POPC   H91 4700   1.242   5.087   9.698  0.7201 -0.4509 -2.0239
   35POPC  C210 4701   1.401   5.018   9.602 -0.0851  0.5224 -0.2902
   35POPC  H101 4702   1.344   5.047   9.513 -0.6203  0.8191  0.1433
   35POPC  C211 4703   1.538   4.956   9.579  0.2332  0.2830  0.7182
   35POPC  H11R 4704   1.535   4.860   9.523 -0.7555  2.0324 -2.4883
   35POPC  H11S 4705   1.584   4.939   9.679  0.4505  1.2686  0.7893
   35POPC  C212 4706   1.624   5.055   9.498  0.1765  0.4644 -0.5102
   35POPC  H12R 4707   1.575   5.083   9.403  0.6645  2.2678 -0.2582
   35POPC  H12S 4708   1.718   5.001   9.471 -0.3989  0.5537 -2.8976
   35POPC  C213 4709   1.652   5.193   9.559 -0.9710  0.3219 -0.4769
   35POPC  H13R 4710   1.571   5.216   9.630  0.2349 -0.3669  1.1833
   35POPC  H13S 4711   1.664   5.273   9.483  1.3063  0.6613  0.1701
   35POPC  C214 4712   1.776   5.206   9.648  1.1980 -0.6698 -0.3607
   35POPC  H14R 4713   1.864   5.235   9.586  0.9426 -0.0514 -0.4394
   35POPC  H14S 4714   1.783   5.110   9.703  1.3692 -1.1045 -1.1170
   35POPC  C215 4715   1.750   5.331   9.740 -0.2979  0.1407  0.0803
   35POPC  H15R 4716   1.681   5.399   9.685 -0.5421 -0.2199 -0.0609
   35POPC  H15S 4717   1.845   5.389   9.740  1.1581 -2.0626  1.6971
   35POPC  C216 4718   1.714   5.295   9.881  0.3058  0.2942  0.0694
   35POPC  H16R 4719   1.760   5.196   9.904 -0.2479  0.0817  0.2641
   35POPC  H16S 4720   1.605   5.276   9.891  0.4545 -0.7578 -0.1671
   35POPC  C217 4721   1.738   5.400   9.985  0.2346  0.0421 -0.2755
   35POPC  H17R 4722   1.674   5.490   9.972  0.4020  0.0448 -1.1530
   35POPC  H17S 4723   1.846   5.426   9.985  0.5977 -1.1710  1.8915
   35POPC  C218 4724   1.706   5.353  10.130 -0.2343 -0.1051  0.5999
   35POPC  H18R 4725   1.773   5.266  10.144  0.6520  0.5205  0.3091
   35POPC  H18S 4726   1.600   5.319  10.129 -0.5006  0.5700  2.3863
   35POPC  H18T 4727   1.723   5.437  10.202  1.4285 -1.0672  1.3804
   35POPC   C33 4728   0.815   5.002  10.320  0.2483  0.1873  0.4691
   35POPC   H3X 4729   0.727   4.950  10.363 -0.2595 -0.2603 -1.0714
   35POPC   H3Y 4730   0.904   4.936  10.327  2.4324  2.8436 -0.3388
   35POPC   C34 4731   0.755   5.017  10.176 -0.4194  0.6010 -0.0650
   35POPC   H4X 4732   0.652   5.058  10.174 -0.3230  0.8227 -1.6344
   35POPC   H4Y 4733   0.747   4.912  10.141  1.2491  0.5769 -0.4318
   35POPC   C35 4734   0.845   5.098  10.080  0.4195 -0.0564 -0.5845
   35POPC   H5X 4735   0.950   5.070  10.101  0.3617  0.3942  0.3873
   35POPC   H5Y 4736   0.819   5.203  10.106 -5.4241 -1.4043  0.6122
   35POPC   C36 4737   0.812   5.052   9.936  0.3365 -0.2660 -0.2531
   35POPC   H6X 4738   0.702   5.056   9.918  0.5512 -0.4266 -1.6840
   35POPC   H6Y 4739   0.843   4.945   9.938  0.6784 -0.2143 -1.6883
   35POPC   C37 4740   0.885   5.129   9.824 -0.1579  0.2383  0.2244
   35POPC   H7X 4741   0.994   5.118   9.840 -0.3507 -1.9068  0.3237
   35POPC   H7Y 4742   0.866   5.238   9.832  0.8066  0.3405  1.5578
   35POPC   C38 4743   0.842   5.099   9.684 -0.6337  0.2435 -0.1263
   35POPC   H8X 4744   0.734   5.111   9.664 -0.6880 -0.8669 -0.5575
   35POPC   H8Y 4745   0.878   4.998   9.654  0.8701  0.9130 -0.6781
   35POPC   C39 4746   0.925   5.193   9.591  0.9408  0.0185  0.7935
   35POPC   H9X 4747   1.032   5.167   9.609 -0.0383 -4.3402  1.3542
   35POPC   H9Y 4748   0.910   5.301   9.615  0.7066  0.3235 -0.6245
   35POPC  C310 4749   0.881   5.186   9.450 -0.0688  0.1483  0.2357
   35POPC  H10X 4750   0.776   5.221   9.436  0.5254  1.7396 -0.4851
   35POPC  H10Y 4751   0.880   5.078   9.426  1.6408 -0.2695  1.7894
   35POPC  C311 4752   0.977   5.265   9.365  0.1268  0.2254  0.5157
   35POPC  H11X 4753   1.073   5.209   9.371 -0.1599 -0.8099 -2.5542
   35POPC  H11Y 4754   1.002   5.366   9.402 -1.8275  2.0774 -2.7979
   35POPC  C312 4755   0.929   5.284   9.222 -0.0627 -0.1214  0.2210
   35POPC  H12X 4756   0.820   5.302   9.208  0.1369  0.2510 -0.9631
   35POPC  H12Y 4757   0.964   5.188   9.179  0.3487 -1.0539  2.5377
   35POPC  C313 4758   0.998   5.395   9.139 -0.3821 -0.2182  0.4962
   35POPC  H13X 4759   1.108   5.386   9.149 -0.1320  0.2502 -1.3803
   35POPC  H13Y 4760   0.986   5.503   9.166  4.2483  0.8193 -0.6606
   35POPC  C314 4761   0.952   5.394   9.001  0.0045  0.3610  0.3835
   35POPC  H14X 4762   0.848   5.355   8.997 -0.3864  1.2837  1.3090
   35POPC  H14Y 4763   1.018   5.321   8.948 -0.4760  0.3871 -0.2696
   35POPC  C315 4764   0.961   5.523   8.931 -0.3468  0.2358 -0.2674
   35POPC  H15X 4765   0.941   5.609   8.998 -0.2179  0.4360 -0.4824
   35POPC  H15Y 4766   0.876   5.526   8.859 -0.3946  2.3738 -0.1888
   35POPC  C316 4767   1.088   5.552   8.864  0.2258 -0.1013  0.1192
   35POPC  H16X 4768   1.100   5.655   8.824 -1.5307  0.0584 -0.0619
   35POPC  H16Y 4769   1.102   5.479   8.782  0.7783  0.3434 -0.1946
   35POPC  H16Z 4770   1.170   5.530   8.936 -1.1234 -1.5287  1.2710
   36POPC     N 4771   3.848   3.756  10.911 -0.0488  0.7182 -0.0685
   36POPC   C12 4772   3.854   3.855  10.799  0.0944  0.0804  0.0418
   36POPC  H12A 4773   3.911   3.805  10.723  3.3585  0.2405  2.1633
   36POPC  H12B 4774   3.911   3.943  10.824  1.9968 -1.8764  3.3541
   36POPC   C13 4775   3.742   3.798  11.008  0.0392 -0.3685 -0.3587
   36POPC  H13A 4776   3.691   3.716  11.057 -0.8731 -0.1211 -0.8629
   36POPC  H13B 4777   3.772   3.871  11.082  0.8540  1.7404 -2.6273
   36POPC  H13C 4778   3.665   3.847  10.950  2.1207  1.0681 -2.0237
   36POPC   C14 4779   3.825   3.620  10.861  0.0755  0.7929 -0.5110
   36POPC  H14A 4780   3.732   3.623  10.805 -1.8838  0.2332  2.4540
   36POPC  H14B 4781   3.912   3.593  10.803 -1.3472 -2.0254 -1.5061
   36POPC  H14C 4782   3.813   3.555  10.946  1.9559 -0.2999 -1.0308
   36POPC   C15 4783   3.981   3.757  10.986  0.3681 -0.6136 -0.4279
   36POPC  H15A 4784   3.977   3.686  11.067 -1.1430  1.4976  1.4504
   36POPC  H15B 4785   4.008   3.852  11.030  0.2884 -1.9082  2.6603
   36POPC  H15C 4786   4.066   3.737  10.922 -0.5067  0.9824 -2.1903
   36POPC   C11 4787   3.726   3.909  10.729 -0.1269 -0.2773 -0.1279
   36POPC  H11A 4788   3.657   3.823  10.715 -0.0441 -0.4922  0.7475
   36POPC  H11B 4789   3.751   3.943  10.626 -0.0818  1.1766  0.3369
   36POPC     P 4790   3.716   4.146  10.838  0.3395  0.2595 -0.1828
   36POPC   O13 4791   3.856   4.133  10.888 -0.0952 -0.1463 -0.5491
   36POPC   O14 4792   3.627   4.216  10.934 -0.2633 -0.2254 -0.6109
   36POPC   O12 4793   3.660   4.006  10.812 -0.5369  0.4914 -0.7577
   36POPC   O11 4794   3.708   4.209  10.698 -1.4108 -0.1047  0.1636
   36POPC    C1 4795   3.576   4.230  10.650  0.5902  0.3083 -0.4120
   36POPC    HA 4796   3.531   4.319  10.698 -1.1504 -0.7305 -0.0114
   36POPC    HB 4797   3.502   4.150  10.674 -0.7124  1.9512  1.2822
   36POPC    C2 4798   3.572   4.254  10.503 -1.1654  0.1452  0.2753
   36POPC    HS 4799   3.474   4.302  10.480 -1.0091 -0.1364 -1.0838
   36POPC   O21 4800   3.578   4.120  10.439  0.3576 -0.1361 -0.3317
   36POPC   C21 4801   3.458   4.053  10.438  0.1940 -0.6210  0.0584
   36POPC   O22 4802   3.352   4.101  10.473 -0.0214  0.2539  0.6706
   36POPC   C22 4803   3.486   3.918  10.379  0.0746  0.1538  0.3153
   36POPC   H2R 4804   3.483   3.854  10.470 -2.3912  1.0443  0.9473
   36POPC   H2S 4805   3.587   3.906  10.335 -0.3166 -1.5626 -0.1739
   36POPC    C3 4806   3.695   4.331  10.452  0.0031 -0.9397 -0.0768
   36POPC    HX 4807   3.782   4.298  10.514 -0.1326  0.8057  1.0891
   36POPC    HY 4808   3.684   4.437  10.483  2.0093 -1.1036  1.4169
   36POPC   O31 4809   3.720   4.323  10.311 -0.2567  0.0127  0.0861
   36POPC   C31 4810   3.650   4.399  10.236 -0.0287 -0.3111 -0.1963
   36POPC   O32 4811   3.559   4.471  10.279 -0.9357  0.4635  0.5537
   36POPC   C32 4812   3.702   4.390  10.094 -0.1121 -0.3333  0.7315
   36POPC   H2X 4813   3.653   4.303  10.047  1.9503 -2.0382  1.5690
   36POPC   H2Y 4814   3.811   4.369  10.095 -0.2161 -0.8974  1.8629
   36POPC   C23 4815   3.376   3.866  10.286  0.2874  0.1359  0.8705
   36POPC   H3R 4816   3.274   3.859  10.329  0.3227  0.5524  1.0233
   36POPC   H3S 4817   3.384   3.761  10.250 -0.2681  0.7888 -1.2504
   36POPC   C24 4818   3.375   3.957  10.159  0.6485  0.1471  0.4982
   36POPC   H4R 4819   3.327   4.053  10.187  1.1698  0.1842  1.2815
   36POPC   H4S 4820   3.304   3.911  10.087 -0.9994  0.4644  1.8389
   36POPC   C25 4821   3.508   3.986  10.092 -0.3184  1.0275  0.3276
   36POPC   H5R 4822   3.559   3.890  10.073 -2.8154 -0.2353 -0.3879
   36POPC   H5S 4823   3.564   4.049  10.165 -0.7299  0.4644  1.1445
   36POPC   C26 4824   3.501   4.067   9.962  0.4268  0.0924  0.1679
   36POPC   H6R 4825   3.454   4.165   9.982  0.5063  0.7044 -2.3657
   36POPC   H6S 4826   3.418   4.027   9.900 -0.4646  2.0574  0.0197
   36POPC   C27 4827   3.623   4.086   9.879 -0.3396  0.5737  0.9345
   36POPC   H7R 4828   3.711   4.118   9.939 -0.2295  0.6453  0.7334
   36POPC   H7S 4829   3.610   4.169   9.806 -1.9683 -2.6342 -2.7751
   36POPC   C28 4830   3.654   3.969   9.793  0.3163 -0.0533 -0.3829
   36POPC   H8R 4831   3.570   3.946   9.724 -0.3956 -0.6065  0.6402
   36POPC   H8S 4832   3.658   3.882   9.862 -2.9074  0.9258  1.2637
   36POPC   C29 4833   3.787   3.979   9.727  0.5505 -0.4324 -0.9339
   36POPC   H91 4834   3.872   3.966   9.795 -1.4613 -1.9943  1.4686
   36POPC  C210 4835   3.796   4.016   9.597  0.1071  0.5815 -0.3003
   36POPC  H101 4836   3.898   4.019   9.558  0.0500  0.7929 -0.4364
   36POPC  C211 4837   3.687   4.046   9.500 -0.0996  0.6093 -0.0895
   36POPC  H11R 4838   3.699   4.148   9.456  1.1430  0.5979  0.1897
   36POPC  H11S 4839   3.583   4.038   9.537 -0.4104  0.4438 -0.9621
   36POPC  C212 4840   3.706   3.952   9.379 -0.2451 -0.6169 -0.1820
   36POPC  H12R 4841   3.721   3.842   9.387  0.9001 -0.4493  0.2228
   36POPC  H12S 4842   3.804   3.982   9.336  0.1300  0.6295  1.4431
   36POPC  C213 4843   3.598   3.982   9.273  0.5379  0.6988  0.0879
   36POPC  H13R 4844   3.560   4.086   9.274  0.1842  0.5724  1.1017
   36POPC  H13S 4845   3.520   3.910   9.305 -0.4663  2.3550  1.5837
   36POPC  C214 4846   3.624   3.946   9.123  0.8769  0.0779 -0.0049
   36POPC  H14R 4847   3.522   3.942   9.080  0.9889 -1.7378 -0.1934
   36POPC  H14S 4848   3.677   3.849   9.112 -0.8132 -0.7176 -1.4935
   36POPC  C215 4849   3.690   4.055   9.038  0.2811  0.1880 -0.4736
   36POPC  H15R 4850   3.798   4.066   9.062 -0.4265  0.5127  3.3275
   36POPC  H15S 4851   3.637   4.149   9.065 -0.0967 -0.8090  2.7118
   36POPC  C216 4852   3.668   4.033   8.892  0.1723 -0.1085 -1.0932
   36POPC  H16R 4853   3.560   4.014   8.871 -0.1939 -0.4022  0.8773
   36POPC  H16S 4854   3.731   3.946   8.864  0.6115 -0.8579  1.8581
   36POPC  C217 4855   3.703   4.149   8.792 -0.2630  0.0865 -0.2218
   36POPC  H17R 4856   3.617   4.219   8.796 -1.0029 -0.7067 -1.6364
   36POPC  H17S 4857   3.684   4.100   8.695  2.5510 -0.3162 -0.6370
   36POPC  C218 4858   3.852   4.203   8.790  0.6463 -0.7544  0.1957
   36POPC  H18R 4859   3.872   4.250   8.691 -0.9498 -0.1587  0.1255
   36POPC  H18S 4860   3.913   4.113   8.811  0.7714 -1.2119 -1.8640
   36POPC  H18T 4861   3.866   4.277   8.872  0.3281 -2.1118  1.5165
   36POPC   C33 4862   3.665   4.514  10.015 -0.2878 -0.2614 -0.2566
   36POPC   H3X 4863   3.724   4.601  10.053 -2.2168  0.6888  0.7042
   36POPC   H3Y 4864   3.558   4.538  10.032 -0.0903  1.7510 -1.5091
   36POPC   C34 4865   3.686   4.497   9.862 -0.4685  0.4611  0.4547
   36POPC   H4X 4866   3.655   4.395   9.829 -0.5989  0.4430  0.6283
   36POPC   H4Y 4867   3.788   4.529   9.832 -0.8819  2.2029  0.7947
   36POPC   C35 4868   3.601   4.594   9.783 -0.1896  0.3873  0.4715
   36POPC   H5X 4869   3.618   4.698   9.818  3.0589  0.5920 -1.3425
   36POPC   H5Y 4870   3.497   4.572   9.813 -0.0883 -0.8445 -0.0140
   36POPC   C36 4871   3.607   4.579   9.629 -0.0289 -0.1679  0.2243
   36POPC   H6X 4872   3.705   4.619   9.596 -0.2502  1.3869  1.3491
   36POPC   H6Y 4873   3.527   4.641   9.583  1.8718  1.9188 -0.4694
   36POPC   C37 4874   3.596   4.443   9.560 -0.3549  0.4276 -0.3966
   36POPC   H7X 4875   3.514   4.388   9.610  0.4648  1.4178  2.2462
   36POPC   H7Y 4876   3.679   4.375   9.590 -0.2625  0.0392 -1.5010
   36POPC   C38 4877   3.574   4.433   9.412  0.2597 -0.2595  0.0512
   36POPC   H8X 4878   3.467   4.462   9.401 -0.6722 -2.7879  1.5122
   36POPC   H8Y 4879   3.580   4.325   9.386 -0.8854 -0.5574  0.9237
   36POPC   C39 4880   3.669   4.519   9.315  0.5761 -0.2683  0.6605
   36POPC   H9X 4881   3.771   4.494   9.352  0.2929 -2.0623  0.2765
   36POPC   H9Y 4882   3.650   4.628   9.332  3.0264  0.0462  1.8398
   36POPC  C310 4883   3.634   4.476   9.174 -0.1079  0.0653 -0.4507
   36POPC  H10X 4884   3.524   4.467   9.163 -0.5509  2.1099  1.5504
   36POPC  H10Y 4885   3.684   4.378   9.155  2.6366  1.6299 -2.0486
   36POPC  C311 4886   3.679   4.572   9.058 -0.6015  0.1565 -0.0496
   36POPC  H11X 4887   3.790   4.570   9.062 -0.6334 -0.6650  1.1933
   36POPC  H11Y 4888   3.641   4.675   9.076  0.7030  0.5581  0.5113
   36POPC  C312 4889   3.633   4.519   8.927 -0.0815  0.2770  1.0412
   36POPC  H12X 4890   3.524   4.501   8.922 -0.0759  0.5897 -0.4450
   36POPC  H12Y 4891   3.683   4.422   8.906 -0.8164 -0.4127  2.3640
   36POPC  C313 4892   3.678   4.601   8.796 -0.2253 -0.1331 -0.7977
   36POPC  H13X 4893   3.785   4.575   8.781 -0.8720 -1.6478 -3.4235
   36POPC  H13Y 4894   3.672   4.711   8.811  2.6563  0.1649 -1.1971
   36POPC  C314 4895   3.596   4.567   8.677 -0.4120  0.5549  0.7436
   36POPC  H14X 4896   3.583   4.457   8.688  3.3486 -0.1865 -0.7457
   36POPC  H14Y 4897   3.665   4.584   8.592 -0.1102  3.8335  1.5094
   36POPC  C315 4898   3.464   4.638   8.659 -1.1379  0.0445  0.1763
   36POPC  H15X 4899   3.483   4.742   8.628  0.8810 -0.8742 -1.9291
   36POPC  H15Y 4900   3.404   4.642   8.753 -2.2236  0.5095 -0.5121
   36POPC  C316 4901   3.373   4.581   8.548  0.5346 -0.1343 -0.2215
   36POPC  H16X 4902   3.291   4.521   8.593 -0.3966  1.3984  0.2094
   36POPC  H16Y 4903   3.428   4.530   8.466 -0.0111  0.3163 -0.8827
   36POPC  H16Z 4904   3.320   4.668   8.502  0.0477 -0.6151 -0.5858
   37POPC     N 4905   1.226   5.961   6.248  0.2594 -0.3772  0.0884
   37POPC   C12 4906   1.207   5.865   6.371 -0.9154 -0.2720  0.6574
   37POPC  H12A 4907   1.213   5.767   6.327  0.3453  0.5316 -1.0598
   37POPC  H12B 4908   1.110   5.882   6.417 -0.8896  1.0154  0.2592
   37POPC   C13 4909   1.358   5.937   6.182 -0.2921 -0.7052  0.0478
   37POPC  H13A 4910   1.361   5.834   6.149  1.4822 -0.4295 -0.8033
   37POPC  H13B 4911   1.382   6.003   6.099 -0.1460 -0.6047  0.1699
   37POPC  H13C 4912   1.426   5.941   6.265 -0.2264 -0.5855 -0.0101
   37POPC   C14 4913   1.124   5.938   6.145  0.1856 -0.6410 -0.5416
   37POPC  H14A 4914   1.130   6.013   6.068 -1.1455  0.6554  0.5760
   37POPC  H14B 4915   1.153   5.847   6.093  0.6199  0.2251 -1.8718
   37POPC  H14C 4916   1.023   5.946   6.181  0.1222  1.1331 -1.0254
   37POPC   C15 4917   1.220   6.103   6.297 -0.2037 -0.5107 -0.0622
   37POPC  H15A 4918   1.124   6.148   6.317  0.3346  1.0645 -0.8085
   37POPC  H15B 4919   1.263   6.165   6.220  0.2038 -0.6619  0.0383
   37POPC  H15C 4920   1.289   6.131   6.376 -1.2641  0.1565  0.6521
   37POPC   C11 4921   1.321   5.871   6.470 -0.5653  0.2670 -0.1237
   37POPC  H11A 4922   1.285   5.835   6.568 -0.3233 -0.2030 -0.2034
   37POPC  H11B 4923   1.332   5.978   6.498  0.1939 -0.2349  1.6048
   37POPC     P 4924   1.512   5.684   6.474  0.1831  0.2322  0.1959
   37POPC   O13 4925   1.629   5.648   6.389  0.6314 -0.3925 -0.8320
   37POPC   O14 4926   1.402   5.586   6.489 -0.3111  0.5684 -0.2379
   37POPC   O12 4927   1.448   5.819   6.426 -0.3076 -0.1996  0.2965
   37POPC   O11 4928   1.565   5.715   6.618  0.1690 -0.1791 -0.4540
   37POPC    C1 4929   1.614   5.836   6.653 -0.1100  0.2454  0.0409
   37POPC    HA 4930   1.538   5.899   6.704  0.3376 -0.0473  1.0888
   37POPC    HB 4931   1.656   5.894   6.568  1.0479 -2.8059 -1.6384
   37POPC    C2 4932   1.712   5.819   6.772 -0.1830 -0.9326 -0.1645
   37POPC    HS 4933   1.790   5.746   6.740 -2.3258 -3.0253 -0.9331
   37POPC   O21 4934   1.641   5.782   6.890  0.1684 -0.1335 -0.5365
   37POPC   C21 4935   1.723   5.718   6.976 -0.1746  0.4142 -0.5710
   37POPC   O22 4936   1.834   5.673   6.948  0.1448  0.3444 -0.1873
   37POPC   C22 4937   1.663   5.695   7.115 -0.5326 -0.0394 -0.5343
   37POPC   H2R 4938   1.630   5.589   7.125 -0.3254  0.0003  0.8422
   37POPC   H2S 4939   1.566   5.748   7.123  0.7947  2.7340 -1.4709
   37POPC    C3 4940   1.772   5.960   6.811  0.0442  0.6396 -0.0201
   37POPC    HX 4941   1.689   6.024   6.848  1.4175  2.1761  0.5679
   37POPC    HY 4942   1.814   6.004   6.718  0.8911  2.2324  1.0638
   37POPC   O31 4943   1.855   5.966   6.931 -0.3337  0.9284 -0.0982
   37POPC   C31 4944   1.992   5.962   6.906 -0.1033  0.1330  0.3134
   37POPC   O32 4945   2.034   5.948   6.791 -0.0059 -0.1297  0.3018
   37POPC   C32 4946   2.066   5.980   7.036 -0.3637  0.2128 -0.4445
   37POPC   H2X 4947   2.140   6.057   7.005 -1.7675  1.1062 -1.6863
   37POPC   H2Y 4948   2.122   5.887   7.061  0.0195  0.2758 -1.0398
   37POPC   C23 4949   1.735   5.747   7.241 -0.5652  0.2343  0.1296
   37POPC   H3R 4950   1.729   5.858   7.237 -1.7899  0.1540 -1.6957
   37POPC   H3S 4951   1.843   5.724   7.234 -0.8001 -0.6686 -0.8607
   37POPC   C24 4952   1.664   5.704   7.368 -1.1274  0.1988 -0.4217
   37POPC   H4R 4953   1.666   5.593   7.375 -4.2498 -0.0634 -1.8727
   37POPC   H4S 4954   1.558   5.735   7.352 -0.7915  0.8459 -1.4600
   37POPC   C25 4955   1.734   5.760   7.497  0.5711 -0.2966 -0.0118
   37POPC   H5R 4956   1.725   5.869   7.475 -1.6436 -0.3960  0.1916
   37POPC   H5S 4957   1.839   5.730   7.482  0.6737  0.0948 -0.0937
   37POPC   C26 4958   1.669   5.714   7.623  0.3208  0.2829 -0.7098
   37POPC   H6R 4959   1.685   5.604   7.625  2.3169  0.5312  1.6760
   37POPC   H6S 4960   1.559   5.719   7.637  0.2909 -1.5045 -0.0131
   37POPC   C27 4961   1.741   5.775   7.744  0.4435 -0.0978  0.5057
   37POPC   H7R 4962   1.726   5.884   7.737 -0.6545 -0.2994 -0.7361
   37POPC   H7S 4963   1.850   5.765   7.727  0.4916 -0.7478  1.1428
   37POPC   C28 4964   1.696   5.717   7.878 -0.6267 -0.2307  0.3215
   37POPC   H8R 4965   1.587   5.699   7.870 -0.4652 -0.6698 -1.2489
   37POPC   H8S 4966   1.711   5.803   7.946  0.9463  0.4734 -0.8622
   37POPC   C29 4967   1.779   5.596   7.922  0.4854 -0.4734 -0.0212
   37POPC   H91 4968   1.733   5.501   7.893 -1.7956  1.1739 -2.2246
   37POPC  C210 4969   1.887   5.600   7.996 -0.4920 -0.4565 -0.2726
   37POPC  H101 4970   1.928   5.509   8.042 -0.0168  0.8974  2.1551
   37POPC  C211 4971   1.956   5.726   8.055  0.5393  0.3823 -0.4644
   37POPC  H11R 4972   1.901   5.822   8.043 -1.0957 -0.3604  0.7623
   37POPC  H11S 4973   2.058   5.740   8.013  0.3847  0.0604 -0.9501
   37POPC  C212 4974   1.962   5.712   8.208  0.4310  0.8842 -0.0726
   37POPC  H12R 4975   2.036   5.636   8.241  1.4935  2.7335  2.0811
   37POPC  H12S 4976   1.864   5.675   8.246  0.1537 -0.0814 -1.6322
   37POPC  C213 4977   2.004   5.841   8.279 -0.7293  0.1003 -0.2864
   37POPC  H13R 4978   1.917   5.909   8.265 -0.7529  0.8438  2.7753
   37POPC  H13S 4979   2.088   5.893   8.229 -1.8671  2.8260  0.4682
   37POPC  C214 4980   2.051   5.819   8.429  0.4338 -0.1557  0.2559
   37POPC  H14R 4981   2.085   5.917   8.468  0.4300  0.5381 -1.3990
   37POPC  H14S 4982   2.136   5.748   8.428  0.9971  0.4976 -1.4686
   37POPC  C215 4983   1.932   5.760   8.512 -0.7705  0.1803 -0.7998
   37POPC  H15R 4984   1.925   5.651   8.498 -0.8899 -0.4438  2.9591
   37POPC  H15S 4985   1.835   5.807   8.483 -0.2267  2.0242  0.1653
   37POPC  C216 4986   1.946   5.784   8.667  0.2521  0.4036 -0.4764
   37POPC  H16R 4987   1.923   5.892   8.676 -0.5223  0.1437  0.7583
   37POPC  H16S 4988   2.049   5.756   8.698 -0.6037 -2.7076 -0.1130
   37POPC  C217 4989   1.842   5.714   8.749 -0.0922  0.2743  0.0331
   37POPC  H17R 4990   1.869   5.608   8.766  1.3062  0.4276 -1.0609
   37POPC  H17S 4991   1.747   5.716   8.692  1.3658 -0.8439 -2.5937
   37POPC  C218 4992   1.815   5.779   8.882  0.0125  0.6044  0.2309
   37POPC  H18R 4993   1.730   5.737   8.940  0.7426 -1.6264 -0.2235
   37POPC  H18S 4994   1.776   5.881   8.859  1.2381  0.7740 -1.2609
   37POPC  H18T 4995   1.909   5.788   8.942 -0.0553 -0.8831  0.5800
   37POPC   C33 4996   1.974   6.034   7.148 -0.3102 -0.9880 -0.2041
   37POPC   H3X 4997   1.892   5.965   7.178 -0.4418 -0.5350  0.5057
   37POPC   H3Y 4998   1.934   6.136   7.130  2.6863  0.0368 -1.9013
   37POPC   C34 4999   2.060   6.047   7.281  0.1972  0.3083  0.1377
   37POPC   H4X 5000   2.134   6.125   7.252  0.6002  1.2927  3.4019
   37POPC   H4Y 5001   2.113   5.951   7.298 -0.2166 -0.4231 -2.3602
   37POPC   C35 5002   1.963   6.092   7.397 -0.2329  0.3333 -0.3554
   37POPC   H5X 5003   1.884   6.018   7.424  2.2359 -1.2714  3.2889
   37POPC   H5Y 5004   1.914   6.187   7.367  1.4473  1.3168 -0.1160
   37POPC   C36 5005   2.028   6.132   7.532  0.2281  0.1666  0.1954
   37POPC   H6X 5006   1.957   6.202   7.581  0.4385  0.8030 -0.3974
   37POPC   H6Y 5007   2.118   6.196   7.524 -0.6612  1.2778 -1.8396
   37POPC   C37 5008   2.046   6.017   7.628  0.7926 -0.1020 -0.5283
   37POPC   H7X 5009   2.115   5.951   7.572 -1.2708 -0.3586 -2.9690
   37POPC   H7Y 5010   1.950   5.964   7.643 -0.0033  1.2548 -0.5962
   37POPC   C38 5011   2.104   6.065   7.759 -0.5761 -1.0431 -1.0903
   37POPC   H8X 5012   2.200   6.109   7.724 -1.2785  0.3873 -1.3059
   37POPC   H8Y 5013   2.141   5.974   7.811  0.2896 -0.4474 -0.6253
   37POPC   C39 5014   2.022   6.168   7.837 -0.4722 -0.1264  0.3198
   37POPC   H9X 5015   2.014   6.262   7.778 -1.1369  0.1572  0.8587
   37POPC   H9Y 5016   2.078   6.196   7.928 -0.0176  2.3057 -0.6193
   37POPC  C310 5017   1.877   6.128   7.874 -0.0889  0.5176 -0.3257
   37POPC  H10X 5018   1.866   6.048   7.950 -1.3150  0.1932 -0.8173
   37POPC  H10Y 5019   1.820   6.104   7.782  0.3152  2.7477 -1.2176
   37POPC  C311 5020   1.798   6.248   7.926 -0.0642 -0.9302 -0.3976
   37POPC  H11X 5021   1.693   6.226   7.954 -0.4199  1.7934  0.6629
   37POPC  H11Y 5022   1.795   6.335   7.857  0.6722  0.4276  1.2003
   37POPC  C312 5023   1.864   6.303   8.055 -0.1622 -0.0440  0.3586
   37POPC  H12X 5024   1.794   6.378   8.099  0.2031 -0.0260  0.9214
   37POPC  H12Y 5025   1.954   6.363   8.031  0.7817 -0.9769  1.4876
   37POPC  C313 5026   1.911   6.202   8.163  0.5099 -0.2121  1.1055
   37POPC  H13X 5027   1.988   6.131   8.126  0.7922 -0.8980  2.9097
   37POPC  H13Y 5028   1.830   6.130   8.189 -1.6994  1.2330 -1.2550
   37POPC  C314 5029   1.964   6.264   8.291 -0.1161  0.6557  0.1219
   37POPC  H14X 5030   1.884   6.327   8.336 -0.5068 -0.8561  1.6461
   37POPC  H14Y 5031   2.051   6.327   8.263  1.4939 -2.1272 -1.5691
   37POPC  C315 5032   2.014   6.160   8.384  0.2844 -0.2928  0.0095
   37POPC  H15X 5033   2.088   6.099   8.329  0.2139  0.0122 -0.4283
   37POPC  H15Y 5034   1.931   6.096   8.422 -0.2691  0.1776 -0.3913
   37POPC  C316 5035   2.095   6.219   8.508 -0.0616  0.5054  0.0348
   37POPC  H16X 5036   2.025   6.262   8.583 -1.5807 -4.3758  1.8784
   37POPC  H16Y 5037   2.161   6.298   8.469  0.2492 -0.3844 -1.2966
   37POPC  H16Z 5038   2.156   6.139   8.556 -0.5557 -0.0074 -0.1707
   38POPC     N 5039   3.675   3.187   5.912  0.9925 -0.6338  0.4231
   38POPC   C12 5040   3.522   3.220   5.936  0.0843  0.3512  0.4776
   38POPC  H12A 5041   3.465   3.129   5.925  0.0140  0.4751 -0.2589
   38POPC  H12B 5042   3.482   3.273   5.850  0.1038 -1.2955 -0.5952
   38POPC   C13 5043   3.698   3.065   5.818  0.7691 -0.0371  0.0816
   38POPC  H13A 5044   3.664   3.087   5.717  0.4524  1.1889  0.4325
   38POPC  H13B 5045   3.803   3.042   5.807  1.2079  1.6775  0.2914
   38POPC  H13C 5046   3.641   2.979   5.849  2.6442 -0.9707  1.0583
   38POPC   C14 5047   3.738   3.315   5.857 -0.1865  0.6345 -0.0247
   38POPC  H14A 5048   3.730   3.397   5.926 -1.9315 -0.0171  0.5855
   38POPC  H14B 5049   3.846   3.308   5.851 -0.1003  0.0189  1.5557
   38POPC  H14C 5050   3.703   3.335   5.757  0.0889  2.0353  0.1385
   38POPC   C15 5051   3.738   3.144   6.035 -0.0394 -0.0740 -0.7850
   38POPC  H15A 5052   3.840   3.125   6.007 -0.0638  1.8305 -2.3757
   38POPC  H15B 5053   3.707   3.055   6.088  0.6903  1.3590  2.2801
   38POPC  H15C 5054   3.743   3.219   6.113  3.5008 -2.0513  1.1724
   38POPC   C11 5055   3.488   3.293   6.071  0.6756  0.2865 -0.2588
   38POPC  H11A 5056   3.547   3.248   6.153  3.3788  0.6380 -1.8746
   38POPC  H11B 5057   3.382   3.275   6.100  0.2757 -0.3315 -1.9369
   38POPC     P 5058   3.492   3.521   6.173 -0.0049  0.1786  0.0321
   38POPC   O13 5059   3.345   3.518   6.199 -0.2884 -0.0232  0.2317
   38POPC   O14 5060   3.546   3.650   6.120 -0.0459 -1.0075  0.2509
   38POPC   O12 5061   3.514   3.430   6.045  0.3130  0.1034  0.0101
   38POPC   O11 5062   3.582   3.465   6.289 -0.7937  0.0081 -0.1984
   38POPC    C1 5063   3.534   3.461   6.423  0.1942  0.3331  0.8204
   38POPC    HA 5064   3.433   3.506   6.433  0.8337  1.9876  0.0359
   38POPC    HB 5065   3.607   3.512   6.489  1.7097 -0.6294 -0.0556
   38POPC    C2 5066   3.537   3.316   6.477  1.0195  0.0805  0.4357
   38POPC    HS 5067   3.467   3.261   6.411  0.3062  0.2953  0.9926
   38POPC   O21 5068   3.490   3.309   6.614 -0.1462  0.0344 -0.0304
   38POPC   C21 5069   3.369   3.330   6.652 -0.4412 -0.3416  0.3349
   38POPC   O22 5070   3.272   3.340   6.577 -0.4772 -0.3023 -0.3580
   38POPC   C22 5071   3.345   3.333   6.807  0.6120  1.1760  0.2053
   38POPC   H2R 5072   3.408   3.416   6.846  0.9963  0.8904  0.1901
   38POPC   H2S 5073   3.393   3.240   6.843 -1.7035 -0.2339 -0.1489
   38POPC    C3 5074   3.676   3.254   6.466  0.1416  0.2708  0.3696
   38POPC    HX 5075   3.712   3.254   6.361 -1.0394  1.1748 -0.0550
   38POPC    HY 5076   3.674   3.149   6.500 -2.1692  0.3651  0.6356
   38POPC   O31 5077   3.770   3.337   6.539 -0.1291  0.0104 -0.2100
   38POPC   C31 5078   3.799   3.292   6.664 -0.0948 -0.6649  0.5722
   38POPC   O32 5079   3.754   3.195   6.719 -0.3107 -0.2377 -0.2130
   38POPC   C32 5080   3.889   3.392   6.731 -0.0785 -0.2464 -0.9080
   38POPC   H2X 5081   3.952   3.440   6.653  2.0576 -1.0046  0.2836
   38POPC   H2Y 5082   3.957   3.339   6.800 -0.6517  0.4682  0.2263
   38POPC   C23 5083   3.199   3.327   6.859  0.2185  0.4450 -1.0502
   38POPC   H3R 5084   3.121   3.267   6.808 -0.8347  0.4742  0.4533
   38POPC   H3S 5085   3.152   3.427   6.854 -2.8017 -0.8531 -0.6728
   38POPC   C24 5086   3.200   3.277   7.002  0.5712 -0.1222 -0.7049
   38POPC   H4R 5087   3.272   3.331   7.067  2.4197 -1.0217 -1.9195
   38POPC   H4S 5088   3.234   3.172   7.002 -1.3119 -0.7665 -1.2459
   38POPC   C25 5089   3.065   3.290   7.081  0.1022 -1.0284 -0.3486
   38POPC   H5R 5090   2.986   3.238   7.023 -1.3916 -0.8132  1.4091
   38POPC   H5S 5091   3.027   3.394   7.082  0.1438 -1.0108  0.6368
   38POPC   C26 5092   3.082   3.217   7.218 -0.0485 -0.3812 -0.1236
   38POPC   H6R 5093   3.093   3.303   7.286  0.6522 -0.9393  0.4848
   38POPC   H6S 5094   3.176   3.158   7.229  0.1480 -0.5321 -2.2082
   38POPC   C27 5095   2.972   3.119   7.260 -0.5073 -0.3205  0.8215
   38POPC   H7R 5096   2.973   3.037   7.186  0.5698  0.0780  0.3590
   38POPC   H7S 5097   2.877   3.173   7.239  0.2813  0.7789 -0.1167
   38POPC   C28 5098   2.973   3.077   7.408  0.0896 -0.3210 -0.4044
   38POPC   H8R 5099   3.060   3.010   7.422 -0.6811 -1.8634 -2.4231
   38POPC   H8S 5100   2.885   3.012   7.429 -0.4232  0.2122 -0.8689
   38POPC   C29 5101   2.968   3.194   7.503  0.1044 -0.0959 -0.4671
   38POPC   H91 5102   2.923   3.287   7.465 -2.0420 -0.6202  0.6217
   38POPC  C210 5103   3.026   3.203   7.623 -0.2976 -0.5643  0.0272
   38POPC  H101 5104   3.016   3.293   7.684  1.7389 -0.3260  0.0479
   38POPC  C211 5105   3.105   3.086   7.684 -0.6106  0.2741  0.1106
   38POPC  H11R 5106   3.207   3.122   7.709 -0.5917  0.4296 -0.1895
   38POPC  H11S 5107   3.117   3.002   7.612 -0.8429  0.3138  0.0244
   38POPC  C212 5108   3.043   3.049   7.820 -0.2231  0.0861 -0.0536
   38POPC  H12R 5109   3.039   3.140   7.883  0.3968  0.2630 -0.2646
   38POPC  H12S 5110   3.102   2.968   7.868  0.2843  1.0377  0.9569
   38POPC  C213 5111   2.902   2.983   7.804 -0.4365 -0.5931 -0.0395
   38POPC  H13R 5112   2.913   2.904   7.728 -0.2138  2.6467 -3.6578
   38POPC  H13S 5113   2.832   3.055   7.757  0.2635  0.4940  0.5361
   38POPC  C214 5114   2.834   2.928   7.933  0.0287 -0.6572 -0.3827
   38POPC  H14R 5115   2.875   2.976   8.024 -0.9433  0.4210 -0.4870
   38POPC  H14S 5116   2.871   2.823   7.932  1.3477 -0.1997 -0.3694
   38POPC  C215 5117   2.684   2.934   7.947  0.4478  0.1217  0.1862
   38POPC  H15R 5118   2.639   2.900   7.851 -0.7909  1.9665  0.0678
   38POPC  H15S 5119   2.658   3.037   7.979  1.6559  1.3710 -2.5148
   38POPC  C216 5120   2.633   2.849   8.064  0.6812  0.0485 -0.6639
   38POPC  H16R 5121   2.682   2.876   8.160 -1.5233 -0.8858  0.7743
   38POPC  H16S 5122   2.656   2.743   8.040  3.8033  0.6582 -0.7812
   38POPC  C217 5123   2.479   2.856   8.084 -0.4858  1.1372  0.2748
   38POPC  H17R 5124   2.425   2.825   7.991 -1.3447  1.9121  0.5017
   38POPC  H17S 5125   2.459   2.965   8.088 -0.6817  1.2791 -2.4455
   38POPC  C218 5126   2.421   2.779   8.205  0.1584  0.0329  0.1647
   38POPC  H18R 5127   2.310   2.787   8.215  0.3819  1.5142  2.0664
   38POPC  H18S 5128   2.481   2.799   8.296 -0.0441 -1.1534  0.5810
   38POPC  H18T 5129   2.448   2.673   8.189 -2.3257 -1.1796  3.0168
   38POPC   C33 5130   3.804   3.511   6.795  0.6276  0.8263 -0.2149
   38POPC   H3X 5131   3.737   3.555   6.718 -2.4285 -2.1026  0.5482
   38POPC   H3Y 5132   3.880   3.589   6.818  1.0987  0.6036 -0.9881
   38POPC   C34 5133   3.715   3.475   6.912 -0.3304  0.7474 -1.0550
   38POPC   H4X 5134   3.639   3.402   6.876  2.5095 -3.3130  0.4531
   38POPC   H4Y 5135   3.666   3.569   6.945 -1.1734 -0.6311  1.9927
   38POPC   C35 5136   3.797   3.419   7.036  0.1657 -0.1374 -0.6926
   38POPC   H5X 5137   3.881   3.491   7.040 -1.4986  1.9110 -0.8019
   38POPC   H5Y 5138   3.845   3.321   7.017  0.8338  0.4614 -2.3054
   38POPC   C36 5139   3.722   3.406   7.166  0.1259 -0.2159 -0.0325
   38POPC   H6X 5140   3.652   3.320   7.155 -1.7130  1.0435  1.1428
   38POPC   H6Y 5141   3.655   3.493   7.187 -0.7482 -0.5689 -1.2406
   38POPC   C37 5142   3.806   3.377   7.287  0.2864  0.2025 -0.5807
   38POPC   H7X 5143   3.875   3.462   7.300 -1.2889  1.3364  0.8120
   38POPC   H7Y 5144   3.853   3.281   7.255 -2.1361 -0.7436 -1.6164
   38POPC   C38 5145   3.726   3.356   7.417  0.2667  0.1212 -0.2770
   38POPC   H8X 5146   3.640   3.294   7.385  1.4880 -0.4544 -2.6063
   38POPC   H8Y 5147   3.692   3.453   7.459  1.5747 -0.3312  2.0142
   38POPC   C39 5148   3.807   3.301   7.528  0.3746 -0.0045 -0.4965
   38POPC   H9X 5149   3.902   3.355   7.547  1.6841 -2.3111 -0.1713
   38POPC   H9Y 5150   3.845   3.200   7.505 -0.8868 -0.4375 -0.7470
   38POPC  C310 5151   3.736   3.291   7.661  0.3548 -0.5159 -0.1132
   38POPC  H10X 5152   3.645   3.228   7.646  0.9587 -1.3086 -0.5157
   38POPC  H10Y 5153   3.699   3.389   7.695 -0.2048 -1.3492  1.8058
   38POPC  C311 5154   3.819   3.228   7.774  0.5254 -0.6029  0.1621
   38POPC  H11X 5155   3.881   3.308   7.819 -0.9694  0.6932 -0.0109
   38POPC  H11Y 5156   3.896   3.160   7.733  2.5564  1.3049  0.6164
   38POPC  C312 5157   3.734   3.164   7.884  0.9399  0.9951  0.5011
   38POPC  H12X 5158   3.672   3.084   7.839 -2.0587  3.3315  0.1349
   38POPC  H12Y 5159   3.655   3.237   7.912 -1.4589 -1.9610  1.8734
   38POPC  C313 5160   3.815   3.127   8.008 -0.0059  0.8935 -0.2487
   38POPC  H13X 5161   3.861   3.220   8.048  1.3818 -0.4025  1.2549
   38POPC  H13Y 5162   3.892   3.049   7.991 -0.8005 -0.2593  1.2988
   38POPC  C314 5163   3.723   3.066   8.112  0.0278  0.1694 -0.2724
   38POPC  H14X 5164   3.673   2.980   8.064 -0.0109  0.7702 -1.3448
   38POPC  H14Y 5165   3.644   3.143   8.125  0.2570  0.0619  2.4188
   38POPC  C315 5166   3.786   3.005   8.238 -0.4678 -0.5501 -0.5519
   38POPC  H15X 5167   3.705   2.966   8.303 -1.2564 -1.8697 -2.2492
   38POPC  H15Y 5168   3.838   3.090   8.288 -1.9368 -0.9315  1.7714
   38POPC  C316 5169   3.888   2.890   8.211  0.2822 -0.0702 -0.5754
   38POPC  H16X 5170   3.928   2.839   8.301 -2.3536 -0.1271  0.6331
   38POPC  H16Y 5171   3.971   2.928   8.148 -0.6190  1.0982 -1.0887
   38POPC  H16Z 5172   3.842   2.809   8.150 -0.1431  0.4122 -0.9109
   39POPC     N 5173   4.255   4.384   5.797 -0.4433  0.6761  0.0065
   39POPC   C12 5174   4.300   4.288   5.911 -0.4664 -0.8029  0.6898
   39POPC  H12A 5175   4.398   4.257   5.877 -0.5293  0.7567 -1.1165
   39POPC  H12B 5176   4.231   4.206   5.894 -2.4123  0.9983 -0.5924
   39POPC   C13 5177   4.352   4.498   5.780  0.0063 -0.2357  0.1015
   39POPC  H13A 5178   4.451   4.465   5.751 -0.4361 -2.1635  0.5851
   39POPC  H13B 5179   4.314   4.572   5.712 -1.6299  0.2476  1.4691
   39POPC  H13C 5180   4.357   4.543   5.878  0.3115 -1.1613  0.5273
   39POPC   C14 5181   4.260   4.307   5.671  0.1893  0.5615  0.9841
   39POPC  H14A 5182   4.184   4.231   5.670  0.5764  0.1482  2.1980
   39POPC  H14B 5183   4.229   4.365   5.585  0.0097 -0.3049  0.4594
   39POPC  H14C 5184   4.354   4.264   5.641 -1.1095 -0.8951 -1.3401
   39POPC   C15 5185   4.120   4.438   5.808 -0.3238  0.1274 -0.2187
   39POPC  H15A 5186   4.086   4.503   5.729 -0.8506  0.5431  0.3298
   39POPC  H15B 5187   4.105   4.477   5.908 -0.9702  1.3670 -0.7666
   39POPC  H15C 5188   4.051   4.355   5.810  1.8394 -1.7322 -0.0476
   39POPC   C11 5189   4.301   4.350   6.051  0.2595  0.2002 -0.1683
   39POPC  H11A 5190   4.306   4.266   6.124 -2.3073  0.6290  0.6003
   39POPC  H11B 5191   4.209   4.404   6.079  1.2949  1.1763  1.5684
   39POPC     P 5192   4.557   4.388   6.104  0.0644  0.1024  1.1197
   39POPC   O13 5193   4.647   4.500   6.074  0.4251 -0.0363 -0.3154
   39POPC   O14 5194   4.578   4.259   6.034 -0.0216 -1.0194  0.3915
   39POPC   O12 5195   4.412   4.447   6.066  0.2342  0.4144 -0.0071
   39POPC   O11 5196   4.546   4.362   6.261  0.0578 -0.5371  0.2992
   39POPC    C1 5197   4.531   4.227   6.307  0.5617  0.5787 -0.1342
   39POPC    HA 5198   4.625   4.168   6.306 -0.4069 -1.0303  0.2084
   39POPC    HB 5199   4.457   4.169   6.248  0.9632  0.1989 -0.2746
   39POPC    C2 5200   4.477   4.218   6.455  0.1635 -0.2096  0.2037
   39POPC    HS 5201   4.372   4.252   6.464  0.0705  0.2984 -2.2309
   39POPC   O21 5202   4.557   4.281   6.555 -0.2216  0.7325 -0.1038
   39POPC   C21 5203   4.548   4.408   6.559 -0.1511 -0.4796 -0.0428
   39POPC   O22 5204   4.459   4.473   6.503 -0.3917 -0.3501  0.3488
   39POPC   C22 5205   4.657   4.461   6.655 -0.1539  0.7476  0.5655
   39POPC   H2R 5206   4.706   4.546   6.604 -0.7566  0.1027 -1.1440
   39POPC   H2S 5207   4.736   4.384   6.666 -0.7515 -0.1491 -1.1215
   39POPC    C3 5208   4.464   4.067   6.491 -0.3427 -0.6921 -0.1923
   39POPC    HX 5209   4.384   4.024   6.427 -1.0748 -2.0086  1.5300
   39POPC    HY 5210   4.434   4.070   6.598 -1.7411  3.4938 -0.4947
   39POPC   O31 5211   4.590   3.994   6.468 -0.2081 -0.3021  0.0217
   39POPC   C31 5212   4.585   3.869   6.514  0.3263 -0.3493  0.5857
   39POPC   O32 5213   4.490   3.821   6.576  0.5053  0.4255 -0.0362
   39POPC   C32 5214   4.718   3.803   6.496  0.6702  0.0348 -0.4623
   39POPC   H2X 5215   4.721   3.772   6.390  1.2007  0.1213 -0.4768
   39POPC   H2Y 5216   4.800   3.876   6.513  1.0870 -0.7774  1.3534
   39POPC   C23 5217   4.597   4.514   6.781 -0.1775 -0.2478 -0.8069
   39POPC   H3R 5218   4.529   4.437   6.825  1.1450 -1.1832 -0.3214
   39POPC   H3S 5219   4.539   4.606   6.762  0.5232  0.3213 -0.2553
   39POPC   C24 5220   4.707   4.524   6.890  0.0973 -0.9684  0.2655
   39POPC   H4R 5221   4.792   4.576   6.842 -2.2390  1.1368 -1.8901
   39POPC   H4S 5222   4.740   4.431   6.941  1.6007 -0.3555  0.4411
   39POPC   C25 5223   4.650   4.607   7.004 -0.4425  0.0330  0.5228
   39POPC   H5R 5224   4.581   4.682   6.958  0.1912  0.3129  0.0165
   39POPC   H5S 5225   4.720   4.675   7.057 -0.3429  0.1141  0.2908
   39POPC   C26 5226   4.574   4.522   7.111 -0.0324 -0.2668  0.7291
   39POPC   H6R 5227   4.519   4.441   7.059 -0.1972  0.8205 -0.8531
   39POPC   H6S 5228   4.503   4.599   7.148  0.9463  1.7721 -1.3715
   39POPC   C27 5229   4.671   4.463   7.223  0.5298  0.1397  0.4156
   39POPC   H7R 5230   4.756   4.407   7.180  0.7069  0.4150  0.4082
   39POPC   H7S 5231   4.612   4.383   7.273 -0.4318 -0.2380 -1.2292
   39POPC   C28 5232   4.715   4.574   7.321 -0.5552  0.2996  0.2011
   39POPC   H8R 5233   4.619   4.615   7.358 -1.6041 -2.8451  1.3148
   39POPC   H8S 5234   4.769   4.649   7.260 -0.9305  1.0019  0.7204
   39POPC   C29 5235   4.805   4.523   7.428  0.3625  0.3867  0.7620
   39POPC   H91 5236   4.897   4.479   7.386  1.1849  1.8692  0.9538
   39POPC  C210 5237   4.782   4.529   7.554  0.0863 -0.1071 -0.4359
   39POPC  H101 5238   4.867   4.484   7.608 -0.0366 -2.0883 -1.7971
   39POPC  C211 5239   4.669   4.583   7.636  0.4804  0.1602 -0.0042
   39POPC  H11R 5240   4.591   4.623   7.567  1.9939  1.5581 -0.9800
   39POPC  H11S 5241   4.700   4.663   7.707  0.9361 -0.3287  0.3555
   39POPC  C212 5242   4.597   4.473   7.717 -0.3352 -0.6832 -0.0811
   39POPC  H12R 5243   4.553   4.397   7.649  1.4898 -0.7253 -1.2679
   39POPC  H12S 5244   4.513   4.528   7.765  0.8226  1.0961  0.0122
   39POPC  C213 5245   4.690   4.410   7.826 -0.0026  0.0538  0.4612
   39POPC  H13R 5246   4.742   4.492   7.880  0.3245 -1.1240  1.9694
   39POPC  H13S 5247   4.763   4.350   7.769  0.0165 -1.0650  1.6348
   39POPC  C214 5248   4.611   4.306   7.915 -0.3538 -0.4667 -0.3119
   39POPC  H14R 5249   4.529   4.270   7.850 -1.7880 -0.3192  1.3538
   39POPC  H14S 5250   4.566   4.369   7.994  0.1650  1.1097 -1.2378
   39POPC  C215 5251   4.693   4.189   7.973 -0.3401 -0.1256  0.0475
   39POPC  H15R 5252   4.719   4.120   7.891  0.1956 -0.9041  0.8536
   39POPC  H15S 5253   4.626   4.128   8.038 -0.6508  1.1210  0.9531
   39POPC  C216 5254   4.819   4.222   8.057 -0.8853  0.0215  0.1971
   39POPC  H16R 5255   4.797   4.282   8.148  0.8445 -0.9236  1.2969
   39POPC  H16S 5256   4.888   4.278   7.991  0.3423  0.8822  2.1128
   39POPC  C217 5257   4.892   4.100   8.097 -0.0108  0.4948 -0.1161
   39POPC  H17R 5258   4.909   4.039   8.006  0.2452 -0.2970  0.4454
   39POPC  H17S 5259   4.826   4.034   8.157 -0.1395  0.4828 -0.2703
   39POPC  C218 5260   5.022   4.114   8.187  1.0296 -0.4996 -0.8850
   39POPC  H18R 5261   5.110   4.162   8.139  2.4263 -2.7879 -0.8060
   39POPC  H18S 5262   5.043   4.005   8.200 -3.0096 -1.2372  1.0732
   39POPC  H18T 5263   4.999   4.155   8.287  0.3451 -2.3797 -0.2165
   39POPC   C33 5264   4.752   3.678   6.584 -0.4261 -0.1236 -0.0932
   39POPC   H3X 5265   4.847   3.631   6.549 -0.2936 -1.6128  2.0458
   39POPC   H3Y 5266   4.679   3.594   6.580  1.6214 -1.9577 -0.9796
   39POPC   C34 5267   4.773   3.728   6.731  0.3527 -0.5220  0.6457
   39POPC   H4X 5268   4.686   3.795   6.747 -0.0609 -0.0481 -2.9082
   39POPC   H4Y 5269   4.865   3.783   6.760  1.2027 -0.9563 -1.1256
   39POPC   C35 5270   4.761   3.613   6.830  0.2775 -0.3373 -0.4779
   39POPC   H5X 5271   4.834   3.530   6.817  0.1858 -0.6710  0.9268
   39POPC   H5Y 5272   4.658   3.571   6.828 -0.8378  2.1137  0.7184
   39POPC   C36 5273   4.770   3.659   6.973  0.2013 -0.9244  0.2140
   39POPC   H6X 5274   4.678   3.719   6.988  0.9679  0.6362 -1.0533
   39POPC   H6Y 5275   4.847   3.738   6.976  0.3322 -0.9923 -0.8388
   39POPC   C37 5276   4.797   3.554   7.079 -0.5576  0.1204 -0.0750
   39POPC   H7X 5277   4.890   3.500   7.053 -0.9553 -0.2883 -0.6780
   39POPC   H7Y 5278   4.721   3.473   7.071 -1.7588  1.1894  0.0968
   39POPC   C38 5279   4.803   3.606   7.228 -0.3215 -0.1792 -0.2463
   39POPC   H8X 5280   4.704   3.654   7.243 -0.4550 -0.7464  0.8836
   39POPC   H8Y 5281   4.878   3.685   7.248  0.0817 -0.0573 -2.1001
   39POPC   C39 5282   4.819   3.490   7.336 -0.8799 -0.2313  0.2665
   39POPC   H9X 5283   4.767   3.404   7.289  1.1157 -0.7719 -1.0752
   39POPC   H9Y 5284   4.775   3.525   7.431  1.7590  3.4251  0.3400
   39POPC  C310 5285   4.966   3.440   7.351 -0.0383 -0.1521 -0.0670
   39POPC  H10X 5286   5.003   3.384   7.263  0.0543  0.2562 -0.2892
   39POPC  H10Y 5287   4.966   3.373   7.440  1.3021 -1.6405 -1.1331
   39POPC  C311 5288   5.064   3.553   7.398 -0.1572  0.0176 -0.4156
   39POPC  H11X 5289   5.080   3.626   7.315 -1.4646 -1.2223 -1.7976
   39POPC  H11Y 5290   5.160   3.499   7.412  0.5824  1.3147 -0.3239
   39POPC  C312 5291   5.036   3.632   7.526  0.6237  0.1685  0.0617
   39POPC  H12X 5292   4.926   3.647   7.531  0.6546  0.9903 -1.2459
   39POPC  H12Y 5293   5.083   3.731   7.508 -1.2890  1.3467  1.1679
   39POPC  C313 5294   5.086   3.569   7.657  0.2507  1.1481  0.4026
   39POPC  H13X 5295   5.196   3.557   7.658  0.0808 -1.0231 -0.1008
   39POPC  H13Y 5296   5.043   3.467   7.665  1.3625  0.7428  1.4580
   39POPC  C314 5297   5.052   3.647   7.786 -0.1507 -0.2771  0.4615
   39POPC  H14X 5298   4.944   3.656   7.807 -0.1432 -0.7611  0.7157
   39POPC  H14Y 5299   5.096   3.746   7.762 -0.5633  0.5317  2.8198
   39POPC  C315 5300   5.125   3.603   7.914  0.1939  0.1626  0.3209
   39POPC  H15X 5301   5.228   3.572   7.890  0.0482  0.6403 -1.0576
   39POPC  H15Y 5302   5.069   3.514   7.950  0.7596 -0.0798  0.5969
   39POPC  C316 5303   5.129   3.716   8.023 -0.4005  0.3026 -0.4213
   39POPC  H16X 5304   5.032   3.770   8.028  0.4838  1.9006  0.4049
   39POPC  H16Y 5305   5.208   3.790   8.000 -0.8003  0.1230 -2.5977
   39POPC  H16Z 5306   5.155   3.665   8.119 -0.2081 -2.1800 -1.6991
   40POPC     N 5307   5.791   1.592   5.863  0.0759 -0.1803  0.2695
   40POPC   C12 5308   5.773   1.547   6.010  0.0409 -1.0041  0.1066
   40POPC  H12A 5309   5.764   1.440   6.019 -1.3203 -0.8565  0.7224
   40POPC  H12B 5310   5.685   1.589   6.056  0.7941  1.6663 -0.6929
   40POPC   C13 5311   5.770   1.742   5.841 -0.2131  0.4297  0.0815
   40POPC  H13A 5312   5.837   1.783   5.915 -1.2918 -2.0622  2.6355
   40POPC  H13B 5313   5.801   1.776   5.744 -1.4720  3.6993  0.7006
   40POPC  H13C 5314   5.668   1.769   5.865 -0.0998  1.9952 -1.1204
   40POPC   C14 5315   5.930   1.559   5.810 -0.4074  0.1141  0.0762
   40POPC  H14A 5316   6.005   1.607   5.870  0.0613  0.6217 -0.8860
   40POPC  H14B 5317   5.935   1.453   5.832 -1.5681  0.5377  2.6675
   40POPC  H14C 5318   5.951   1.579   5.706 -1.4541 -0.1860 -0.2006
   40POPC   C15 5319   5.692   1.524   5.775 -0.1000  0.4480 -0.2371
   40POPC  H15A 5320   5.703   1.565   5.676 -0.6050  1.6459  0.1899
   40POPC  H15B 5321   5.592   1.549   5.809  0.3029  0.1189  1.2544
   40POPC  H15C 5322   5.697   1.416   5.765  0.2538  0.3261  1.1364
   40POPC   C11 5323   5.888   1.591   6.110 -0.1016 -0.1782  0.0698
   40POPC  H11A 5324   5.978   1.529   6.096  0.2387 -0.1909  2.0397
   40POPC  H11B 5325   5.845   1.574   6.211 -0.9413  1.6374  0.0758
   40POPC     P 5326   6.072   1.779   6.097 -0.3556 -0.1897 -0.1417
   40POPC   O13 5327   6.076   1.925   6.084 -0.2900 -0.0004 -0.0786
   40POPC   O14 5328   6.145   1.706   5.993 -0.2195  0.0666  0.1292
   40POPC   O12 5329   5.923   1.732   6.102 -0.8366  0.7522  0.7188
   40POPC   O11 5330   6.136   1.741   6.238  0.1755 -0.2225  0.3606
   40POPC    C1 5331   6.053   1.747   6.356 -0.5500 -0.3055  0.8960
   40POPC    HA 5332   6.058   1.646   6.403 -2.2932 -0.5005  0.7465
   40POPC    HB 5333   5.947   1.748   6.323 -0.4581  0.7678  0.6141
   40POPC    C2 5334   6.086   1.862   6.443  0.1768 -0.0400  0.0481
   40POPC    HS 5335   6.083   1.958   6.387  0.4363  0.0865  0.2493
   40POPC   O21 5336   6.219   1.850   6.489 -0.3810  0.8907  0.1715
   40POPC   C21 5337   6.255   1.956   6.561 -0.7225 -0.6487  0.7980
   40POPC   O22 5338   6.191   2.061   6.566 -0.0252  0.0845 -0.5199
   40POPC   C22 5339   6.390   1.922   6.626  1.0380 -0.1320  0.3859
   40POPC   H2R 5340   6.469   1.975   6.568 -0.3896 -0.1139 -1.6284
   40POPC   H2S 5341   6.395   1.811   6.632  2.0946 -0.0634  1.0707
   40POPC    C3 5342   5.980   1.861   6.561  0.1858  0.5567 -0.9645
   40POPC    HX 5343   5.884   1.817   6.525  0.2086  0.0004 -0.3483
   40POPC    HY 5344   5.966   1.965   6.598 -0.2981  0.1807 -0.0586
   40POPC   O31 5345   6.030   1.793   6.678  0.3493 -0.2633 -0.8146
   40POPC   C31 5346   5.991   1.672   6.701 -0.1980 -0.6587  0.1562
   40POPC   O32 5347   5.916   1.601   6.633 -0.2606 -0.1586 -0.0830
   40POPC   C32 5348   6.043   1.640   6.846  0.0995 -0.2276 -0.3458
   40POPC   H2X 5349   6.006   1.711   6.922  0.6880 -1.1962  0.8869
   40POPC   H2Y 5350   6.153   1.655   6.840 -0.0519  0.4682 -1.7787
   40POPC   C23 5351   6.395   1.980   6.770  0.0996 -0.0155 -0.2451
   40POPC   H3R 5352   6.382   2.090   6.775  1.6391  0.2157 -0.9459
   40POPC   H3S 5353   6.497   1.961   6.810  0.7670 -1.6092 -2.5247
   40POPC   C24 5354   6.282   1.915   6.860  0.7390 -0.7116  0.1959
   40POPC   H4R 5355   6.308   1.808   6.870  0.6569 -0.6130  1.6162
   40POPC   H4S 5356   6.182   1.933   6.816  0.8406 -2.1679 -0.6846
   40POPC   C25 5357   6.288   1.968   7.003 -0.0023  0.1505  0.5470
   40POPC   H5R 5358   6.281   2.079   7.011 -0.2778  0.1089  0.9313
   40POPC   H5S 5359   6.390   1.947   7.043  1.1009 -0.5602 -2.3499
   40POPC   C26 5360   6.176   1.908   7.091  0.4114  0.1370  0.0297
   40POPC   H6R 5361   6.156   1.799   7.080 -2.3504  0.5527  0.2232
   40POPC   H6S 5362   6.083   1.965   7.073  0.3873  0.9571  2.3792
   40POPC   C27 5363   6.194   1.912   7.248  0.4570  0.4621  0.2478
   40POPC   H7R 5364   6.245   1.818   7.277  1.4131  0.9436  0.1725
   40POPC   H7S 5365   6.093   1.927   7.291  0.2723  0.5308 -0.2130
   40POPC   C28 5366   6.275   2.033   7.297 -0.7062 -0.2393  0.3032
   40POPC   H8R 5367   6.233   2.125   7.251  1.5001  1.6419  1.8030
   40POPC   H8S 5368   6.380   2.031   7.260 -1.2802 -0.3310 -1.4115
   40POPC   C29 5369   6.292   2.058   7.447  0.3177 -0.3706  0.1424
   40POPC   H91 5370   6.370   2.131   7.473 -2.2587  1.2972  3.9602
   40POPC  C210 5371   6.238   1.995   7.552  0.0595 -0.3642 -0.4522
   40POPC  H101 5372   6.249   2.048   7.647 -0.9323  0.5761 -0.8440
   40POPC  C211 5373   6.148   1.880   7.561 -0.0838 -0.0359 -0.5818
   40POPC  H11R 5374   6.175   1.808   7.642  0.3390  1.4732  0.6514
   40POPC  H11S 5375   6.141   1.825   7.465 -0.6140  0.3059 -0.7433
   40POPC  C212 5376   6.008   1.920   7.592 -0.0539 -0.2135  0.4308
   40POPC  H12R 5377   5.939   1.833   7.608 -0.2728 -0.3011 -0.8920
   40POPC  H12S 5378   5.971   1.976   7.504  1.9500  2.3242  1.0922
   40POPC  C213 5379   6.005   2.005   7.721 -0.4995 -0.4178 -0.4861
   40POPC  H13R 5380   6.042   2.109   7.707  3.0141 -1.4831 -0.1415
   40POPC  H13S 5381   6.066   1.969   7.806 -1.3273 -0.1824  0.2135
   40POPC  C214 5382   5.869   2.006   7.788  0.7741  0.8295 -0.3257
   40POPC  H14R 5383   5.841   1.900   7.806 -1.1507  1.3694  0.1978
   40POPC  H14S 5384   5.796   2.039   7.711  1.6459 -2.1811 -2.6479
   40POPC  C215 5385   5.862   2.087   7.919 -0.0486 -0.5575  0.0920
   40POPC  H15R 5386   5.870   2.195   7.897 -0.2150 -0.0539  2.2491
   40POPC  H15S 5387   5.943   2.055   7.988  1.4795 -1.4646 -2.0290
   40POPC  C216 5388   5.729   2.058   7.990  0.3209 -0.4723 -0.3223
   40POPC  H16R 5389   5.722   1.949   8.009 -1.6265 -0.2537  0.4570
   40POPC  H16S 5390   5.638   2.070   7.927  1.5058 -1.5012 -2.3240
   40POPC  C217 5391   5.705   2.128   8.123 -0.3647 -0.3428 -0.5327
   40POPC  H17R 5392   5.693   2.237   8.105  1.7845 -0.2007 -1.4404
   40POPC  H17S 5393   5.794   2.125   8.191 -0.8143 -2.9156  0.0478
   40POPC  C218 5394   5.588   2.065   8.207  0.4522 -0.4290  0.4792
   40POPC  H18R 5395   5.603   1.955   8.213  0.6059 -0.3304  2.2425
   40POPC  H18S 5396   5.491   2.083   8.156 -0.0501  0.7595  1.8066
   40POPC  H18T 5397   5.580   2.115   8.305  1.8272  0.6986  0.0519
   40POPC   C33 5398   6.005   1.499   6.893  0.1346 -0.1014 -0.5736
   40POPC   H3X 5399   6.028   1.423   6.815  3.1323  0.3019 -0.1901
   40POPC   H3Y 5400   5.897   1.497   6.918 -0.1170  2.4389 -1.1983
   40POPC   C34 5401   6.079   1.464   7.030  0.4673  0.0787 -0.0318
   40POPC   H4X 5402   6.180   1.508   7.011  0.3190 -0.1298 -1.4381
   40POPC   H4Y 5403   6.077   1.355   7.052 -2.3126 -0.6122 -2.9704
   40POPC   C35 5404   6.002   1.523   7.152 -0.1070  0.6226 -0.3434
   40POPC   H5X 5405   5.900   1.481   7.164 -0.1128  0.4074 -1.0711
   40POPC   H5Y 5406   5.987   1.631   7.131  3.2013  1.4592  0.8731
   40POPC   C36 5407   6.077   1.521   7.291  0.0653  1.4222 -0.1480
   40POPC   H6X 5408   6.173   1.577   7.285 -0.3400  2.6570  2.8317
   40POPC   H6Y 5409   6.100   1.416   7.320 -0.7996  1.5887  1.2358
   40POPC   C37 5410   6.006   1.585   7.411 -0.6048  0.1612  0.0423
   40POPC   H7X 5411   5.982   1.693   7.398 -2.0332 -0.1028  0.2277
   40POPC   H7Y 5412   6.063   1.573   7.505  0.8171 -1.9804 -1.0270
   40POPC   C38 5413   5.861   1.527   7.445 -0.8175 -0.5214  0.2056
   40POPC   H8X 5414   5.874   1.424   7.484  0.9718 -0.8983 -1.2400
   40POPC   H8Y 5415   5.811   1.513   7.347  0.6854 -1.8960 -0.4105
   40POPC   C39 5416   5.806   1.611   7.557 -0.3880 -0.4645  0.1949
   40POPC   H9X 5417   5.816   1.709   7.505  1.1841 -1.7900 -2.1570
   40POPC   H9Y 5418   5.876   1.604   7.643 -0.2527 -1.2313  0.0248
   40POPC  C310 5419   5.666   1.576   7.586  0.4097  0.3805 -0.6451
   40POPC  H10X 5420   5.663   1.480   7.641 -1.1161  0.6346 -0.2296
   40POPC  H10Y 5421   5.595   1.575   7.500 -1.4488 -1.0980  0.8137
   40POPC  C311 5422   5.615   1.686   7.680 -0.5262 -0.4683 -0.5347
   40POPC  H11X 5423   5.642   1.781   7.629  0.0410 -0.0921  0.4426
   40POPC  H11Y 5424   5.683   1.678   7.768  1.4120  2.3317 -1.6531
   40POPC  C312 5425   5.469   1.683   7.715 -0.1218 -0.3344  0.2951
   40POPC  H12X 5426   5.438   1.599   7.780 -1.3502  1.1940  1.7572
   40POPC  H12Y 5427   5.418   1.665   7.618  0.9865 -1.3727 -0.1135
   40POPC  C313 5428   5.423   1.817   7.782 -0.0870  0.8316  0.6831
   40POPC  H13X 5429   5.439   1.894   7.705 -0.0992  1.3244  1.1691
   40POPC  H13Y 5430   5.490   1.839   7.868  1.4544 -0.5182 -0.1044
   40POPC  C314 5431   5.274   1.801   7.823  0.4729 -0.4613 -0.3145
   40POPC  H14X 5432   5.267   1.719   7.898  1.1419  0.8864  1.3068
   40POPC  H14Y 5433   5.222   1.760   7.734  1.8244 -0.2582 -1.2398
   40POPC  C315 5434   5.192   1.926   7.849 -0.0441 -0.3009  0.6421
   40POPC  H15X 5435   5.196   2.005   7.771 -0.3759  1.2023  2.0958
   40POPC  H15Y 5436   5.223   1.990   7.935 -1.3002 -1.6749  2.1820
   40POPC  C316 5437   5.043   1.887   7.877  0.9365 -0.5947 -0.2861
   40POPC  H16X 5438   5.030   1.777   7.870  1.8721 -0.7101 -0.3277
   40POPC  H16Y 5439   4.984   1.930   7.794  0.9027  0.7596  0.4230
   40POPC  H16Z 5440   5.016   1.920   7.980  1.6324 -0.6706 -0.0740
   41CHL1    C3 5441   3.613   0.869  10.107 -0.7230  0.2872 -0.7874
   41CHL1    H3 5442   3.690   0.789  10.111 -0.1468  0.8325 -0.9088
   41CHL1    O3 5443   3.556   0.886  10.235 -0.1211  0.5149  0.3300
   41CHL1   H3' 5444   3.489   0.954  10.226 -0.1590  0.6489  1.5284
   41CHL1    C4 5445   3.685   0.993  10.063  0.0834  0.2117  0.1510
   41CHL1   H4A 5446   3.600   1.064  10.066 -0.6683 -0.7098  1.3085
   41CHL1   H4B 5447   3.760   1.018  10.141 -0.9807 -1.9277  1.9767
   41CHL1    C5 5448   3.742   0.980   9.923  0.0179 -0.1960  0.1655
   41CHL1    C6 5449   3.866   1.017   9.898  0.3653  0.3618 -0.8358
   41CHL1    H6 5450   3.936   1.039   9.979  1.3419 -0.5283 -1.4153
   41CHL1    C7 5451   3.910   1.031   9.753 -0.0460 -0.0990  0.6156
   41CHL1   H7A 5452   3.970   1.125   9.757 -1.7951  1.2078 -1.2926
   41CHL1   H7B 5453   3.987   0.956   9.727  2.3247  1.9261  1.4039
   41CHL1    C8 5454   3.801   1.046   9.652 -0.3575 -0.2303 -0.0263
   41CHL1    H8 5455   3.759   1.148   9.670 -0.8932 -0.7205  1.6527
   41CHL1   C14 5456   3.861   1.050   9.513 -0.4701  0.4409  0.2090
   41CHL1   H14 5457   3.914   0.953   9.496  0.2486  1.1156 -1.6912
   41CHL1   C15 5458   3.963   1.155   9.475 -0.1558 -0.0313  0.1370
   41CHL1  H15A 5459   3.942   1.255   9.519  1.0734  0.4033 -0.2047
   41CHL1  H15B 5460   4.066   1.126   9.507 -0.0301  1.1250  0.8465
   41CHL1   C16 5461   3.962   1.147   9.315 -0.0925 -0.0554  0.3075
   41CHL1  H16A 5462   3.938   1.246   9.271 -1.8495 -0.6686 -0.1916
   41CHL1  H16B 5463   4.060   1.110   9.277  0.5304  0.3011  1.5112
   41CHL1   C17 5464   3.848   1.044   9.281  0.7063 -0.0728  0.2484
   41CHL1   H17 5465   3.900   0.946   9.278  0.9418  0.0728 -0.5561
   41CHL1   C13 5466   3.754   1.045   9.404 -0.3836 -0.1154  0.1939
   41CHL1   C18 5467   3.663   1.175   9.408 -0.0811  1.2493  0.9153
   41CHL1  H18A 5468   3.584   1.166   9.331 -0.1909 -0.7920  1.2329
   41CHL1  H18B 5469   3.612   1.177   9.507  2.2073 -1.5565  2.2996
   41CHL1  H18C 5470   3.726   1.267   9.397  0.4692  0.7599 -0.1933
   41CHL1   C12 5471   3.673   0.917   9.416  0.3487  0.4529 -0.3314
   41CHL1  H12A 5472   3.594   0.902   9.340  0.1612 -1.6701  0.2377
   41CHL1  H12B 5473   3.747   0.835   9.407 -1.6076 -1.3475 -0.7948
   41CHL1   C11 5474   3.605   0.914   9.559 -1.0035  0.3145  0.2282
   41CHL1  H11A 5475   3.522   0.986   9.547  0.2414  1.7969  0.2474
   41CHL1  H11B 5476   3.549   0.819   9.568  1.1065 -0.9420  0.8799
   41CHL1    C9 5477   3.703   0.932   9.678  1.1565 -0.7311 -0.5603
   41CHL1    H9 5478   3.752   0.833   9.688 -1.1162 -1.7410  2.2928
   41CHL1   C10 5479   3.642   0.951   9.821  0.0074  0.3756  0.5308
   41CHL1   C19 5480   3.527   1.064   9.809  0.2505  0.5571  0.3151
   41CHL1  H19A 5481   3.580   1.162   9.803 -0.8915  1.3383  2.0861
   41CHL1  H19B 5482   3.450   1.045   9.731 -2.8572 -0.0275  3.2990
   41CHL1  H19C 5483   3.473   1.077   9.905  0.0528 -1.2680  0.4716
   41CHL1    C1 5484   3.565   0.827   9.865 -0.4712  0.5453  0.4732
   41CHL1   H1A 5485   3.471   0.822   9.806 -0.3218  2.3394  0.0260
   41CHL1   H1B 5486   3.632   0.741   9.844 -2.3197 -0.9571  0.5099
   41CHL1    C2 5487   3.510   0.820  10.005  0.0199  0.0583 -0.4515
   41CHL1   H2A 5488   3.470   0.718  10.023 -1.4644  0.6992  0.0706
   41CHL1   H2B 5489   3.428   0.895  10.012 -0.4022 -0.2405 -2.0656
   41CHL1   C20 5490   3.791   1.074   9.145 -0.1822  0.1569  0.3118
   41CHL1   H20 5491   3.756   1.180   9.146 -1.6139 -0.2825 -0.0050
   41CHL1   C21 5492   3.677   0.982   9.096 -0.0655  0.0778  0.1160
   41CHL1  H21A 5493   3.581   1.001   9.149 -1.0955 -1.1869 -1.1907
   41CHL1  H21B 5494   3.709   0.876   9.110 -2.6108 -0.7193  0.4029
   41CHL1  H21C 5495   3.654   1.004   8.989  0.3938  3.4784  0.6240
   41CHL1   C22 5496   3.904   1.060   9.030  0.6903 -0.6114  0.1716
   41CHL1  H22A 5497   4.004   1.069   9.078  2.0236  0.9446 -2.6412
   41CHL1  H22B 5498   3.896   0.958   8.988 -2.7451 -0.0290 -0.8626
   41CHL1   C23 5499   3.880   1.167   8.921  0.2073 -0.0349 -0.3862
   41CHL1  H23A 5500   3.783   1.150   8.869  0.2466 -0.7570 -0.2298
   41CHL1  H23B 5501   3.885   1.267   8.970  0.4077  0.1093 -0.6934
   41CHL1   C24 5502   3.987   1.161   8.813 -0.2478 -0.4131  0.1242
   41CHL1  H24A 5503   4.079   1.134   8.869 -0.0596 -3.3399 -1.4488
   41CHL1  H24B 5504   3.977   1.081   8.737  1.5366 -0.3914 -0.1765
   41CHL1   C25 5505   3.999   1.295   8.743 -0.0328 -0.2613 -0.4388
   41CHL1   H25 5506   4.017   1.373   8.820 -1.0376  0.4544 -0.8934
   41CHL1   C26 5507   4.108   1.297   8.641  0.8236  0.9584  0.3901
   41CHL1  H26A 5508   4.123   1.395   8.591  0.7512  1.0199  0.4888
   41CHL1  H26B 5509   4.205   1.257   8.677  0.3638  0.7389  1.4247
   41CHL1  H26C 5510   4.070   1.227   8.563 -2.8743  2.3764  0.7070
   41CHL1   C27 5511   3.866   1.342   8.668  0.7390 -0.6876  0.2338
   41CHL1  H27A 5512   3.793   1.360   8.750  0.3232 -0.1961 -0.2358
   41CHL1  H27B 5513   3.874   1.428   8.598 -1.6822  0.7569  1.5879
   41CHL1  H27C 5514   3.823   1.261   8.605 -0.4785  0.8156 -0.9649
   42CHL1    C3 5515   4.222   0.834   9.905 -0.7782 -0.0519 -0.1499
   42CHL1    H3 5516   4.131   0.898   9.903 -0.4532  0.4251  0.2051
   42CHL1    O3 5517   4.262   0.790  10.033  0.0806  0.0135  0.4660
   42CHL1   H3' 5518   4.358   0.789  10.034  0.0793 -0.4718  0.9690
   42CHL1    C4 5519   4.216   0.706   9.823  0.0067 -0.2732  0.2466
   42CHL1   H4A 5520   4.304   0.644   9.847 -0.3945 -0.9919 -0.1255
   42CHL1   H4B 5521   4.133   0.646   9.867  0.7189 -1.4370  0.0246
   42CHL1    C5 5522   4.209   0.728   9.673  0.5330  0.2861 -0.3504
   42CHL1    C6 5523   4.120   0.664   9.598 -0.3912 -0.3113  0.2468
   42CHL1    H6 5524   4.041   0.604   9.644 -1.4586  0.1372 -0.9462
   42CHL1    C7 5525   4.110   0.674   9.444  0.0059  0.2728  0.1343
   42CHL1   H7A 5526   4.101   0.572   9.400  2.0008 -0.9645  2.3856
   42CHL1   H7B 5527   4.028   0.741   9.411  0.9011  1.2937 -0.0866
   42CHL1    C8 5528   4.228   0.753   9.381 -0.0237  0.1434 -0.0165
   42CHL1    H8 5529   4.306   0.674   9.369  2.1588  2.2175 -0.3022
   42CHL1   C14 5530   4.202   0.806   9.243 -0.5356 -0.4942 -0.3977
   42CHL1   H14 5531   4.144   0.900   9.257 -0.8677 -0.5344 -1.4443
   42CHL1   C15 5532   4.134   0.710   9.139  0.8399  0.4270 -0.2506
   42CHL1  H15A 5533   4.159   0.605   9.162  1.5972  0.4411 -0.9752
   42CHL1  H15B 5534   4.024   0.721   9.152  1.0288  0.9814  1.0676
   42CHL1   C16 5535   4.177   0.756   9.002  0.1632 -0.7176  0.0554
   42CHL1  H16A 5536   4.236   0.673   8.955 -1.2314 -1.2156 -0.8940
   42CHL1  H16B 5537   4.087   0.788   8.945  0.6078  1.7280  0.6496
   42CHL1   C17 5538   4.261   0.879   9.031 -0.0261 -0.0601  0.0286
   42CHL1   H17 5539   4.187   0.962   9.034 -1.1978 -1.0755 -0.4587
   42CHL1   C13 5540   4.329   0.861   9.175 -0.4872 -0.9119 -0.5677
   42CHL1   C18 5541   4.444   0.756   9.157  0.2125 -0.1823 -0.2810
   42CHL1  H18A 5542   4.403   0.678   9.089 -0.7988 -0.0223  0.1287
   42CHL1  H18B 5543   4.544   0.793   9.123  0.4435 -0.7245 -0.2100
   42CHL1  H18C 5544   4.449   0.709   9.257 -2.3425 -0.6233 -0.2970
   42CHL1   C12 5545   4.379   0.984   9.257  0.7870  0.3897 -0.3010
   42CHL1  H12A 5546   4.480   1.021   9.228  0.7577 -0.6460 -1.8217
   42CHL1  H12B 5547   4.305   1.067   9.261  0.7198  0.2731  1.1327
   42CHL1   C11 5548   4.390   0.952   9.408  0.6065 -0.3003 -0.3774
   42CHL1  H11A 5549   4.491   0.909   9.427  0.4939 -0.6834 -0.6362
   42CHL1  H11B 5550   4.384   1.048   9.463  0.8660 -0.4059 -0.1590
   42CHL1    C9 5551   4.273   0.863   9.476 -0.0782 -0.2967 -0.0694
   42CHL1    H9 5552   4.188   0.934   9.489  0.0633 -0.2661  0.7329
   42CHL1   C10 5553   4.308   0.825   9.624  0.7032  0.1413  0.7891
   42CHL1   C19 5554   4.437   0.748   9.638 -0.8703 -0.0570 -0.9623
   42CHL1  H19A 5555   4.520   0.820   9.622  1.6652 -1.5949  3.4842
   42CHL1  H19B 5556   4.464   0.721   9.743 -0.2400 -0.6706 -1.2700
   42CHL1  H19C 5557   4.460   0.661   9.572  1.6897  1.7364 -2.6084
   42CHL1    C1 5558   4.308   0.957   9.710 -0.4221  0.0045  0.4478
   42CHL1   H1A 5559   4.394   1.017   9.672 -0.8483  1.1850  1.2844
   42CHL1   H1B 5560   4.213   1.015   9.705  0.0135  0.7922  1.0367
   42CHL1    C2 5561   4.330   0.926   9.856 -0.3139 -0.6000 -0.0503
   42CHL1   H2A 5562   4.336   1.021   9.913  3.1114 -0.1966 -0.8392
   42CHL1   H2B 5563   4.430   0.882   9.877 -0.6072 -1.3900 -0.2672
   42CHL1   C20 5564   4.342   0.921   8.907 -0.4497 -0.1834  0.1299
   42CHL1   H20 5565   4.443   0.876   8.921 -0.7839 -1.2827 -0.8449
   42CHL1   C21 5566   4.368   1.077   8.913 -0.6783 -0.0067  0.6200
   42CHL1  H21A 5567   4.437   1.102   8.997 -0.0928 -0.4986  0.2994
   42CHL1  H21B 5568   4.274   1.136   8.912  1.2341  3.3843  2.5512
   42CHL1  H21C 5569   4.419   1.100   8.817 -0.0878 -1.4497  0.5555
   42CHL1   C22 5570   4.287   0.873   8.770 -0.7358 -0.3904  0.6596
   42CHL1  H22A 5571   4.176   0.872   8.767 -0.7621  0.1750  1.1931
   42CHL1  H22B 5572   4.311   0.952   8.695  1.7585 -1.7252 -0.0728
   42CHL1   C23 5573   4.331   0.741   8.710  0.1220  0.1733  0.0588
   42CHL1  H23A 5574   4.441   0.725   8.701  0.1401  0.4736 -0.2899
   42CHL1  H23B 5575   4.307   0.657   8.779  0.3897  0.6430  0.7290
   42CHL1   C24 5576   4.253   0.720   8.583 -0.4149  0.3678  1.0455
   42CHL1  H24A 5577   4.148   0.703   8.612 -0.9874 -2.0034 -1.8622
   42CHL1  H24B 5578   4.257   0.804   8.510  0.4504 -0.9655 -0.5249
   42CHL1   C25 5579   4.287   0.580   8.516 -0.4212 -0.3625  0.4189
   42CHL1   H25 5580   4.390   0.587   8.473 -0.4488 -2.0805 -0.0279
   42CHL1   C26 5581   4.276   0.457   8.605 -0.9934 -0.2824 -0.0047
   42CHL1  H26A 5582   4.352   0.465   8.686 -0.2829 -0.8052 -0.6129
   42CHL1  H26B 5583   4.174   0.443   8.649 -2.0850  0.6623 -2.1319
   42CHL1  H26C 5584   4.299   0.367   8.545  1.4998 -1.2741  2.2276
   42CHL1   C27 5585   4.202   0.556   8.397 -0.6321  0.2248  0.7416
   42CHL1  H27A 5586   4.181   0.653   8.348  1.5470 -0.6084 -2.1188
   42CHL1  H27B 5587   4.246   0.487   8.322 -1.0271  0.4984  0.2557
   42CHL1  H27C 5588   4.108   0.509   8.433 -2.3882  3.3288  0.5535
   43CHL1    C3 5589   5.673   1.322   9.927 -0.5294 -0.0727  0.4186
   43CHL1    H3 5590   5.577   1.369   9.897 -2.0531 -3.0715  0.1513
   43CHL1    O3 5591   5.664   1.294  10.063  0.0500 -0.2208 -0.3747
   43CHL1   H3' 5592   5.753   1.271  10.092  0.0032  0.3125  0.2109
   43CHL1    C4 5593   5.674   1.187   9.848 -0.2373 -1.1651  0.2753
   43CHL1   H4A 5594   5.754   1.128   9.898 -2.0712 -2.9907  1.1945
   43CHL1   H4B 5595   5.587   1.124   9.875 -0.3530 -1.0282  0.2202
   43CHL1    C5 5596   5.681   1.218   9.702 -0.2808 -0.3820 -0.4093
   43CHL1    C6 5597   5.590   1.175   9.622  0.0032 -0.1195 -0.2011
   43CHL1    H6 5598   5.502   1.118   9.657 -1.2374  0.7636 -1.7562
   43CHL1    C7 5599   5.602   1.202   9.472 -0.0860  0.1251  0.6511
   43CHL1   H7A 5600   5.565   1.116   9.412  2.5188 -1.6393  1.3923
   43CHL1   H7B 5601   5.524   1.275   9.443  0.9233  0.4630 -1.4766
   43CHL1    C8 5602   5.744   1.228   9.418 -0.1543 -0.9582 -0.6513
   43CHL1    H8 5603   5.809   1.139   9.434  1.6726  0.5491  0.7369
   43CHL1   C14 5604   5.751   1.260   9.267  0.8998  0.1189 -0.5110
   43CHL1   H14 5605   5.687   1.350   9.256  0.3208 -0.1079  0.8056
   43CHL1   C15 5606   5.687   1.160   9.173  0.0651  0.7680  0.0363
   43CHL1  H15A 5607   5.737   1.060   9.168  0.8612  1.1579 -0.0466
   43CHL1  H15B 5608   5.577   1.154   9.180 -0.0020 -1.5709 -1.5834
   43CHL1   C16 5609   5.722   1.225   9.043 -0.4652 -0.5873 -0.1965
   43CHL1  H16A 5610   5.761   1.147   8.974  2.2963 -0.1940  0.7838
   43CHL1  H16B 5611   5.633   1.278   9.002 -0.3635  0.5093  0.9560
   43CHL1   C17 5612   5.844   1.317   9.068 -0.3497  0.1852  0.5375
   43CHL1   H17 5613   5.806   1.421   9.076  0.4056  0.5191 -0.1233
   43CHL1   C13 5614   5.890   1.294   9.219 -0.7168 -1.1925  0.2852
   43CHL1   C18 5615   5.994   1.179   9.223 -0.5173  0.2321 -1.4330
   43CHL1  H18A 5616   6.095   1.221   9.202 -0.3523  1.3051  1.1421
   43CHL1  H18B 5617   5.995   1.138   9.327 -0.5309  1.4863 -0.9259
   43CHL1  H18C 5618   5.963   1.103   9.148 -0.5517 -0.9683 -0.2458
   43CHL1   C12 5619   5.948   1.415   9.297  0.1200  0.0982  0.4976
   43CHL1  H12A 5620   6.050   1.442   9.262 -0.6502 -0.2934 -2.3204
   43CHL1  H12B 5621   5.890   1.501   9.258  1.6288  1.3063  0.8136
   43CHL1   C11 5622   5.952   1.395   9.445 -0.1684  0.3931 -0.3629
   43CHL1  H11A 5623   6.029   1.318   9.462 -0.3130  0.1717 -0.7017
   43CHL1  H11B 5624   5.980   1.490   9.496  0.1332  1.7257 -2.8721
   43CHL1    C9 5625   5.811   1.342   9.507 -0.6244  0.5295 -0.8320
   43CHL1    H9 5626   5.747   1.433   9.503 -0.5837  0.5431 -1.1887
   43CHL1   C10 5627   5.808   1.299   9.658  0.1986 -0.0028 -0.5026
   43CHL1   C19 5628   5.936   1.218   9.684 -0.3060 -1.0033 -0.4484
   43CHL1  H19A 5629   5.941   1.131   9.614 -2.3197 -1.8562  0.3854
   43CHL1  H19B 5630   6.027   1.280   9.668  1.7659 -3.8395 -0.3327
   43CHL1  H19C 5631   5.943   1.181   9.788  2.1163 -1.1870 -0.6250
   43CHL1    C1 5632   5.806   1.433   9.741  0.4488  0.2753 -0.1882
   43CHL1   H1A 5633   5.910   1.469   9.726  1.6493 -3.5378 -2.5024
   43CHL1   H1B 5634   5.722   1.495   9.704 -1.4626 -1.1097  1.6372
   43CHL1    C2 5635   5.789   1.414   9.892  0.6016 -0.0402  0.0723
   43CHL1   H2A 5636   5.793   1.504   9.958 -0.0337  0.8430 -1.0584
   43CHL1   H2B 5637   5.875   1.352   9.924  1.1543  0.4242 -0.4939
   43CHL1   C20 5638   5.953   1.321   8.963  0.3257 -0.0435 -0.4204
   43CHL1   H20 5639   5.992   1.217   8.958 -2.6446 -1.2703  0.0554
   43CHL1   C21 5640   6.060   1.430   9.003  0.3008 -0.2770 -0.5859
   43CHL1  H21A 5641   6.113   1.406   9.098  2.2779  3.1568 -0.6334
   43CHL1  H21B 5642   6.021   1.533   9.018 -1.8461 -1.3666  2.3569
   43CHL1  H21C 5643   6.141   1.439   8.927 -0.0642  0.6517 -0.8781
   43CHL1   C22 5644   5.889   1.358   8.825 -0.0925  0.1147 -0.2260
   43CHL1  H22A 5645   5.809   1.282   8.813  0.5868 -0.3964 -1.8414
   43CHL1  H22B 5646   5.834   1.455   8.828 -1.2196 -0.4948 -0.4786
   43CHL1   C23 5647   5.986   1.340   8.707  0.7208 -0.3730 -0.5219
   43CHL1  H23A 5648   6.052   1.429   8.714  0.5949 -0.4318  2.5883
   43CHL1  H23B 5649   6.048   1.250   8.727  1.0723  0.2084  1.2223
   43CHL1   C24 5650   5.920   1.332   8.571  0.8221 -0.5430 -1.0379
   43CHL1  H24A 5651   5.849   1.251   8.599  1.3188 -0.7261 -0.2752
   43CHL1  H24B 5652   5.866   1.426   8.549 -0.6577 -1.2688 -0.6554
   43CHL1   C25 5653   6.015   1.302   8.468  0.1738  0.7620  0.0173
   43CHL1   H25 5654   6.114   1.347   8.494 -0.3680  0.7972  2.2537
   43CHL1   C26 5655   6.059   1.157   8.450  0.6195  0.3505  0.1904
   43CHL1  H26A 5656   6.112   1.122   8.541  0.2798  2.2624  1.1764
   43CHL1  H26B 5657   5.966   1.097   8.437 -0.1639  1.8502 -1.5638
   43CHL1  H26C 5658   6.120   1.147   8.358 -0.8934  0.9637 -0.9259
   43CHL1   C27 5659   5.964   1.342   8.332 -0.3285 -0.2259 -0.7405
   43CHL1  H27A 5660   5.953   1.452   8.336  0.6548 -0.1615  0.8542
   43CHL1  H27B 5661   6.043   1.334   8.254  0.8153  3.2479 -0.1130
   43CHL1  H27C 5662   5.867   1.297   8.302 -1.7694  2.6340 -0.6926
   44CHL1    C3 5663   5.855   2.376  10.186  0.3775  0.1519 -0.4435
   44CHL1    H3 5664   5.963   2.364  10.163  1.0889  2.0678  1.5352
   44CHL1    O3 5665   5.834   2.373  10.331  0.1042  0.2112  1.0106
   44CHL1   H3' 5666   5.742   2.346  10.329  0.2522 -0.2948 -0.2229
   44CHL1    C4 5667   5.800   2.512  10.131  0.5983  1.2128 -0.1887
   44CHL1   H4A 5668   5.696   2.510  10.171  1.4966  0.2423  2.2380
   44CHL1   H4B 5669   5.851   2.599  10.176  1.0512  0.5184  0.6518
   44CHL1    C5 5670   5.801   2.521   9.981  0.1068  0.0351  0.2012
   44CHL1    C6 5671   5.865   2.614   9.909 -0.4604  0.3359  0.0351
   44CHL1    H6 5672   5.913   2.699   9.959  1.2700 -1.0794  0.8894
   44CHL1    C7 5673   5.870   2.613   9.756  0.1817 -0.1135  0.1855
   44CHL1   H7A 5674   5.872   2.714   9.709 -0.3548 -0.9988 -1.8440
   44CHL1   H7B 5675   5.963   2.567   9.719  0.5104  0.9729 -0.3886
   44CHL1    C8 5676   5.765   2.527   9.689  0.4140 -0.0099 -0.0274
   44CHL1    H8 5677   5.664   2.573   9.691 -0.0193 -0.9574  1.2809
   44CHL1   C14 5678   5.804   2.499   9.539  0.4249  0.1405 -0.8066
   44CHL1   H14 5679   5.906   2.457   9.532  0.5441  0.3770 -0.5062
   44CHL1   C15 5680   5.821   2.623   9.455 -0.2473  0.2085  1.0114
   44CHL1  H15A 5681   5.749   2.705   9.476  0.2551  1.3076 -1.1898
   44CHL1  H15B 5682   5.918   2.676   9.470 -0.7019  1.5973 -0.6276
   44CHL1   C16 5683   5.787   2.572   9.307  0.1991 -0.5047 -0.4366
   44CHL1  H16A 5684   5.700   2.624   9.262  0.7800  0.9841  0.0926
   44CHL1  H16B 5685   5.876   2.598   9.246 -0.2408  0.6802 -0.6127
   44CHL1   C17 5686   5.769   2.423   9.326 -0.3956 -0.1614 -0.6097
   44CHL1   H17 5687   5.868   2.372   9.326 -0.2859  0.0542 -0.4243
   44CHL1   C13 5688   5.706   2.408   9.466  0.5802  0.0500  0.5177
   44CHL1   C18 5689   5.564   2.468   9.465 -0.1865  0.1525  0.0074
   44CHL1  H18A 5690   5.521   2.495   9.564  3.2293  1.4426  1.2643
   44CHL1  H18B 5691   5.550   2.559   9.403  0.1926 -0.0732 -0.4077
   44CHL1  H18C 5692   5.497   2.390   9.423 -0.9328  0.7064  0.1484
   44CHL1   C12 5693   5.698   2.274   9.538  1.0488  0.4672 -0.1939
   44CHL1  H12A 5694   5.626   2.208   9.486  0.4840  1.7078 -1.0368
   44CHL1  H12B 5695   5.794   2.220   9.555  1.1201  1.5157  3.8363
   44CHL1   C11 5696   5.671   2.292   9.691  0.2105  0.8564 -0.0236
   44CHL1  H11A 5697   5.567   2.330   9.701  0.6134  1.7515  1.0600
   44CHL1  H11B 5698   5.684   2.194   9.742  2.6089  1.2865  0.3094
   44CHL1    C9 5699   5.764   2.392   9.767 -0.2634  0.1073 -0.3577
   44CHL1    H9 5700   5.869   2.355   9.761  0.6462  1.3215  4.1140
   44CHL1   C10 5701   5.734   2.395   9.916 -0.2232 -0.8828  0.7746
   44CHL1   C19 5702   5.579   2.399   9.938 -0.0641  0.4195  0.1298
   44CHL1  H19A 5703   5.538   2.413  10.041 -2.6533 -0.3395 -0.7405
   44CHL1  H19B 5704   5.548   2.492   9.888 -0.2954 -0.2038 -0.9093
   44CHL1  H19C 5705   5.522   2.315   9.892  0.5087 -0.9237  1.7586
   44CHL1    C1 5706   5.780   2.261   9.980  0.3704  0.6476 -0.1414
   44CHL1   H1A 5707   5.716   2.182   9.937  0.9407  1.1757 -2.0916
   44CHL1   H1B 5708   5.884   2.240   9.948 -0.1410 -1.1773 -0.6930
   44CHL1    C2 5709   5.780   2.262  10.134  0.2832  0.2595 -0.1656
   44CHL1   H2A 5710   5.830   2.171  10.175  0.5579  0.9450  1.0573
   44CHL1   H2B 5711   5.671   2.264  10.156  0.4595 -0.9164  0.9688
   44CHL1   C20 5712   5.699   2.355   9.203 -0.5140  0.8021  0.0729
   44CHL1   H20 5713   5.589   2.373   9.205 -0.5308  0.6268  0.8893
   44CHL1   C21 5714   5.716   2.206   9.208  0.7250 -0.2621 -0.3124
   44CHL1  H21A 5715   5.661   2.169   9.119  2.2503 -0.9038 -1.0294
   44CHL1  H21B 5716   5.661   2.164   9.295 -0.3719  1.0490 -0.3387
   44CHL1  H21C 5717   5.822   2.172   9.216  0.7532  0.0577  0.8514
   44CHL1   C22 5718   5.765   2.404   9.067  0.2533  0.3439 -0.0848
   44CHL1  H22A 5719   5.737   2.512   9.069 -0.1136  0.3543 -2.6442
   44CHL1  H22B 5720   5.874   2.384   9.056  0.5790  1.3835  0.9665
   44CHL1   C23 5721   5.694   2.359   8.940  0.2432 -0.1415  0.7620
   44CHL1  H23A 5722   5.715   2.251   8.920 -1.8068 -0.3386 -0.5743
   44CHL1  H23B 5723   5.584   2.373   8.947  0.6043  3.2218  1.0740
   44CHL1   C24 5724   5.742   2.443   8.818 -0.1324  0.3195  0.4094
   44CHL1  H24A 5725   5.728   2.551   8.840  0.3143  0.5415 -0.3524
   44CHL1  H24B 5726   5.850   2.422   8.801 -0.2030 -1.9928  2.2154
   44CHL1   C25 5727   5.656   2.418   8.689  0.5061  0.1664  0.1266
   44CHL1   H25 5728   5.547   2.424   8.713  0.2920 -2.1049 -0.0146
   44CHL1   C26 5729   5.687   2.517   8.579  0.4695  0.6774  0.3650
   44CHL1  H26A 5730   5.625   2.497   8.489  0.5095  4.4245 -0.6838
   44CHL1  H26B 5731   5.673   2.621   8.615  1.1373  0.8270  0.2028
   44CHL1  H26C 5732   5.788   2.501   8.537 -0.3702 -1.4691 -1.0271
   44CHL1   C27 5733   5.681   2.274   8.641 -0.3630  0.6464 -0.1317
   44CHL1  H27A 5734   5.628   2.194   8.697  1.7430 -0.6353  0.1229
   44CHL1  H27B 5735   5.639   2.271   8.538  0.7354  0.8402 -0.5935
   44CHL1  H27C 5736   5.788   2.247   8.635 -0.6331 -0.6920  0.7929
   45CHL1    C3 5737   1.138   6.642  10.094 -0.9672 -0.0364 -0.5366
   45CHL1    H3 5738   1.036   6.675  10.124  0.3093  1.4608  2.7085
   45CHL1    O3 5739   1.215   6.622  10.218  0.4072 -0.0631 -0.6901
   45CHL1   H3' 5740   1.254   6.709  10.231  0.6255 -0.1130 -0.9783
   45CHL1    C4 5741   1.131   6.501  10.027  0.1030  0.3438  0.3386
   45CHL1   H4A 5742   1.233   6.458  10.015 -0.1311 -0.2424  0.3757
   45CHL1   H4B 5743   1.079   6.427  10.092  1.2511  1.0927  2.2092
   45CHL1    C5 5744   1.052   6.523   9.896 -1.7853  0.3424  0.0985
   45CHL1    C6 5745   0.947   6.451   9.861 -0.3933 -0.5296  0.2824
   45CHL1    H6 5746   0.912   6.379   9.936  0.1378  0.7764  1.8348
   45CHL1    C7 5747   0.872   6.453   9.729  0.0779  0.1109 -0.5426
   45CHL1   H7A 5748   0.855   6.347   9.703  1.0765 -0.5763  1.4042
   45CHL1   H7B 5749   0.771   6.496   9.742 -0.4191 -1.4455  1.0573
   45CHL1    C8 5750   0.941   6.542   9.617  0.3181  0.3279  0.3926
   45CHL1    H8 5751   0.857   6.595   9.567  0.0503  1.1238  1.6347
   45CHL1   C14 5752   0.995   6.453   9.508 -0.1418  0.1497 -0.3770
   45CHL1   H14 5753   1.082   6.394   9.544 -0.3825  0.1171  0.1602
   45CHL1   C15 5754   0.892   6.343   9.460  0.3680 -0.4291 -0.4579
   45CHL1  H15A 5755   0.915   6.240   9.493  0.0606 -0.2575  0.3193
   45CHL1  H15B 5756   0.786   6.373   9.474  0.5056 -0.3459  0.4630
   45CHL1   C16 5757   0.915   6.350   9.313 -0.1865  0.4337 -0.6030
   45CHL1  H16A 5758   1.005   6.288   9.295 -0.0609  1.1297 -2.6201
   45CHL1  H16B 5759   0.833   6.311   9.249 -0.0836 -1.3904  0.3167
   45CHL1   C17 5760   0.956   6.497   9.273 -0.5679  0.2701 -0.6684
   45CHL1   H17 5761   0.866   6.562   9.273 -0.0580  0.9854  0.3076
   45CHL1   C13 5762   1.050   6.533   9.386 -0.0906  0.2356 -0.4640
   45CHL1   C18 5763   1.195   6.480   9.359 -0.6963 -0.3711 -0.3760
   45CHL1  H18A 5764   1.245   6.553   9.292 -0.0672  0.1749  0.6523
   45CHL1  H18B 5765   1.259   6.493   9.449 -0.4679  0.8281 -0.6886
   45CHL1  H18C 5766   1.205   6.376   9.322  0.0215 -0.3879 -0.1603
   45CHL1   C12 5767   1.037   6.685   9.417  0.0047  0.6308  0.4126
   45CHL1  H12A 5768   1.091   6.751   9.345 -2.3087  1.5203 -0.6111
   45CHL1  H12B 5769   0.931   6.716   9.414  0.0439  0.8779 -3.0302
   45CHL1   C11 5770   1.096   6.715   9.556 -0.6819 -0.0890  0.9445
   45CHL1  H11A 5771   1.204   6.693   9.545 -0.5425  1.2892 -1.0176
   45CHL1  H11B 5772   1.089   6.825   9.569  1.7428  0.4473 -1.4131
   45CHL1    C9 5773   1.029   6.648   9.670  0.4023 -0.3683  0.4851
   45CHL1    H9 5774   0.956   6.717   9.715  0.6046 -0.4185  0.8954
   45CHL1   C10 5775   1.120   6.616   9.796 -0.1487 -0.8420  0.2461
   45CHL1   C19 5776   1.258   6.556   9.754  0.3393  0.1646  0.0664
   45CHL1  H19A 5777   1.259   6.500   9.657  0.8172  1.5745 -0.7829
   45CHL1  H19B 5778   1.333   6.637   9.746  0.6840  0.0320  1.6441
   45CHL1  H19C 5779   1.311   6.505   9.837  0.1066  2.0595  1.4400
   45CHL1    C1 5780   1.137   6.753   9.873 -0.8103  0.4433 -0.3050
   45CHL1   H1A 5781   1.199   6.820   9.810 -1.1221  0.6570 -0.3874
   45CHL1   H1B 5782   1.036   6.794   9.894 -1.2384  0.0548 -1.5560
   45CHL1    C2 5783   1.218   6.741  10.003 -0.2583 -0.0509 -0.7458
   45CHL1   H2A 5784   1.231   6.838  10.057  1.6476  0.7033 -2.4358
   45CHL1   H2B 5785   1.320   6.700   9.985 -0.5057 -0.4695 -1.2094
   45CHL1   C20 5786   1.005   6.509   9.131  0.4944 -0.3093  1.6481
   45CHL1   H20 5787   1.104   6.461   9.118  0.1382 -0.9233  1.0936
   45CHL1   C21 5788   1.007   6.650   9.087 -0.6581 -0.0436  0.1608
   45CHL1  H21A 5789   0.908   6.700   9.082 -1.2927 -1.2135  0.7790
   45CHL1  H21B 5790   1.054   6.658   8.986  1.6514 -0.6379  1.1202
   45CHL1  H21C 5791   1.071   6.719   9.147 -1.3521  0.4213  0.3719
   45CHL1   C22 5792   0.921   6.424   9.029  0.7758  0.3818  0.2752
   45CHL1  H22A 5793   0.932   6.315   9.043  2.2842  0.3986 -0.5528
   45CHL1  H22B 5794   0.816   6.453   9.051  0.5797 -0.6594  0.7365
   45CHL1   C23 5795   0.925   6.447   8.877 -0.5565  0.9367 -0.4928
   45CHL1  H23A 5796   0.862   6.369   8.828  1.4975  0.1019 -1.9718
   45CHL1  H23B 5797   0.880   6.545   8.852  2.3233  2.2228 -1.0433
   45CHL1   C24 5798   1.063   6.425   8.813  0.1032 -0.2010  0.2939
   45CHL1  H24A 5799   1.105   6.524   8.784  1.2296 -0.1625  1.9385
   45CHL1  H24B 5800   1.130   6.399   8.897  0.0775  1.8632  0.9974
   45CHL1   C25 5801   1.072   6.312   8.702 -0.4334 -0.4148  0.5047
   45CHL1   H25 5802   1.022   6.222   8.744 -1.5190  0.1297  0.4181
   45CHL1   C26 5803   0.995   6.351   8.572 -0.3384  0.0347 -0.7861
   45CHL1  H26A 5804   1.037   6.444   8.528  0.4822  0.8928  1.6692
   45CHL1  H26B 5805   0.996   6.261   8.507 -2.6284 -1.9571  1.6780
   45CHL1  H26C 5806   0.890   6.374   8.601 -0.6779 -2.3157  0.0556
   45CHL1   C27 5807   1.215   6.282   8.659 -0.3857  0.3203  0.1047
   45CHL1  H27A 5808   1.269   6.373   8.624  1.2031 -0.6939 -0.1887
   45CHL1  H27B 5809   1.270   6.243   8.747 -1.7579 -1.2979  0.3053
   45CHL1  H27C 5810   1.222   6.201   8.583  0.1007  1.6635 -1.3290
   46CHL1    C3 5811   4.472   4.998  10.135 -0.3624  0.8695 -0.4092
   46CHL1    H3 5812   4.442   5.103  10.113  0.6063  0.7439 -2.5322
   46CHL1    O3 5813   4.472   4.977  10.270 -0.2221 -0.0259 -0.3863
   46CHL1   H3' 5814   4.506   4.888  10.288  2.2363  0.7453 -0.8573
   46CHL1    C4 5815   4.373   4.893  10.074 -0.0206  0.7826  0.1250
   46CHL1   H4A 5816   4.410   4.793  10.104  0.1915  0.2617 -1.7799
   46CHL1   H4B 5817   4.266   4.903  10.102 -0.2464 -3.4055  1.2924
   46CHL1    C5 5818   4.384   4.888   9.920 -0.1615  0.9365 -0.1350
   46CHL1    C6 5819   4.269   4.909   9.851 -0.3434  0.3820  0.2021
   46CHL1    H6 5820   4.180   4.912   9.916  0.1081 -1.8248  1.0065
   46CHL1    C7 5821   4.251   4.908   9.706 -0.3601 -0.4983 -0.5193
   46CHL1   H7A 5822   4.163   4.846   9.678 -1.7628  1.2761 -0.2370
   46CHL1   H7B 5823   4.228   5.011   9.670  0.6821 -1.1131 -3.2201
   46CHL1    C8 5824   4.380   4.861   9.633  0.3237 -0.4102 -0.3425
   46CHL1    H8 5825   4.388   4.751   9.643 -1.3228 -0.6131 -0.9589
   46CHL1   C14 5826   4.385   4.906   9.491 -0.0097 -0.2017 -0.0867
   46CHL1   H14 5827   4.393   5.016   9.477 -0.2808 -0.3288 -1.3292
   46CHL1   C15 5828   4.256   4.872   9.416  0.8430  0.1717  0.5312
   46CHL1  H15A 5829   4.206   4.774   9.424  0.7982  0.0255 -1.1816
   46CHL1  H15B 5830   4.187   4.959   9.420 -2.1121 -1.9156 -0.9996
   46CHL1   C16 5831   4.302   4.875   9.265 -0.1205 -0.3859 -0.1110
   46CHL1  H16A 5832   4.281   4.773   9.226 -0.2341 -2.6447  5.0439
   46CHL1  H16B 5833   4.257   4.954   9.200  0.7310  1.6835  1.6823
   46CHL1   C17 5834   4.459   4.890   9.267  0.7262 -0.4923 -0.5369
   46CHL1   H17 5835   4.473   5.000   9.268 -1.2554 -0.1905 -1.5755
   46CHL1   C13 5836   4.498   4.851   9.411 -0.9185  0.3581 -0.0490
   46CHL1   C18 5837   4.500   4.698   9.412  1.3198 -0.3051  0.4803
   46CHL1  H18A 5838   4.577   4.660   9.342  0.8044  1.7599 -1.3107
   46CHL1  H18B 5839   4.521   4.652   9.511 -0.9159  1.0716  1.6634
   46CHL1  H18C 5840   4.399   4.659   9.390  1.1790  0.0949  0.4119
   46CHL1   C12 5841   4.628   4.914   9.467  0.3918 -0.3532  0.1417
   46CHL1  H12A 5842   4.723   4.882   9.419  1.2590  2.5074 -0.2107
   46CHL1  H12B 5843   4.640   5.024   9.467 -1.4566 -0.0408 -3.3747
   46CHL1   C11 5844   4.642   4.880   9.617  0.8957 -0.3186  0.0320
   46CHL1  H11A 5845   4.661   4.771   9.616 -1.0947 -0.7000 -0.5580
   46CHL1  H11B 5846   4.732   4.921   9.668  0.8744 -2.5977  2.0584
   46CHL1    C9 5847   4.510   4.912   9.703 -0.0043 -0.3315  0.6675
   46CHL1    H9 5848   4.507   5.023   9.697 -3.7449 -0.3829 -0.8099
   46CHL1   C10 5849   4.520   4.873   9.856 -0.3583  0.0571  0.5256
   46CHL1   C19 5850   4.577   4.727   9.871 -0.2279  0.9116 -0.1055
   46CHL1  H19A 5851   4.668   4.703   9.813 -1.7694 -1.0881 -1.8594
   46CHL1  H19B 5852   4.594   4.694   9.976  0.0457 -0.6508 -0.6242
   46CHL1  H19C 5853   4.499   4.669   9.818  0.2530  1.5792 -1.5845
   46CHL1    C1 5854   4.619   4.972   9.930  0.1496  0.3343 -0.5827
   46CHL1   H1A 5855   4.716   4.949   9.881 -0.1987 -4.0063  0.3416
   46CHL1   H1B 5856   4.595   5.078   9.908  2.2204  1.0713  0.4589
   46CHL1    C2 5857   4.615   4.970  10.085 -0.0767  0.6196  0.4294
   46CHL1   H2A 5858   4.684   5.050  10.116  3.6547 -2.0325 -0.3643
   46CHL1   H2B 5859   4.653   4.873  10.123 -1.0215 -1.1844 -2.8347
   46CHL1   C20 5860   4.528   4.833   9.143 -0.2279  0.4724 -0.0772
   46CHL1   H20 5861   4.516   4.723   9.142  1.1331  0.2920  0.5232
   46CHL1   C21 5862   4.684   4.845   9.150 -0.3150  0.4671 -0.3666
   46CHL1  H21A 5863   4.711   4.950   9.176 -1.4638  1.0390 -1.4041
   46CHL1  H21B 5864   4.742   4.820   9.059  0.5656 -0.3407  0.3820
   46CHL1  H21C 5865   4.721   4.775   9.229 -1.1419  1.0354  0.5572
   46CHL1   C22 5866   4.480   4.882   9.005  0.0447  0.4551 -0.6876
   46CHL1  H22A 5867   4.371   4.865   9.013  0.2229  0.0610  1.9271
   46CHL1  H22B 5868   4.489   4.990   8.980 -0.9333  1.1792  1.7717
   46CHL1   C23 5869   4.530   4.791   8.887  0.1039 -0.1512  0.6204
   46CHL1  H23A 5870   4.621   4.844   8.853  0.1605 -0.2052  0.6855
   46CHL1  H23B 5871   4.573   4.696   8.925  0.8863  0.4585  1.2903
   46CHL1   C24 5872   4.440   4.796   8.767  0.2604  0.6328 -0.9128
   46CHL1  H24A 5873   4.334   4.770   8.789 -0.5476  0.7573 -4.0871
   46CHL1  H24B 5874   4.441   4.902   8.733  2.1322  0.1907 -2.3877
   46CHL1   C25 5875   4.490   4.708   8.640  0.6710 -0.5850 -0.3465
   46CHL1   H25 5876   4.494   4.601   8.666 -0.3096 -0.4326  0.5112
   46CHL1   C26 5877   4.409   4.736   8.514  0.1320  0.6944  0.7472
   46CHL1  H26A 5878   4.302   4.710   8.528  0.1604 -1.3819 -2.0424
   46CHL1  H26B 5879   4.430   4.837   8.472  0.0373  0.3366 -0.1870
   46CHL1  H26C 5880   4.446   4.653   8.451 -0.8061  0.1103  0.9470
   46CHL1   C27 5881   4.636   4.750   8.609  0.2597 -0.2435  0.3225
   46CHL1  H27A 5882   4.668   4.701   8.514  2.6516  1.0006  0.4151
   46CHL1  H27B 5883   4.641   4.860   8.601  0.2458 -0.0056  2.8704
   46CHL1  H27C 5884   4.704   4.720   8.691  1.2192  2.0516  0.4382
   47CHL1    C3 5885   5.328   2.169  10.164  0.1011 -0.3436 -0.5437
   47CHL1    H3 5886   5.398   2.247  10.127 -0.4711 -0.1326 -1.1902
   47CHL1    O3 5887   5.325   2.168  10.307 -0.2631 -0.3897 -0.0936
   47CHL1   H3' 5888   5.234   2.137  10.311 -0.8010  1.1277  0.0601
   47CHL1    C4 5889   5.190   2.208  10.105  0.9286  0.6819  0.1571
   47CHL1   H4A 5890   5.110   2.139  10.140 -0.7752  1.3804 -2.1559
   47CHL1   H4B 5891   5.151   2.300  10.154 -0.5181  0.2674 -0.1623
   47CHL1    C5 5892   5.197   2.217   9.953  0.0323 -0.0904  0.6583
   47CHL1    C6 5893   5.172   2.333   9.888 -1.0361  0.6411 -0.6029
   47CHL1    H6 5894   5.153   2.422   9.950 -2.0545 -0.4668  0.7278
   47CHL1    C7 5895   5.181   2.349   9.745  0.6782 -0.3772  0.7916
   47CHL1   H7A 5896   5.078   2.362   9.703  0.3119 -3.0030  0.6938
   47CHL1   H7B 5897   5.253   2.427   9.712 -1.3262  1.0360 -0.5793
   47CHL1    C8 5898   5.208   2.214   9.658 -0.2421 -0.2977 -0.0770
   47CHL1    H8 5899   5.108   2.167   9.657 -1.4761  2.0733  1.4192
   47CHL1   C14 5900   5.256   2.240   9.516 -0.2180 -0.4245  0.7493
   47CHL1   H14 5901   5.356   2.284   9.538 -0.5047 -0.0386  1.2982
   47CHL1   C15 5902   5.169   2.341   9.434 -0.8697  0.3064  0.1167
   47CHL1  H15A 5903   5.061   2.315   9.424 -0.8011 -0.0875  0.3787
   47CHL1  H15B 5904   5.161   2.447   9.467 -2.6165  1.0428 -2.3372
   47CHL1   C16 5905   5.244   2.323   9.293 -0.1735  0.4673 -0.4005
   47CHL1  H16A 5906   5.158   2.322   9.222  1.5668  1.2394 -2.6389
   47CHL1  H16B 5907   5.297   2.413   9.255  0.2584  0.7596  0.8337
   47CHL1   C17 5908   5.322   2.187   9.293 -0.2123  0.5765  0.0548
   47CHL1   H17 5909   5.427   2.215   9.315  1.6478 -4.4345 -1.1337
   47CHL1   C13 5910   5.279   2.116   9.427  0.5517 -0.8134 -0.0863
   47CHL1   C18 5911   5.143   2.038   9.404 -0.3673  0.1596  0.8566
   47CHL1  H18A 5912   5.082   2.103   9.337 -0.6040 -1.5371 -0.6549
   47CHL1  H18B 5913   5.165   1.940   9.357 -0.9581 -0.4883  1.8984
   47CHL1  H18C 5914   5.082   2.018   9.494 -2.3965 -0.6634 -0.6433
   47CHL1   C12 5915   5.377   2.029   9.502  0.3072 -0.1550 -0.0488
   47CHL1  H12A 5916   5.385   1.927   9.459 -0.6436  0.0795 -0.8184
   47CHL1  H12B 5917   5.474   2.084   9.504 -0.1982  0.8029 -0.8927
   47CHL1   C11 5918   5.333   1.994   9.644 -0.1767  0.1391 -0.3075
   47CHL1  H11A 5919   5.239   1.935   9.639 -0.2734  0.3997 -2.4136
   47CHL1  H11B 5920   5.413   1.939   9.698  0.1275  1.0946  0.2412
   47CHL1    C9 5921   5.299   2.118   9.736 -0.1649 -0.6004  0.5414
   47CHL1    H9 5922   5.395   2.174   9.733 -1.3764  1.5180 -1.5095
   47CHL1   C10 5923   5.253   2.087   9.880 -0.1454 -0.1881  0.0315
   47CHL1   C19 5924   5.133   1.986   9.886 -0.2293 -0.1164 -0.1356
   47CHL1  H19A 5925   5.120   1.958   9.993 -1.1133 -0.7681 -0.3963
   47CHL1  H19B 5926   5.041   2.037   9.849 -1.1961 -0.8219  1.1631
   47CHL1  H19C 5927   5.151   1.893   9.827  0.6555  0.1748 -0.3313
   47CHL1    C1 5928   5.376   2.039   9.961  0.0476  0.4366 -1.0992
   47CHL1   H1A 5929   5.391   1.933   9.929 -0.3693 -0.1895  0.6701
   47CHL1   H1B 5930   5.465   2.092   9.921  0.7060 -0.7273 -1.2383
   47CHL1    C2 5931   5.374   2.037  10.112  0.5714 -0.0673 -0.1033
   47CHL1   H2A 5932   5.477   2.028  10.154  0.9922 -0.6288 -1.2141
   47CHL1   H2B 5933   5.314   1.952  10.150  3.9903 -2.5939  0.1224
   47CHL1   C20 5934   5.317   2.109   9.164  0.7757  0.7361 -1.0398
   47CHL1   H20 5935   5.219   2.059   9.150 -0.3247  2.1750  1.0670
   47CHL1   C21 5936   5.418   1.998   9.156 -0.2509  0.0682  0.2440
   47CHL1  H21A 5937   5.404   1.944   9.061 -1.4927  0.5884  0.1180
   47CHL1  H21B 5938   5.401   1.922   9.235  0.5658  1.1345  1.4980
   47CHL1  H21C 5939   5.521   2.034   9.179 -0.9721  1.9334  0.7478
   47CHL1   C22 5940   5.334   2.205   9.036  0.1389  0.3685 -0.0163
   47CHL1  H22A 5941   5.262   2.290   9.034  0.2538  0.4716  0.2612
   47CHL1  H22B 5942   5.432   2.256   9.050 -0.1837  0.4665  2.1664
   47CHL1   C23 5943   5.328   2.133   8.896  0.1786  0.0847  0.5164
   47CHL1  H23A 5944   5.410   2.061   8.876 -0.6746 -1.0072  0.8427
   47CHL1  H23B 5945   5.229   2.083   8.902  0.8174 -1.3794 -0.6089
   47CHL1   C24 5946   5.332   2.227   8.781 -0.0460  0.2962  0.3122
   47CHL1  H24A 5947   5.293   2.329   8.801 -0.3269  0.8226 -2.5430
   47CHL1  H24B 5948   5.440   2.236   8.754 -0.3604  0.4776 -0.9489
   47CHL1   C25 5949   5.259   2.182   8.658 -0.1538 -0.4491  0.3441
   47CHL1   H25 5950   5.282   2.079   8.623  4.2543  1.3799 -3.0711
   47CHL1   C26 5951   5.104   2.188   8.671  0.1187 -0.2308 -0.3546
   47CHL1  H26A 5952   5.068   2.293   8.666  0.1194 -0.0792  1.7819
   47CHL1  H26B 5953   5.064   2.134   8.759 -1.7029 -0.5860 -1.3545
   47CHL1  H26C 5954   5.066   2.128   8.585  0.0831 -3.0704  1.4903
   47CHL1   C27 5955   5.294   2.268   8.534  0.0237 -0.3521 -0.4574
   47CHL1  H27A 5956   5.254   2.217   8.444  0.3650 -1.0688 -0.2111
   47CHL1  H27B 5957   5.254   2.371   8.548 -1.8548 -0.9388 -1.2167
   47CHL1  H27C 5958   5.404   2.283   8.521  0.4466 -2.7626 -0.1832
   48CHL1    C3 5959   0.904   1.937  10.170 -0.6173 -0.4718 -0.2050
   48CHL1    H3 5960   0.975   2.017  10.140 -1.6485 -0.0749 -1.7285
   48CHL1    O3 5961   0.916   1.924  10.309  0.0866 -0.0444 -0.3030
   48CHL1   H3' 5962   0.881   1.838  10.333 -1.2860  0.4644 -0.3733
   48CHL1    C4 5963   0.765   1.970  10.124 -0.2595 -1.2650 -0.3366
   48CHL1   H4A 5964   0.697   1.891  10.164 -2.2636 -1.3579 -3.6032
   48CHL1   H4B 5965   0.736   2.068  10.168  1.0803 -0.1027 -1.9360
   48CHL1    C5 5966   0.742   1.977   9.973  0.0584 -0.0700 -0.3961
   48CHL1    C6 5967   0.677   2.082   9.909  0.1840  0.1666  0.6180
   48CHL1    H6 5968   0.642   2.159   9.980 -0.1110  0.1751  0.4638
   48CHL1    C7 5969   0.633   2.076   9.761 -0.3341 -0.4025 -0.1282
   48CHL1   H7A 5970   0.538   2.129   9.737 -0.2026  0.3749  1.0239
   48CHL1   H7B 5971   0.705   2.137   9.703 -0.1934  0.3840  0.8588
   48CHL1    C8 5972   0.636   1.931   9.706 -0.6854 -0.2401  0.3733
   48CHL1    H8 5973   0.552   1.871   9.748 -1.0671 -0.4066 -0.5979
   48CHL1   C14 5974   0.644   1.938   9.551  0.1065 -1.0828 -0.4832
   48CHL1   H14 5975   0.741   1.988   9.529  0.2287 -1.6502 -1.2732
   48CHL1   C15 5976   0.540   2.023   9.479  0.5592 -0.0139 -0.0115
   48CHL1  H15A 5977   0.444   2.007   9.534  0.9695 -0.9726  0.4562
   48CHL1  H15B 5978   0.566   2.128   9.455 -1.5496  0.3354 -1.0247
   48CHL1   C16 5979   0.528   1.954   9.333 -0.2776  0.9940 -0.6006
   48CHL1  H16A 5980   0.426   1.918   9.306 -0.6015  2.4162 -1.3339
   48CHL1  H16B 5981   0.544   2.030   9.254  0.1522  1.8990  0.3305
   48CHL1   C17 5982   0.629   1.834   9.335  0.4494  0.6407 -0.5073
   48CHL1   H17 5983   0.719   1.885   9.294  0.3172  1.0333 -0.3193
   48CHL1   C13 5984   0.653   1.800   9.484 -0.0901 -0.6032  0.2997
   48CHL1   C18 5985   0.540   1.709   9.540  0.0561 -0.3372  0.1620
   48CHL1  H18A 5986   0.441   1.759   9.535  0.3075  0.0905 -0.8896
   48CHL1  H18B 5987   0.524   1.611   9.489 -0.3156 -0.8024  1.1544
   48CHL1  H18C 5988   0.557   1.677   9.645  2.2474 -0.4429 -0.1671
   48CHL1   C12 5989   0.797   1.747   9.512 -0.2083  0.1258  0.5165
   48CHL1  H12A 5990   0.797   1.642   9.474  4.0390  0.3945 -0.6789
   48CHL1  H12B 5991   0.874   1.806   9.459  1.1850 -0.8423  1.4093
   48CHL1   C11 5992   0.818   1.743   9.663  0.0589  0.5062 -0.0206
   48CHL1  H11A 5993   0.775   1.654   9.713  1.3008  0.9373  1.9138
   48CHL1  H11B 5994   0.928   1.739   9.680 -0.1733  0.2135  1.5726
   48CHL1    C9 5995   0.770   1.869   9.747  0.3683  0.0547  0.0082
   48CHL1    H9 5996   0.850   1.942   9.720  0.8445 -1.2876 -2.6130
   48CHL1   C10 5997   0.778   1.846   9.906  0.2067  0.1123  0.3243
   48CHL1   C19 5998   0.684   1.733   9.951  0.2223 -0.2237 -0.9698
   48CHL1  H19A 5999   0.704   1.644   9.888  0.6086 -0.9592  0.1645
   48CHL1  H19B 6000   0.691   1.709  10.059  0.2829 -2.1610 -1.3703
   48CHL1  H19C 6001   0.577   1.759   9.939  0.5337  0.5751 -2.2738
   48CHL1    C1 6002   0.925   1.815   9.948 -0.1388 -0.0380 -0.2922
   48CHL1   H1A 6003   0.946   1.719   9.897 -1.9828  0.0104 -1.2325
   48CHL1   H1B 6004   0.999   1.883   9.901 -1.0114  0.3402 -1.1650
   48CHL1    C2 6005   0.954   1.810  10.098 -0.1361 -0.3768  0.0341
   48CHL1   H2A 6006   1.064   1.799  10.113 -0.0663  1.3827  1.1309
   48CHL1   H2B 6007   0.899   1.728  10.149  0.2386 -0.6095  0.0676
   48CHL1   C20 6008   0.582   1.718   9.236 -1.1053  0.3289  0.2987
   48CHL1   H20 6009   0.483   1.679   9.268 -1.3696  0.8595  0.1428
   48CHL1   C21 6010   0.686   1.603   9.238  0.2918  0.6191  0.5502
   48CHL1  H21A 6011   0.784   1.657   9.237 -0.3850  1.9336  1.7800
   48CHL1  H21B 6012   0.682   1.534   9.151  4.1579  2.1868 -1.1352
   48CHL1  H21C 6013   0.686   1.551   9.336 -0.0023  0.6701  0.5770
   48CHL1   C22 6014   0.549   1.765   9.091 -0.0574 -0.5594 -0.3853
   48CHL1  H22A 6015   0.521   1.675   9.031 -0.8267 -1.0064  0.6036
   48CHL1  H22B 6016   0.464   1.837   9.092  0.9941  0.6940  0.0979
   48CHL1   C23 6017   0.667   1.841   9.024 -0.1725 -0.9021  0.1062
   48CHL1  H23A 6018   0.703   1.932   9.076  0.3699  0.0543 -1.8245
   48CHL1  H23B 6019   0.761   1.782   9.034  2.1600  2.6851  1.8243
   48CHL1   C24 6020   0.639   1.887   8.884  0.4854 -0.4072 -0.2304
   48CHL1  H24A 6021   0.730   1.942   8.850  0.9673  0.8628  2.8014
   48CHL1  H24B 6022   0.613   1.800   8.820 -1.5234 -1.5929  2.0419
   48CHL1   C25 6023   0.520   1.993   8.870  0.1417  0.3937 -0.1985
   48CHL1   H25 6024   0.504   2.041   8.969 -0.3668 -2.4256  1.2056
   48CHL1   C26 6025   0.551   2.099   8.754  0.1201  0.3988  0.5076
   48CHL1  H26A 6026   0.472   2.177   8.746 -1.0391 -0.8341 -1.0222
   48CHL1  H26B 6027   0.651   2.146   8.756 -0.0865  1.0889 -2.1080
   48CHL1  H26C 6028   0.536   2.049   8.656 -2.5370  0.2660  0.8868
   48CHL1   C27 6029   0.393   1.911   8.843 -0.0945 -0.1587 -0.7700
   48CHL1  H27A 6030   0.391   1.809   8.888  0.4102  0.5026  0.8163
   48CHL1  H27B 6031   0.307   1.962   8.892  1.0566 -0.4585  1.7029
   48CHL1  H27C 6032   0.374   1.892   8.735 -1.8170  1.4300 -0.8048
   49CHL1    C3 6033   2.586   3.192  10.127 -1.1890 -0.1556  0.7121
   49CHL1    H3 6034   2.693   3.166  10.119 -1.2226 -0.3049  0.7421
   49CHL1    O3 6035   2.540   3.174  10.255  0.3199 -0.7016  0.1200
   49CHL1   H3' 6036   2.467   3.235  10.262  0.7856 -0.1138 -0.0499
   49CHL1    C4 6037   2.563   3.348  10.078 -0.1764  0.8387 -0.9185
   49CHL1   H4A 6038   2.455   3.375  10.087 -0.8551 -2.0470  1.0692
   49CHL1   H4B 6039   2.618   3.413  10.150  1.1749 -1.9301  0.7108
   49CHL1    C5 6040   2.611   3.347   9.939 -0.9247 -1.0183 -0.4020
   49CHL1    C6 6041   2.726   3.420   9.909  0.6272  0.0450  0.0376
   49CHL1    H6 6042   2.780   3.482   9.982 -0.8705 -0.2716  1.4664
   49CHL1    C7 6043   2.772   3.443   9.770 -0.1868  0.6703 -0.6713
   49CHL1   H7A 6044   2.822   3.541   9.761 -0.0208  0.4405 -3.0298
   49CHL1   H7B 6045   2.852   3.366   9.758 -1.8427 -1.4954  1.2416
   49CHL1    C8 6046   2.674   3.408   9.659 -0.1593  0.1264  1.0601
   49CHL1    H8 6047   2.591   3.482   9.656 -0.0114  0.2631 -0.6550
   49CHL1   C14 6048   2.737   3.400   9.524 -0.2802 -0.0020 -0.3281
   49CHL1   H14 6049   2.814   3.319   9.529 -2.5743 -2.2485  0.6872
   49CHL1   C15 6050   2.814   3.527   9.472 -0.5554  0.6023 -0.0266
   49CHL1  H15A 6051   2.750   3.619   9.474 -0.5841  0.5913  2.4588
   49CHL1  H15B 6052   2.915   3.552   9.510 -0.9756  2.7910 -0.1898
   49CHL1   C16 6053   2.829   3.505   9.319 -0.0242  0.0567  0.1401
   49CHL1  H16A 6054   2.791   3.594   9.264  0.1945  0.3860  0.5144
   49CHL1  H16B 6055   2.933   3.486   9.287 -0.3138 -2.4991  0.4758
   49CHL1   C17 6056   2.745   3.380   9.286  0.1805  0.4696 -0.1673
   49CHL1   H17 6057   2.816   3.296   9.275 -0.1996  0.3129 -1.6713
   49CHL1   C13 6058   2.645   3.354   9.409 -0.6552 -0.4020 -0.0333
   49CHL1   C18 6059   2.523   3.451   9.396 -0.6106  0.2120 -0.0493
   49CHL1  H18A 6060   2.572   3.551   9.389  3.1187 -1.3954  0.8123
   49CHL1  H18B 6061   2.465   3.425   9.304  0.8127 -0.8306 -0.6836
   49CHL1  H18C 6062   2.466   3.451   9.491  0.5077 -1.3272  0.6552
   49CHL1   C12 6063   2.598   3.214   9.439  0.5776  0.2031  0.4221
   49CHL1  H12A 6064   2.520   3.178   9.368  0.4534 -0.6242  0.9618
   49CHL1  H12B 6065   2.688   3.149   9.447 -0.7575 -1.5193  3.0779
   49CHL1   C11 6066   2.520   3.213   9.577  0.6200  0.6066  0.2788
   49CHL1  H11A 6067   2.425   3.270   9.567  0.7398  0.6299 -0.9088
   49CHL1  H11B 6068   2.501   3.106   9.601 -3.3013  0.7970 -1.3426
   49CHL1    C9 6069   2.611   3.275   9.690  0.0316 -0.6051 -0.0756
   49CHL1    H9 6070   2.692   3.199   9.692  0.2515 -0.3601  1.5612
   49CHL1   C10 6071   2.539   3.269   9.829 -0.0236 -0.4312 -0.1865
   49CHL1   C19 6072   2.387   3.322   9.817  0.3473 -0.4739 -0.3339
   49CHL1  H19A 6073   2.382   3.411   9.751 -1.7861  1.0444  1.6976
   49CHL1  H19B 6074   2.324   3.250   9.762 -1.5863  0.2927  0.7830
   49CHL1  H19C 6075   2.342   3.332   9.919  0.9976  1.4576 -0.1804
   49CHL1    C1 6076   2.547   3.120   9.879  1.0483 -0.3828  0.3726
   49CHL1   H1A 6077   2.474   3.057   9.825  2.1187 -0.4536 -1.0743
   49CHL1   H1B 6078   2.647   3.083   9.847  0.8532  1.1578 -2.4063
   49CHL1    C2 6079   2.512   3.099  10.030  0.4269 -0.2994  0.2582
   49CHL1   H2A 6080   2.536   2.994  10.060  0.3054 -0.3691  0.1165
   49CHL1   H2B 6081   2.407   3.133  10.038  0.0055 -1.6769  0.8856
   49CHL1   C20 6082   2.675   3.396   9.152 -0.7408  0.6136 -0.3710
   49CHL1   H20 6083   2.593   3.471   9.158 -1.0207  0.2082  2.3133
   49CHL1   C21 6084   2.598   3.271   9.108 -0.5673  1.2442  0.3217
   49CHL1  H21A 6085   2.658   3.178   9.097 -0.4114  1.4558 -0.7294
   49CHL1  H21B 6086   2.551   3.293   9.010 -0.4319 -0.8058 -0.2504
   49CHL1  H21C 6087   2.501   3.259   9.161 -1.0184  1.8823 -0.3309
   49CHL1   C22 6088   2.772   3.434   9.040 -0.5352 -0.3608 -0.0985
   49CHL1  H22A 6089   2.701   3.451   8.956 -1.9605 -1.6752  0.7771
   49CHL1  H22B 6090   2.817   3.530   9.071 -0.3846 -0.9656  1.6450
   49CHL1   C23 6091   2.885   3.334   9.004 -0.4727  0.7222  0.8290
   49CHL1  H23A 6092   2.951   3.324   9.093  0.2777 -2.0216  0.0733
   49CHL1  H23B 6093   2.844   3.232   8.982  4.6656 -1.6322  0.6122
   49CHL1   C24 6094   2.958   3.367   8.871  0.2888 -0.3087 -0.3914
   49CHL1  H24A 6095   2.879   3.361   8.792 -0.4536  2.3494  0.0635
   49CHL1  H24B 6096   3.002   3.468   8.866 -0.3330  0.0682  1.3362
   49CHL1   C25 6097   3.061   3.269   8.816  0.8997 -0.1415 -1.3760
   49CHL1   H25 6098   3.017   3.167   8.821  1.3693 -0.3116  2.3620
   49CHL1   C26 6099   3.098   3.305   8.671 -0.1231 -0.4220  0.1953
   49CHL1  H26A 6100   3.184   3.245   8.633  0.5735  0.2102  0.7552
   49CHL1  H26B 6101   3.012   3.280   8.605  1.9688  0.0765 -2.9282
   49CHL1  H26C 6102   3.127   3.412   8.663  0.8828 -0.6843  0.2052
   49CHL1   C27 6103   3.182   3.272   8.912  0.0640 -0.6150 -0.1959
   49CHL1  H27A 6104   3.150   3.246   9.015  0.9745 -0.3407  0.1699
   49CHL1  H27B 6105   3.272   3.216   8.878  0.1075 -0.3350 -0.5469
   49CHL1  H27C 6106   3.219   3.376   8.922 -2.0889  0.2661 -0.9362
   50CHL1    C3 6107   0.690   5.456  10.063 -0.8060 -0.2811  0.0564
   50CHL1    H3 6108   0.783   5.414  10.019  0.2078  1.3932  0.5313
   50CHL1    O3 6109   0.694   5.451  10.204 -0.1083  0.5729  0.4343
   50CHL1   H3' 6110   0.603   5.467  10.232  0.5590  1.6142  2.1253
   50CHL1    C4 6111   0.691   5.604  10.019 -0.0935  0.3528 -0.2603
   50CHL1   H4A 6112   0.609   5.655  10.074  1.0886  2.2880 -0.2048
   50CHL1   H4B 6113   0.785   5.653  10.054 -0.3730  0.8877 -0.2492
   50CHL1    C5 6114   0.679   5.617   9.869  0.8909 -0.0891  0.1425
   50CHL1    C6 6115   0.775   5.674   9.795 -0.7644 -0.2122  0.1140
   50CHL1    H6 6116   0.854   5.729   9.849  0.5261 -0.2452 -1.6057
   50CHL1    C7 6117   0.782   5.684   9.648 -0.0951 -0.4113  0.2828
   50CHL1   H7A 6118   0.818   5.786   9.622 -3.7982  1.0971  0.5028
   50CHL1   H7B 6119   0.862   5.617   9.609  0.6280 -0.4550  1.7401
   50CHL1    C8 6120   0.648   5.663   9.586  0.5290  0.5213  0.1168
   50CHL1    H8 6121   0.586   5.753   9.606  1.2379  0.8939  0.6948
   50CHL1   C14 6122   0.665   5.639   9.439  0.6562 -0.1515 -0.1384
   50CHL1   H14 6123   0.721   5.544   9.427  1.0082  0.3342 -3.0185
   50CHL1   C15 6124   0.751   5.737   9.357  0.4161  0.3730 -0.2302
   50CHL1  H15A 6125   0.717   5.838   9.390 -0.9375 -0.5668  1.3462
   50CHL1  H15B 6126   0.857   5.712   9.378  0.1423 -0.7968 -0.2079
   50CHL1   C16 6127   0.705   5.699   9.214  0.3817 -0.0829  0.2246
   50CHL1  H16A 6128   0.687   5.791   9.155  0.1062 -0.5549 -0.4478
   50CHL1  H16B 6129   0.777   5.629   9.166 -0.1991 -1.2456  0.9874
   50CHL1   C17 6130   0.574   5.612   9.220  0.2353  0.0961  0.5075
   50CHL1   H17 6131   0.604   5.506   9.203 -1.2093 -0.1305 -0.7468
   50CHL1   C13 6132   0.534   5.629   9.365  0.0309  0.6570 -0.4170
   50CHL1   C18 6133   0.453   5.759   9.372 -0.5914  0.2813 -0.3284
   50CHL1  H18A 6134   0.500   5.834   9.304  0.5075  0.0785  0.1914
   50CHL1  H18B 6135   0.348   5.739   9.340 -0.0660  0.2822 -2.1942
   50CHL1  H18C 6136   0.451   5.812   9.470  0.4772 -0.1314 -0.0763
   50CHL1   C12 6137   0.461   5.502   9.419 -0.1205  0.3255 -0.1556
   50CHL1  H12A 6138   0.359   5.489   9.378 -0.1487 -0.2265  0.0894
   50CHL1  H12B 6139   0.528   5.413   9.417 -0.1874  0.2445 -2.5855
   50CHL1   C11 6140   0.441   5.523   9.574 -0.0116  0.3061 -0.0550
   50CHL1  H11A 6141   0.389   5.618   9.594  2.3392  1.6504  0.0444
   50CHL1  H11B 6142   0.391   5.436   9.622 -1.2053  0.8348 -0.3251
   50CHL1    C9 6143   0.575   5.547   9.647  0.1275 -0.1934  0.6491
   50CHL1    H9 6144   0.644   5.466   9.616  0.2380  0.6281 -1.3930
   50CHL1   C10 6145   0.564   5.545   9.802 -0.3922  0.2060 -0.3417
   50CHL1   C19 6146   0.435   5.615   9.848  0.3641  0.5959  0.0850
   50CHL1  H19A 6147   0.338   5.567   9.823  0.1023  1.2844 -0.2613
   50CHL1  H19B 6148   0.428   5.628   9.958 -0.8527  1.0658 -0.0364
   50CHL1  H19C 6149   0.430   5.718   9.805  0.3966  0.2835 -0.6930
   50CHL1    C1 6150   0.554   5.396   9.847 -0.0928  0.1637 -0.1210
   50CHL1   H1A 6151   0.456   5.352   9.818 -0.2071  0.3045  0.0485
   50CHL1   H1B 6152   0.627   5.341   9.784  1.8944 -0.4837  2.5717
   50CHL1    C2 6153   0.568   5.376   9.999  0.7567 -0.5082  0.0669
   50CHL1   H2A 6154   0.576   5.268  10.027  0.7199  0.1101  2.7781
   50CHL1   H2B 6155   0.479   5.415  10.054  1.4854 -0.7003  1.4168
   50CHL1   C20 6156   0.477   5.654   9.107 -0.0565  0.4074  0.3756
   50CHL1   H20 6157   0.452   5.762   9.105  1.0284  0.6604  0.0434
   50CHL1   C21 6158   0.346   5.564   9.119  0.0743  0.0285 -0.0959
   50CHL1  H21A 6159   0.380   5.459   9.111  1.5715  0.5172 -0.4345
   50CHL1  H21B 6160   0.276   5.579   9.034 -0.4073 -1.1721  0.0727
   50CHL1  H21C 6161   0.278   5.585   9.205 -1.9927 -0.6197 -1.4836
   50CHL1   C22 6162   0.542   5.625   8.972 -1.0039 -0.6831  0.7315
   50CHL1  H22A 6163   0.642   5.674   8.966 -1.1605 -0.3756  0.6324
   50CHL1  H22B 6164   0.562   5.517   8.957  0.8932 -0.1584 -0.9326
   50CHL1   C23 6165   0.465   5.668   8.848  0.3664 -0.8906 -0.2896
   50CHL1  H23A 6166   0.379   5.599   8.833 -0.8093  0.2413  0.9081
   50CHL1  H23B 6167   0.446   5.775   8.869  2.9702 -0.0930 -1.6508
   50CHL1   C24 6168   0.542   5.663   8.715 -0.0589  0.1175 -0.1776
   50CHL1  H24A 6169   0.649   5.681   8.737 -0.5026  1.1571  1.2656
   50CHL1  H24B 6170   0.537   5.563   8.667 -1.6614  0.6111 -1.1095
   50CHL1   C25 6171   0.493   5.760   8.605 -0.3817  0.0129 -0.0281
   50CHL1   H25 6172   0.498   5.861   8.650 -2.7172  1.1223 -2.0394
   50CHL1   C26 6173   0.572   5.754   8.474 -0.4014  0.2007 -0.8930
   50CHL1  H26A 6174   0.558   5.835   8.399  0.3850 -0.6336 -1.9670
   50CHL1  H26B 6175   0.677   5.749   8.508 -1.4865  0.9755  3.1583
   50CHL1  H26C 6176   0.544   5.660   8.423  1.3570 -0.5870 -0.4692
   50CHL1   C27 6177   0.353   5.729   8.570  0.5961 -0.6367  0.5332
   50CHL1  H27A 6178   0.343   5.620   8.549  0.1004 -0.4583 -0.2193
   50CHL1  H27B 6179   0.282   5.754   8.652  0.0764 -0.5989  0.0825
   50CHL1  H27C 6180   0.310   5.790   8.488 -3.2202 -0.6583  2.2934
   51CHL1    C3 6181   3.249   0.327  10.135 -0.2521 -0.4215  0.5065
   51CHL1    H3 6182   3.213   0.223  10.149 -3.1117  0.3379 -0.5673
   51CHL1    O3 6183   3.297   0.377  10.257 -0.0351 -0.5430  0.1635
   51CHL1   H3' 6184   3.359   0.447  10.232 -1.1599 -0.0701 -1.4399
   51CHL1    C4 6185   3.354   0.351  10.025 -0.5667  0.3747  0.3026
   51CHL1   H4A 6186   3.384   0.457  10.017  1.1658 -0.0731  0.4014
   51CHL1   H4B 6187   3.451   0.305  10.053  0.0241  0.8290 -0.9523
   51CHL1    C5 6188   3.299   0.301   9.894 -0.3384  0.3909 -0.1762
   51CHL1    C6 6189   3.355   0.199   9.824 -0.0783  0.8901 -0.8037
   51CHL1    H6 6190   3.446   0.149   9.858 -0.4373  0.1952 -0.8587
   51CHL1    C7 6191   3.297   0.164   9.690  0.0367  0.2929  0.4434
   51CHL1   H7A 6192   3.386   0.144   9.627 -0.7390  1.7683 -1.1783
   51CHL1   H7B 6193   3.228   0.077   9.702  0.2807 -0.1895 -1.3480
   51CHL1    C8 6194   3.208   0.265   9.621 -0.8069 -0.7966 -0.6473
   51CHL1    H8 6195   3.272   0.353   9.598 -1.4864 -0.8326 -2.9360
   51CHL1   C14 6196   3.137   0.217   9.493  0.1379 -0.5272  0.0998
   51CHL1   H14 6197   3.060   0.141   9.522 -0.6420  0.3892  0.4671
   51CHL1   C15 6198   3.226   0.150   9.381 -0.0097  0.4001  0.3108
   51CHL1  H15A 6199   3.309   0.223   9.372  0.3783  0.0884  1.1931
   51CHL1  H15B 6200   3.267   0.049   9.403  0.9556  0.7146  0.0158
   51CHL1   C16 6201   3.134   0.157   9.258  0.9526  0.1508 -0.2621
   51CHL1  H16A 6202   3.181   0.195   9.164  0.1190 -1.5029 -1.3921
   51CHL1  H16B 6203   3.088   0.060   9.229 -1.5187  0.9658  0.6194
   51CHL1   C17 6204   3.008   0.245   9.295  0.2819  0.1363 -0.2842
   51CHL1   H17 6205   2.936   0.168   9.329  3.1732 -1.5136  2.6052
   51CHL1   C13 6206   3.049   0.323   9.423  1.0571 -0.4955 -0.7752
   51CHL1   C18 6207   3.128   0.452   9.384 -0.0596  0.0478 -0.5657
   51CHL1  H18A 6208   3.225   0.433   9.334 -1.4349 -4.0329 -2.0608
   51CHL1  H18B 6209   3.054   0.519   9.334 -0.0557  0.1432 -0.4419
   51CHL1  H18C 6210   3.157   0.515   9.470 -0.8518  0.8096 -0.8399
   51CHL1   C12 6211   2.931   0.352   9.526  0.1697  0.0888  0.2434
   51CHL1  H12A 6212   2.862   0.423   9.476 -0.9750 -2.5570 -2.2133
   51CHL1  H12B 6213   2.866   0.263   9.541 -0.3769  0.5378  0.5711
   51CHL1   C11 6214   2.990   0.398   9.662 -0.4972  0.2924 -0.1593
   51CHL1  H11A 6215   3.025   0.500   9.636 -1.0023  1.2407  2.5521
   51CHL1  H11B 6216   2.905   0.410   9.733 -0.9003  0.7792 -0.7109
   51CHL1    C9 6217   3.101   0.306   9.726  0.0370 -0.1388  0.2847
   51CHL1    H9 6218   3.042   0.216   9.751 -1.1007  0.7421  0.8152
   51CHL1   C10 6219   3.164   0.370   9.854  0.2304  0.0097  0.2060
   51CHL1   C19 6220   3.204   0.524   9.827  0.9938 -0.4430  0.2686
   51CHL1  H19A 6221   3.256   0.569   9.915 -1.0329 -0.1455  1.3755
   51CHL1  H19B 6222   3.283   0.529   9.749 -0.1225  0.3398 -0.8456
   51CHL1  H19C 6223   3.113   0.584   9.805  0.0639 -0.3736  3.6596
   51CHL1    C1 6224   3.062   0.355   9.968 -0.6765  0.2418  0.2979
   51CHL1   H1A 6225   2.969   0.409   9.943  0.2376  1.9422  0.4033
   51CHL1   H1B 6226   3.043   0.246   9.978 -0.6001  0.3654  2.3051
   51CHL1    C2 6227   3.115   0.399  10.105 -0.0983 -0.2353  1.1093
   51CHL1   H2A 6228   3.052   0.377  10.193 -1.0310  1.2472  0.8485
   51CHL1   H2B 6229   3.131   0.509  10.109  1.0073 -0.2639 -0.9352
   51CHL1   C20 6230   2.950   0.323   9.180 -0.1896 -0.3736  0.3644
   51CHL1   H20 6231   3.022   0.405   9.160  1.2304 -1.7904 -0.6111
   51CHL1   C21 6232   2.807   0.362   9.218 -0.1189 -0.3089  0.1109
   51CHL1  H21A 6233   2.750   0.411   9.137 -1.0908 -3.0419 -0.9823
   51CHL1  H21B 6234   2.811   0.445   9.292 -0.4274 -0.3704  0.1982
   51CHL1  H21C 6235   2.741   0.284   9.260 -2.7004  1.3067 -0.7551
   51CHL1   C22 6236   2.931   0.263   9.040 -0.2261 -0.4350 -0.5727
   51CHL1  H22A 6237   3.019   0.204   9.007  0.5597  1.0372 -1.2278
   51CHL1  H22B 6238   2.842   0.198   9.055 -1.7265  1.8821  1.2556
   51CHL1   C23 6239   2.912   0.366   8.927  0.0695 -0.3877 -0.6387
   51CHL1  H23A 6240   2.864   0.458   8.969  0.2874 -0.7392  0.3917
   51CHL1  H23B 6241   3.013   0.393   8.890 -0.2429 -2.1333 -2.9877
   51CHL1   C24 6242   2.830   0.310   8.809 -0.0926  0.3045 -0.5180
   51CHL1  H24A 6243   2.720   0.316   8.817 -0.0997 -0.1349 -0.2562
   51CHL1  H24B 6244   2.857   0.383   8.729  0.3724  0.6536 -0.0579
   51CHL1   C25 6245   2.878   0.179   8.756  0.1404 -0.2896 -0.1575
   51CHL1   H25 6246   2.849   0.093   8.820  0.7976 -0.4994 -0.1296
   51CHL1   C26 6247   2.816   0.152   8.622  0.7177  0.0894 -0.2345
   51CHL1  H26A 6248   2.820   0.044   8.595  2.6916 -0.0156  0.3217
   51CHL1  H26B 6249   2.708   0.180   8.623  0.5246 -0.6232 -0.3211
   51CHL1  H26C 6250   2.850   0.220   8.540 -0.2278  0.5745 -0.2476
   51CHL1   C27 6251   3.027   0.170   8.729  0.3173  0.3373 -0.6052
   51CHL1  H27A 6252   3.054   0.068   8.692  2.3072 -0.0717  1.7171
   51CHL1  H27B 6253   3.063   0.249   8.660  0.7879 -0.3674 -1.1780
   51CHL1  H27C 6254   3.092   0.181   8.818  2.3776 -2.1259 -1.6805
   52CHL1    C3 6255   5.915   0.830   9.957  0.2476  0.1209  0.0570
   52CHL1    H3 6256   5.857   0.922   9.936  0.2991 -0.0175 -0.6972
   52CHL1    O3 6257   5.943   0.815  10.097 -0.5519 -0.4990 -0.0719
   52CHL1   H3' 6258   5.986   0.730  10.112  2.1142  0.8359  0.5158
   52CHL1    C4 6259   5.832   0.711   9.900 -0.6061 -0.0270 -1.4182
   52CHL1   H4A 6260   5.887   0.622   9.937 -2.5845 -0.2691  1.2261
   52CHL1   H4B 6261   5.736   0.693   9.952 -0.5127 -2.7129 -2.0293
   52CHL1    C5 6262   5.825   0.715   9.750 -0.3473 -0.2999  0.1065
   52CHL1    C6 6263   5.707   0.715   9.683 -0.6876 -0.2343 -0.7770
   52CHL1    H6 6264   5.616   0.701   9.743  0.3804 -1.0134  0.7136
   52CHL1    C7 6265   5.690   0.717   9.534 -0.3534 -0.3758 -0.2584
   52CHL1   H7A 6266   5.613   0.640   9.512 -2.6033  1.9406 -1.0552
   52CHL1   H7B 6267   5.663   0.821   9.504  0.7299  0.2958  0.9998
   52CHL1    C8 6268   5.819   0.684   9.456 -0.4314  0.5910 -0.0990
   52CHL1    H8 6269   5.846   0.578   9.473  0.5214  0.4116 -2.3755
   52CHL1   C14 6270   5.802   0.712   9.313 -0.3668  0.3920  1.0820
   52CHL1   H14 6271   5.792   0.822   9.301  2.5358  0.7436  1.1828
   52CHL1   C15 6272   5.678   0.656   9.233 -0.2366 -0.2015 -0.2312
   52CHL1  H15A 6273   5.645   0.555   9.265 -0.2335  0.4642  2.0246
   52CHL1  H15B 6274   5.594   0.726   9.252 -2.3836 -3.0485  1.5873
   52CHL1   C16 6275   5.726   0.659   9.080 -1.1008  0.0322 -0.0341
   52CHL1  H16A 6276   5.740   0.553   9.050 -0.5904 -0.1875  0.9391
   52CHL1  H16B 6277   5.660   0.724   9.019  0.7612  2.5020  0.4183
   52CHL1   C17 6278   5.871   0.725   9.082  0.8826  0.9759 -0.0187
   52CHL1   H17 6279   5.838   0.831   9.087 -0.8816  0.4513  0.2344
   52CHL1   C13 6280   5.930   0.689   9.225 -0.0889 -0.3030 -0.0389
   52CHL1   C18 6281   5.977   0.543   9.219 -0.7437  0.0794  0.3992
   52CHL1  H18A 6282   6.006   0.495   9.315 -0.7637  2.7118  1.8146
   52CHL1  H18B 6283   5.900   0.477   9.173  1.0659  1.1247 -4.8244
   52CHL1  H18C 6284   6.066   0.541   9.152  0.4541 -0.0931  1.9249
   52CHL1   C12 6285   6.044   0.773   9.287 -1.1194 -0.4870 -0.3397
   52CHL1  H12A 6286   6.143   0.762   9.238 -0.7282  1.1482  0.0578
   52CHL1  H12B 6287   6.022   0.882   9.287 -0.6755 -0.3960 -0.1270
   52CHL1   C11 6288   6.070   0.744   9.435 -0.3160 -0.4988  0.1536
   52CHL1  H11A 6289   6.122   0.646   9.442 -0.0875 -0.4148 -0.3184
   52CHL1  H11B 6290   6.141   0.818   9.479  2.3857 -1.5769 -2.1144
   52CHL1    C9 6291   5.937   0.758   9.517 -0.6251 -0.2792  0.0595
   52CHL1    H9 6292   5.914   0.865   9.501  0.1846 -0.1707 -0.4581
   52CHL1   C10 6293   5.960   0.729   9.673  0.1199  0.7323 -0.0087
   52CHL1   C19 6294   6.040   0.600   9.694 -0.1467  0.7059 -0.0294
   52CHL1  H19A 6295   6.048   0.583   9.804  1.0142 -0.6977 -0.2984
   52CHL1  H19B 6296   6.010   0.507   9.641 -0.5670 -0.1653  1.6486
   52CHL1  H19C 6297   6.144   0.616   9.657 -0.0985  1.9284  0.6032
   52CHL1    C1 6298   6.033   0.860   9.730  0.2669 -0.0621 -0.3433
   52CHL1   H1A 6299   6.137   0.883   9.698  0.2005  2.4533  0.9939
   52CHL1   H1B 6300   5.968   0.948   9.710  0.2902 -0.1240 -0.6961
   52CHL1    C2 6301   6.054   0.837   9.878  1.3713 -0.6873 -0.2012
   52CHL1   H2A 6302   6.115   0.924   9.911  1.7349 -1.4768  1.2494
   52CHL1   H2B 6303   6.112   0.744   9.893  0.7188 -1.1357 -0.4034
   52CHL1   C20 6304   5.957   0.700   8.962  0.7426  0.3968 -0.2361
   52CHL1   H20 6305   5.998   0.597   8.969  1.3981  0.5811 -1.1579
   52CHL1   C21 6306   6.070   0.806   8.956  0.3635 -0.1424  0.0276
   52CHL1  H21A 6307   6.132   0.780   8.868 -0.5482 -0.7474 -0.4559
   52CHL1  H21B 6308   6.132   0.806   9.048 -1.1663  1.3275  1.1344
   52CHL1  H21C 6309   6.023   0.904   8.933  1.3582  0.8208  1.8919
   52CHL1   C22 6310   5.889   0.705   8.825 -0.5511  0.6299  0.0609
   52CHL1  H22A 6311   5.970   0.677   8.753 -0.0748 -0.4459  0.9869
   52CHL1  H22B 6312   5.815   0.623   8.813  0.4709 -0.0979 -1.8669
   52CHL1   C23 6313   5.826   0.839   8.780  0.8191 -0.7364 -0.3721
   52CHL1  H23A 6314   5.752   0.865   8.859 -0.0179 -0.1696 -1.3142
   52CHL1  H23B 6315   5.890   0.929   8.766 -2.4250  1.5292 -1.9039
   52CHL1   C24 6316   5.757   0.831   8.645 -0.5930 -0.6194 -0.1355
   52CHL1  H24A 6317   5.831   0.803   8.567 -1.7258  1.1923 -1.9517
   52CHL1  H24B 6318   5.676   0.756   8.632 -0.5529 -0.3753 -2.1430
   52CHL1   C25 6319   5.705   0.971   8.596  0.7411  0.2395 -0.9595
   52CHL1   H25 6320   5.790   1.042   8.601  1.8405 -1.1086  1.0947
   52CHL1   C26 6321   5.662   0.960   8.450  0.2175 -0.3204  0.6363
   52CHL1  H26A 6322   5.747   0.920   8.391  0.5251  0.7836  0.3201
   52CHL1  H26B 6323   5.566   0.904   8.437 -1.1305  1.9791 -0.0323
   52CHL1  H26C 6324   5.634   1.060   8.411 -1.1877 -1.6669 -2.1555
   52CHL1   C27 6325   5.587   1.035   8.679  0.1398  0.5940 -0.5282
   52CHL1  H27A 6326   5.520   0.949   8.701  0.1513  1.0045  1.2887
   52CHL1  H27B 6327   5.630   1.064   8.777  1.0117  1.4329 -1.1492
   52CHL1  H27C 6328   5.535   1.127   8.645 -0.8889  0.1415 -0.2231
   53CHL1    C3 6329   6.191   2.122  10.042 -0.7862  0.2695  0.4320
   53CHL1    H3 6330   6.080   2.121  10.037 -0.8808 -0.6070  2.1024
   53CHL1    O3 6331   6.238   2.091  10.170  0.2866  0.4113  0.2077
   53CHL1   H3' 6332   6.295   2.015  10.180 -2.0461 -1.2488  2.2146
   53CHL1    C4 6333   6.260   2.033   9.938  0.3949 -0.8180 -0.0917
   53CHL1   H4A 6334   6.371   2.035   9.945  0.4837 -1.3908 -1.2179
   53CHL1   H4B 6335   6.227   1.928   9.948 -0.9587 -0.7302 -2.7864
   53CHL1    C5 6336   6.239   2.081   9.787 -0.0193 -0.2213  0.2852
   53CHL1    C6 6337   6.171   2.008   9.700 -0.2315  0.7939 -0.9014
   53CHL1    H6 6338   6.139   1.907   9.731 -3.1458  2.4207  1.9547
   53CHL1    C7 6339   6.145   2.048   9.563  0.7534  0.3327  0.2348
   53CHL1   H7A 6340   6.170   1.973   9.486 -0.9140 -0.0071 -0.0117
   53CHL1   H7B 6341   6.037   2.063   9.547  0.6137 -1.6895 -1.0709
   53CHL1    C8 6342   6.229   2.170   9.522 -0.0588  0.2751  0.3282
   53CHL1    H8 6343   6.333   2.133   9.516 -0.7700 -1.6570 -0.9630
   53CHL1   C14 6344   6.176   2.223   9.390  0.1839 -0.3316  0.0271
   53CHL1   H14 6345   6.072   2.255   9.409  0.0753 -0.1221 -0.8903
   53CHL1   C15 6346   6.152   2.127   9.275 -0.2222 -0.2691 -0.1402
   53CHL1  H15A 6347   6.243   2.066   9.258  0.2536 -0.0550  1.5209
   53CHL1  H15B 6348   6.057   2.069   9.285  0.1545 -0.9866 -0.6666
   53CHL1   C16 6349   6.134   2.221   9.154 -0.3209  0.3375  0.7314
   53CHL1  H16A 6350   6.206   2.202   9.072 -3.3136 -0.4155 -1.9046
   53CHL1  H16B 6351   6.028   2.223   9.121 -0.6346 -0.0223  1.6662
   53CHL1   C17 6352   6.173   2.364   9.197 -0.5759 -0.1074 -0.7585
   53CHL1   H17 6353   6.079   2.421   9.213  1.6579  4.2344 -1.5769
   53CHL1   C13 6354   6.248   2.346   9.336  0.3995  0.0051  0.0679
   53CHL1   C18 6355   6.397   2.312   9.318  0.0586 -0.2563 -0.2772
   53CHL1  H18A 6356   6.460   2.392   9.273  0.8439 -1.1877 -0.8783
   53CHL1  H18B 6357   6.459   2.267   9.398 -0.5428 -1.1669 -0.3110
   53CHL1  H18C 6358   6.412   2.240   9.234  2.8903 -0.1225  0.0285
   53CHL1   C12 6359   6.224   2.453   9.442 -0.4141 -0.0041 -0.0246
   53CHL1  H12A 6360   6.268   2.553   9.423  1.1224 -0.8853 -1.4020
   53CHL1  H12B 6361   6.115   2.458   9.458  0.0172  0.0373  3.7513
   53CHL1   C11 6362   6.289   2.405   9.576  0.4260  0.5276 -0.4277
   53CHL1  H11A 6363   6.399   2.389   9.564  0.4771  0.6567 -0.1378
   53CHL1  H11B 6364   6.291   2.485   9.653  1.5945  0.3601 -0.2578
   53CHL1    C9 6365   6.220   2.280   9.622 -0.2308 -0.3950 -0.0747
   53CHL1    H9 6366   6.112   2.297   9.640  0.1143  1.0720  0.8034
   53CHL1   C10 6367   6.280   2.233   9.762  0.9525  0.3420 -0.8365
   53CHL1   C19 6368   6.431   2.229   9.750  0.1732  0.8756 -0.3406
   53CHL1  H19A 6369   6.481   2.162   9.677  0.8451  0.1327  0.7590
   53CHL1  H19B 6370   6.465   2.334   9.739 -0.4981  1.0405 -0.9136
   53CHL1  H19C 6371   6.464   2.198   9.852 -0.6842 -0.4735 -0.4404
   53CHL1    C1 6372   6.219   2.322   9.874  0.5217  0.1908  0.2027
   53CHL1   H1A 6373   6.264   2.423   9.880 -1.8301  1.2662  0.7361
   53CHL1   H1B 6374   6.111   2.336   9.853 -0.2396 -1.9312  2.2145
   53CHL1    C2 6375   6.237   2.267  10.022 -0.2664 -0.3250  0.1828
   53CHL1   H2A 6376   6.197   2.339  10.097 -1.7008 -0.5170 -0.3618
   53CHL1   H2B 6377   6.346   2.268  10.041  0.0244  2.0391 -1.2956
   53CHL1   C20 6378   6.251   2.442   9.094 -0.2602  0.3879  0.0735
   53CHL1   H20 6379   6.349   2.395   9.071 -0.4156  0.0247  0.1355
   53CHL1   C21 6380   6.277   2.585   9.142 -0.8708  0.1748 -0.0225
   53CHL1  H21A 6381   6.368   2.590   9.206 -0.6640 -1.6180 -0.1476
   53CHL1  H21B 6382   6.199   2.636   9.203 -1.0400 -0.5353  0.3638
   53CHL1  H21C 6383   6.305   2.648   9.055 -1.6690  0.4268 -0.1059
   53CHL1   C22 6384   6.174   2.453   8.962 -0.6361 -0.3419 -0.0516
   53CHL1  H22A 6385   6.144   2.354   8.921 -1.7113  0.3900 -1.0877
   53CHL1  H22B 6386   6.071   2.494   8.973 -1.0541 -1.2332 -0.5558
   53CHL1   C23 6387   6.250   2.528   8.848 -0.0782  0.4085 -0.3443
   53CHL1  H23A 6388   6.223   2.634   8.867 -1.5000 -0.1297  0.8738
   53CHL1  H23B 6389   6.360   2.514   8.848  0.1241  1.8406  0.2256
   53CHL1   C24 6390   6.204   2.493   8.702  0.2006  0.2961  0.1073
   53CHL1  H24A 6391   6.211   2.382   8.697 -0.6757  0.2074  0.4761
   53CHL1  H24B 6392   6.094   2.501   8.686  0.0116  1.1856  1.6363
   53CHL1   C25 6393   6.274   2.573   8.592 -1.0419 -0.5654  0.2599
   53CHL1   H25 6394   6.291   2.672   8.638  1.3441 -1.2900  1.0903
   53CHL1   C26 6395   6.409   2.507   8.549  0.2721  0.3864 -0.5836
   53CHL1  H26A 6396   6.475   2.499   8.639  0.8897  1.5424 -0.9122
   53CHL1  H26B 6397   6.396   2.408   8.500  0.1709  0.3454 -0.4739
   53CHL1  H26C 6398   6.465   2.572   8.479  0.6361 -3.0625 -3.8034
   53CHL1   C27 6399   6.194   2.601   8.473 -0.0922  0.3186  0.2131
   53CHL1  H27A 6400   6.249   2.668   8.403 -0.2137 -0.4408 -0.6346
   53CHL1  H27B 6401   6.168   2.507   8.419 -0.4514  1.1770 -1.1795
   53CHL1  H27C 6402   6.096   2.646   8.501 -0.9074 -1.2053 -0.0878
   54CHL1    C3 6403   0.022   1.476  10.118 -0.4971  0.0741 -0.7355
   54CHL1    H3 6404  -0.057   1.551  10.142  0.0404  0.2198  0.6118
   54CHL1    O3 6405   0.060   1.413  10.239  0.0519  0.5981 -0.3277
   54CHL1   H3' 6406   0.106   1.336  10.204 -1.1497 -1.1531  1.7301
   54CHL1    C4 6407  -0.029   1.370  10.017  0.1599 -0.0799  0.0675
   54CHL1   H4A 6408   0.042   1.285  10.013  3.4111  2.3745  1.6908
   54CHL1   H4B 6409  -0.118   1.312  10.049  0.5268 -1.2499 -0.9506
   54CHL1    C5 6410  -0.048   1.410   9.871 -0.7803 -0.1167  0.6788
   54CHL1    C6 6411  -0.163   1.386   9.808 -0.0908 -0.8679  0.4406
   54CHL1    H6 6412  -0.248   1.336   9.858  1.2076 -1.9143  1.6921
   54CHL1    C7 6413  -0.180   1.406   9.667  0.1208 -0.3769 -0.3571
   54CHL1   H7A 6414  -0.231   1.323   9.613  0.2012 -1.7729  1.6107
   54CHL1   H7B 6415  -0.246   1.492   9.645 -0.9297 -1.3804 -1.3232
   54CHL1    C8 6416  -0.048   1.441   9.596 -0.1864 -0.2857  0.0638
   54CHL1    H8 6417   0.022   1.358   9.575  0.2649 -1.1294  4.1823
   54CHL1   C14 6418  -0.077   1.519   9.468  0.0623  0.6790 -0.0212
   54CHL1   H14 6419  -0.128   1.615   9.493 -2.0706 -0.7989  1.6539
   54CHL1   C15 6420  -0.182   1.457   9.375  0.1831 -0.1769  0.0892
   54CHL1  H15A 6421  -0.156   1.349   9.371 -1.6220 -0.7172  1.2941
   54CHL1  H15B 6422  -0.278   1.469   9.431  1.3935  0.2182  2.1505
   54CHL1   C16 6423  -0.167   1.528   9.243 -0.2138 -0.4618 -0.0940
   54CHL1  H16A 6424  -0.128   1.453   9.170  1.0132 -1.9952  2.0360
   54CHL1  H16B 6425  -0.256   1.582   9.205 -1.3272 -1.1227  1.4965
   54CHL1   C17 6426  -0.050   1.626   9.262 -0.0651 -0.6167 -0.4282
   54CHL1   H17 6427  -0.097   1.721   9.294  0.5248 -0.6561  0.6079
   54CHL1   C13 6428   0.038   1.569   9.382  0.5403 -0.0872 -0.1567
   54CHL1   C18 6429   0.122   1.456   9.339  0.1397  0.8879 -0.1563
   54CHL1  H18A 6430   0.154   1.404   9.432 -0.1494  0.9282 -0.0323
   54CHL1  H18B 6431   0.064   1.388   9.273  1.7608 -0.3640 -0.3463
   54CHL1  H18C 6432   0.211   1.491   9.283  0.5370 -1.2982 -0.9853
   54CHL1   C12 6433   0.114   1.672   9.467  0.3778 -0.3769 -0.9672
   54CHL1  H12A 6434   0.200   1.706   9.406 -0.3117  3.2976 -0.1905
   54CHL1  H12B 6435   0.038   1.752   9.484  2.1693  1.4569 -1.1872
   54CHL1   C11 6436   0.158   1.603   9.602  0.3233  1.0930  0.0117
   54CHL1  H11A 6437   0.238   1.529   9.585 -1.6724 -0.7497 -1.9650
   54CHL1  H11B 6438   0.207   1.688   9.654  1.1337  0.5036  0.2368
   54CHL1    C9 6439   0.038   1.539   9.683 -0.7191 -0.9244  0.0575
   54CHL1    H9 6440  -0.020   1.632   9.702  1.4707  0.8390 -1.4180
   54CHL1   C10 6441   0.077   1.478   9.811 -0.3989  0.4476 -0.1106
   54CHL1   C19 6442   0.193   1.374   9.786  0.0965 -0.9127  0.7099
   54CHL1  H19A 6443   0.183   1.286   9.719  1.0530 -1.9456  1.8957
   54CHL1  H19B 6444   0.277   1.442   9.761  0.9843 -1.9487  0.8193
   54CHL1  H19C 6445   0.224   1.321   9.878 -0.5477 -1.9871  0.3257
   54CHL1    C1 6446   0.123   1.592   9.904 -0.2175 -0.2546 -0.0734
   54CHL1   H1A 6447   0.213   1.644   9.864 -0.4970  0.5471  0.3127
   54CHL1   H1B 6448   0.044   1.670   9.904  0.6951  0.7063  0.3856
   54CHL1    C2 6449   0.147   1.537  10.051 -0.0115  0.2844  0.1510
   54CHL1   H2A 6450   0.181   1.611  10.126 -1.6546 -1.0223  2.2949
   54CHL1   H2B 6451   0.233   1.469  10.029 -0.2815 -0.2386  0.6980
   54CHL1   C20 6452   0.027   1.656   9.133 -0.5756 -0.4371  0.0143
   54CHL1   H20 6453   0.084   1.568   9.096 -2.1865 -1.0849 -1.0609
   54CHL1   C21 6454   0.125   1.773   9.163 -0.1635  0.3202 -0.1137
   54CHL1  H21A 6455   0.225   1.734   9.193 -0.1899 -0.3052 -0.8025
   54CHL1  H21B 6456   0.086   1.842   9.242  2.4596  0.7100  0.9439
   54CHL1  H21C 6457   0.135   1.835   9.072 -2.5541  1.6446  0.4291
   54CHL1   C22 6458  -0.063   1.689   9.007 -0.0143  0.7780 -0.1047
   54CHL1  H22A 6459  -0.156   1.626   9.006  0.0102  0.7395  0.1107
   54CHL1  H22B 6460  -0.086   1.797   9.008 -2.6932  0.2976  1.5091
   54CHL1   C23 6461   0.001   1.637   8.877  0.1095 -0.8638 -0.2218
   54CHL1  H23A 6462   0.094   1.698   8.875 -0.0799 -0.5077  1.1190
   54CHL1  H23B 6463   0.042   1.535   8.895  4.4308  0.8083  0.6209
   54CHL1   C24 6464  -0.074   1.647   8.746  0.4610 -0.5668  0.6572
   54CHL1  H24A 6465  -0.173   1.597   8.738  0.9386 -1.4047 -0.1976
   54CHL1  H24B 6466  -0.093   1.755   8.727 -1.0020 -0.9563 -0.2742
   54CHL1   C25 6467   0.011   1.618   8.616 -0.3225 -0.2714  0.4066
   54CHL1   H25 6468   0.096   1.688   8.631 -1.0423  0.6044  0.5069
   54CHL1   C26 6469   0.067   1.480   8.605 -0.0578  0.0595  0.1088
   54CHL1  H26A 6470   0.099   1.442   8.704  0.8153 -0.8369 -0.5055
   54CHL1  H26B 6471  -0.005   1.407   8.563  0.2605 -0.4908  0.5077
   54CHL1  H26C 6472   0.151   1.495   8.534 -0.0180  1.9001  0.4845
   54CHL1   C27 6473  -0.063   1.659   8.494 -0.1969 -0.1804  0.8101
   54CHL1  H27A 6474  -0.025   1.607   8.403 -1.9361 -3.6899  1.8948
   54CHL1  H27B 6475  -0.167   1.620   8.497 -1.1175  2.0994  0.2467
   54CHL1  H27C 6476  -0.054   1.768   8.475 -0.6815 -0.1059  1.0021
   55CHL1    C3 6477   2.363   4.310  10.116 -0.0020 -0.4007 -0.1391
   55CHL1    H3 6478   2.399   4.415  10.118  1.3595 -0.8505 -0.3287
   55CHL1    O3 6479   2.325   4.279  10.252  0.3250  0.1709  0.3074
   55CHL1   H3' 6480   2.308   4.185  10.259 -1.8269  0.4974  0.1302
   55CHL1    C4 6481   2.243   4.307  10.018 -0.3164 -0.0151  0.4814
   55CHL1   H4A 6482   2.203   4.203  10.027  0.9810 -0.7119 -1.1914
   55CHL1   H4B 6483   2.167   4.374  10.065 -1.3116 -0.3315 -0.6284
   55CHL1    C5 6484   2.277   4.349   9.877  0.3399 -0.0390  0.4052
   55CHL1    C6 6485   2.216   4.453   9.816 -0.4486  0.6495  0.0976
   55CHL1    H6 6486   2.143   4.508   9.877 -0.3659 -1.8413  2.6595
   55CHL1    C7 6487   2.241   4.495   9.676  0.2910  0.2589 -0.4830
   55CHL1   H7A 6488   2.146   4.523   9.625 -0.5720  0.2170  1.0557
   55CHL1   H7B 6489   2.295   4.591   9.691 -0.2079  0.9021 -2.3987
   55CHL1    C8 6490   2.328   4.392   9.594 -0.5111  0.8300 -0.3935
   55CHL1    H8 6491   2.260   4.309   9.565  0.7079  0.6419 -3.0100
   55CHL1   C14 6492   2.393   4.450   9.470  0.2470 -0.1614  0.2088
   55CHL1   H14 6493   2.461   4.532   9.503 -0.7276  0.8557 -0.2510
   55CHL1   C15 6494   2.299   4.523   9.378 -0.4417 -0.8100  0.4131
   55CHL1  H15A 6495   2.215   4.454   9.354 -0.5515 -1.4843  2.5359
   55CHL1  H15B 6496   2.279   4.627   9.415  0.6489 -0.2647 -0.4794
   55CHL1   C16 6497   2.389   4.540   9.252 -0.6603 -0.5570  0.6005
   55CHL1  H16A 6498   2.329   4.522   9.160  0.4108  0.6768 -0.3554
   55CHL1  H16B 6499   2.418   4.646   9.236 -2.1363 -0.0705  0.9059
   55CHL1   C17 6500   2.510   4.443   9.266  0.2053 -0.1516  0.0278
   55CHL1   H17 6501   2.590   4.509   9.304 -0.6126 -0.8593  3.2359
   55CHL1   C13 6502   2.479   4.354   9.386 -0.7751  0.3446 -0.0013
   55CHL1   C18 6503   2.394   4.240   9.330  0.5321 -0.1180  0.6068
   55CHL1  H18A 6504   2.304   4.275   9.276  1.1522  1.0641  0.3150
   55CHL1  H18B 6505   2.449   4.185   9.250  3.4178  1.9339  1.0205
   55CHL1  H18C 6506   2.361   4.176   9.415 -2.5192 -0.0586 -0.3892
   55CHL1   C12 6507   2.600   4.313   9.470 -0.0027 -0.2854 -0.9687
   55CHL1  H12A 6508   2.666   4.237   9.423  0.1141 -0.4315 -0.5706
   55CHL1  H12B 6509   2.666   4.400   9.491 -2.9904  2.2453 -1.2740
   55CHL1   C11 6510   2.554   4.257   9.607 -0.4603  0.0501  0.8189
   55CHL1  H11A 6511   2.516   4.153   9.592 -2.1751  0.9027 -1.1714
   55CHL1  H11B 6512   2.643   4.240   9.671  1.4624 -0.2828 -1.7851
   55CHL1    C9 6513   2.448   4.333   9.682 -0.9045 -0.2025  0.9159
   55CHL1    H9 6514   2.501   4.427   9.712  1.5486 -0.4449 -2.1495
   55CHL1   C10 6515   2.402   4.270   9.811 -0.4344 -0.2297 -0.4563
   55CHL1   C19 6516   2.348   4.132   9.783  0.2187 -0.0370 -0.2376
   55CHL1  H19A 6517   2.429   4.061   9.755 -2.2216 -2.7582 -1.0300
   55CHL1  H19B 6518   2.299   4.074   9.864  1.3119  1.2788  1.4047
   55CHL1  H19C 6519   2.290   4.129   9.688  1.0729  0.5111 -0.7873
   55CHL1    C1 6520   2.512   4.264   9.918 -0.7387  0.7116  0.0706
   55CHL1   H1A 6521   2.586   4.194   9.872 -1.1834 -0.5198  1.1620
   55CHL1   H1B 6522   2.554   4.366   9.915 -1.9355  1.2457  0.8536
   55CHL1    C2 6523   2.479   4.213  10.063  0.9776 -0.5382  0.5501
   55CHL1   H2A 6524   2.565   4.218  10.132  1.8477 -2.5672 -0.3028
   55CHL1   H2B 6525   2.432   4.112  10.062 -1.5274  0.5369 -0.3600
   55CHL1   C20 6526   2.557   4.390   9.130 -0.5609  0.4986  0.2561
   55CHL1   H20 6527   2.481   4.318   9.091 -0.3591 -0.5728  1.7409
   55CHL1   C21 6528   2.690   4.305   9.142  0.6591 -0.0435 -0.7166
   55CHL1  H21A 6529   2.719   4.259   9.045 -0.1181  0.1542 -1.0490
   55CHL1  H21B 6530   2.684   4.226   9.219  0.6970  0.2027 -0.4579
   55CHL1  H21C 6531   2.776   4.366   9.178  1.3231 -1.1162 -0.4271
   55CHL1   C22 6532   2.588   4.505   9.032  0.1125 -0.4416  1.1080
   55CHL1  H22A 6533   2.488   4.551   9.013  1.3962  2.4134  0.8284
   55CHL1  H22B 6534   2.653   4.576   9.086  1.7793 -0.7095 -0.4675
   55CHL1   C23 6535   2.642   4.475   8.889 -0.0738 -0.2254  0.7417
   55CHL1  H23A 6536   2.658   4.576   8.844  0.4674 -0.4950  0.3104
   55CHL1  H23B 6537   2.745   4.435   8.899  0.4958  0.7275 -0.8720
   55CHL1   C24 6538   2.545   4.383   8.810 -0.5077 -0.0736 -0.7681
   55CHL1  H24A 6539   2.528   4.292   8.872 -0.1707  1.1365  1.1650
   55CHL1  H24B 6540   2.450   4.439   8.798 -1.9732 -2.1943  0.3408
   55CHL1   C25 6541   2.593   4.346   8.668  0.7226  0.6130 -0.9144
   55CHL1   H25 6542   2.604   4.438   8.608  1.1470  0.7419 -0.6477
   55CHL1   C26 6543   2.731   4.276   8.681  0.6453 -0.1520  0.5361
   55CHL1  H26A 6544   2.741   4.188   8.748  1.1409 -0.1245  0.5013
   55CHL1  H26B 6545   2.769   4.246   8.581  0.8339  0.3097  0.4689
   55CHL1  H26C 6546   2.804   4.352   8.716  2.4913 -2.1722  1.3470
   55CHL1   C27 6547   2.498   4.253   8.587 -0.8662 -0.4427 -0.0270
   55CHL1  H27A 6548   2.551   4.237   8.491  0.0707  0.0512  0.3942
   55CHL1  H27B 6549   2.490   4.150   8.628 -0.8488 -1.3841 -2.2454
   55CHL1  H27C 6550   2.400   4.305   8.586 -0.3467  0.7062  2.0191
   56CHL1    C3 6551   3.238   3.304  10.157  0.0381  0.1543  0.2902
   56CHL1    H3 6552   3.244   3.211  10.097 -0.1900  1.1340 -1.3001
   56CHL1    O3 6553   3.215   3.274  10.288 -0.0447  0.5065 -0.2920
   56CHL1   H3' 6554   3.291   3.223  10.316 -0.7507 -1.0697 -1.1617
   56CHL1    C4 6555   3.366   3.389  10.148  0.5220 -0.0856  0.4314
   56CHL1   H4A 6556   3.360   3.481  10.209  2.4820 -0.3384  1.0730
   56CHL1   H4B 6557   3.454   3.338  10.192  0.7988  0.2307  0.2430
   56CHL1    C5 6558   3.387   3.428  10.000 -0.2173  0.1516 -0.3037
   56CHL1    C6 6559   3.498   3.394   9.937  0.3874  1.0416  0.2324
   56CHL1    H6 6560   3.574   3.340   9.996  0.2116  0.6844  0.1323
   56CHL1    C7 6561   3.539   3.428   9.794 -0.3376 -0.1676  0.3247
   56CHL1   H7A 6562   3.645   3.459   9.788 -0.2810 -0.1900  1.1933
   56CHL1   H7B 6563   3.524   3.330   9.743  0.2096 -0.2063  0.2400
   56CHL1    C8 6564   3.442   3.530   9.725  0.2746 -0.1123  0.2614
   56CHL1    H8 6565   3.476   3.633   9.750  0.1292  1.0309 -3.5976
   56CHL1   C14 6566   3.455   3.507   9.572 -0.7128 -0.2207 -0.0416
   56CHL1   H14 6567   3.427   3.402   9.548  0.4977 -0.1746 -1.8498
   56CHL1   C15 6568   3.593   3.528   9.509  0.5298  0.1375 -0.4696
   56CHL1  H15A 6569   3.634   3.624   9.547  0.9345  0.8615 -2.6110
   56CHL1  H15B 6570   3.669   3.449   9.529  0.5492  0.3807  0.4833
   56CHL1   C16 6571   3.551   3.523   9.359 -0.1235 -0.4795 -0.4903
   56CHL1  H16A 6572   3.608   3.603   9.307 -2.5209  1.0362 -0.8958
   56CHL1  H16B 6573   3.586   3.427   9.314  2.3595  0.2771 -0.3590
   56CHL1   C17 6574   3.399   3.542   9.350  0.3347  0.7737 -0.1408
   56CHL1   H17 6575   3.356   3.440   9.356  1.0017  0.5417  0.7890
   56CHL1   C13 6576   3.360   3.593   9.492  0.0066 -0.4710 -0.3811
   56CHL1   C18 6577   3.402   3.749   9.509  0.3297 -0.2500 -0.5955
   56CHL1  H18A 6578   3.510   3.775   9.509  0.3885 -0.3938  0.9715
   56CHL1  H18B 6579   3.352   3.796   9.421  2.6919  0.8257 -1.4265
   56CHL1  H18C 6580   3.355   3.794   9.600 -0.8142 -1.1669 -0.7050
   56CHL1   C12 6581   3.211   3.561   9.538  0.1489 -0.3741 -0.2491
   56CHL1  H12A 6582   3.139   3.631   9.491 -0.3583 -0.9417 -0.3316
   56CHL1  H12B 6583   3.184   3.457   9.510 -0.7030 -0.3396  0.3847
   56CHL1   C11 6584   3.187   3.577   9.687  0.5563 -0.0623 -0.7221
   56CHL1  H11A 6585   3.188   3.683   9.720  2.6157  0.1635 -1.4185
   56CHL1  H11B 6586   3.084   3.540   9.706  0.4172  0.6458 -0.0481
   56CHL1    C9 6587   3.295   3.501   9.770  0.0388  0.5246  0.3369
   56CHL1    H9 6588   3.289   3.396   9.734  0.1578 -0.4795  3.0225
   56CHL1   C10 6589   3.277   3.506   9.923  0.7189  1.0312  0.3776
   56CHL1   C19 6590   3.271   3.646   9.981 -0.2513 -0.1812  0.7736
   56CHL1  H19A 6591   3.367   3.700   9.965 -0.8027  0.0283 -2.7075
   56CHL1  H19B 6592   3.203   3.713   9.923  2.0554  1.1920 -0.4803
   56CHL1  H19C 6593   3.241   3.654  10.088 -0.1146  1.3727  0.7137
   56CHL1    C1 6594   3.145   3.433   9.963 -0.5663  0.3576 -0.4307
   56CHL1   H1A 6595   3.063   3.501   9.933 -1.1198  1.7654  3.6601
   56CHL1   H1B 6596   3.148   3.338   9.905 -2.1095 -0.7645  1.2162
   56CHL1    C2 6597   3.123   3.387  10.112  0.3731  0.7014  0.3577
   56CHL1   H2A 6598   3.025   3.334  10.113  1.0198 -0.7674 -2.7391
   56CHL1   H2B 6599   3.115   3.479  10.174 -0.2333  0.7907  0.1578
   56CHL1   C20 6600   3.346   3.613   9.225  0.2771 -0.8760  0.1306
   56CHL1   H20 6601   3.361   3.723   9.233 -1.3166 -0.8149  3.3311
   56CHL1   C21 6602   3.194   3.582   9.223 -0.5928  0.6833 -0.4965
   56CHL1  H21A 6603   3.172   3.473   9.227 -0.3555  0.6251 -0.7812
   56CHL1  H21B 6604   3.148   3.626   9.132  1.0558  1.1664 -1.1224
   56CHL1  H21C 6605   3.136   3.624   9.308 -0.9179 -1.2432  0.2886
   56CHL1   C22 6606   3.423   3.558   9.097 -0.3837 -0.0010  0.1318
   56CHL1  H22A 6607   3.532   3.565   9.115 -0.2005 -1.2035 -0.4153
   56CHL1  H22B 6608   3.396   3.451   9.082 -0.9034  0.3695 -1.8236
   56CHL1   C23 6609   3.392   3.636   8.967  0.8058  0.0112 -0.0919
   56CHL1  H23A 6610   3.284   3.635   8.942  0.5114 -0.6180  1.1217
   56CHL1  H23B 6611   3.409   3.745   8.983  1.2831 -0.3431  2.1779
   56CHL1   C24 6612   3.473   3.583   8.851 -0.6946  0.1746 -0.0142
   56CHL1  H24A 6613   3.576   3.589   8.894 -0.1683 -1.8246 -0.8750
   56CHL1  H24B 6614   3.452   3.474   8.845  0.2386 -0.0421  0.4531
   56CHL1   C25 6615   3.449   3.655   8.724  0.1916 -0.2314 -0.2889
   56CHL1   H25 6616   3.469   3.763   8.737  0.3157 -0.3943  0.9816
   56CHL1   C26 6617   3.528   3.601   8.605  0.1067  0.0119 -0.9213
   56CHL1  H26A 6618   3.507   3.654   8.510 -0.3885  1.7110  0.0928
   56CHL1  H26B 6619   3.637   3.615   8.622 -0.2007  3.2659 -1.1260
   56CHL1  H26C 6620   3.520   3.490   8.603  0.6182 -0.0225 -2.2020
   56CHL1   C27 6621   3.295   3.643   8.697  0.0006  0.2989 -0.3931
   56CHL1  H27A 6622   3.256   3.543   8.722 -1.1508  0.8675  0.1479
   56CHL1  H27B 6623   3.236   3.717   8.755 -0.3861 -1.7034  1.9062
   56CHL1  H27C 6624   3.286   3.674   8.591 -0.4844 -0.2559 -0.5170
   57CHL1    C3 6625   1.291   5.554  10.158  0.0614  0.7986  0.2990
   57CHL1    H3 6626   1.400   5.532  10.162  0.2248  0.8119 -2.4363
   57CHL1    O3 6627   1.240   5.565  10.288 -0.3173  0.1559 -0.0082
   57CHL1   H3' 6628   1.148   5.537  10.287 -0.4874  0.6037 -2.1354
   57CHL1    C4 6629   1.263   5.681  10.079 -0.4469  0.5945  0.2377
   57CHL1   H4A 6630   1.154   5.706  10.080 -0.7790 -0.6319 -1.4601
   57CHL1   H4B 6631   1.308   5.770  10.127 -1.9272  2.5585 -1.8406
   57CHL1    C5 6632   1.307   5.661   9.938 -0.0468  1.4297  0.1693
   57CHL1    C6 6633   1.400   5.737   9.890 -0.5792 -0.4855  1.0146
   57CHL1    H6 6634   1.445   5.819   9.948 -1.2643 -0.2310  1.1862
   57CHL1    C7 6635   1.451   5.731   9.751  0.1367  0.2542 -0.8659
   57CHL1   H7A 6636   1.484   5.831   9.716  1.0651  0.3525  0.2460
   57CHL1   H7B 6637   1.551   5.682   9.751 -0.1499 -0.3917  1.0285
   57CHL1    C8 6638   1.368   5.647   9.653 -0.3640  0.4019 -0.0260
   57CHL1    H8 6639   1.289   5.720   9.623 -0.7633  0.6179  1.4708
   57CHL1   C14 6640   1.451   5.606   9.524  0.4624  0.4041 -0.2738
   57CHL1   H14 6641   1.529   5.537   9.562  0.3384 -0.3322 -1.3232
   57CHL1   C15 6642   1.508   5.721   9.444  0.6799  0.1977  0.7228
   57CHL1  H15A 6643   1.449   5.814   9.457  1.4836  0.6965  0.8090
   57CHL1  H15B 6644   1.606   5.755   9.484  1.4442 -1.6009  0.4858
   57CHL1   C16 6645   1.522   5.661   9.303 -0.6460  1.0578 -0.4189
   57CHL1  H16A 6646   1.471   5.723   9.226 -0.5338  1.5839 -0.0793
   57CHL1  H16B 6647   1.632   5.653   9.284 -0.4964  0.4916  0.6414
   57CHL1   C17 6648   1.471   5.511   9.317 -0.1168 -0.1210  0.1524
   57CHL1   H17 6649   1.554   5.451   9.360  0.3383  0.3302 -0.0856
   57CHL1   C13 6650   1.364   5.528   9.424 -0.7527  0.3766 -0.5036
   57CHL1   C18 6651   1.245   5.619   9.375 -0.8423  0.0936  0.3809
   57CHL1  H18A 6652   1.179   5.575   9.297 -0.0423  0.7409 -0.6709
   57CHL1  H18B 6653   1.176   5.645   9.458 -1.9158  0.8807 -0.7298
   57CHL1  H18C 6654   1.275   5.719   9.340  0.7648 -0.1797  0.9154
   57CHL1   C12 6655   1.312   5.401   9.496  0.0771 -0.2463  0.6402
   57CHL1  H12A 6656   1.241   5.346   9.430 -3.1819  3.3940  0.7089
   57CHL1  H12B 6657   1.392   5.332   9.530 -0.4719 -1.9385 -1.2703
   57CHL1   C11 6658   1.228   5.436   9.620 -0.2292 -0.6001  0.2164
   57CHL1  H11A 6659   1.135   5.486   9.587  0.2610 -1.5728 -2.9711
   57CHL1  H11B 6660   1.195   5.339   9.662 -1.6484 -0.1531  0.1921
   57CHL1    C9 6661   1.310   5.518   9.718 -0.5726  0.2293  0.2046
   57CHL1    H9 6662   1.402   5.460   9.738 -0.6262 -0.6011 -1.6856
   57CHL1   C10 6663   1.242   5.546   9.856  0.2292 -1.0830  0.2618
   57CHL1   C19 6664   1.097   5.579   9.832  0.3658  0.8109 -0.2032
   57CHL1  H19A 6665   1.079   5.681   9.793  1.9541  1.0012 -0.5185
   57CHL1  H19B 6666   1.045   5.498   9.776 -0.5742 -0.5390  2.4635
   57CHL1  H19C 6667   1.043   5.585   9.929  0.4643 -1.3744  0.0363
   57CHL1    C1 6668   1.272   5.417   9.936 -0.0511  0.1997 -1.1026
   57CHL1   H1A 6669   1.211   5.334   9.895 -1.1177  0.9313 -1.0577
   57CHL1   H1B 6670   1.378   5.392   9.918 -0.1633  0.6621 -2.5422
   57CHL1    C2 6671   1.223   5.429  10.090 -0.4181  0.1316  0.7302
   57CHL1   H2A 6672   1.252   5.338  10.146  2.4764  0.3699 -0.2569
   57CHL1   H2B 6673   1.112   5.438  10.093 -0.2858  2.1986  2.7055
   57CHL1   C20 6674   1.430   5.449   9.183 -0.2882 -0.1216  0.0952
   57CHL1   H20 6675   1.319   5.457   9.179 -0.3762 -0.7739  1.0204
   57CHL1   C21 6676   1.471   5.294   9.197  0.0940 -0.1823  0.9064
   57CHL1  H21A 6677   1.429   5.246   9.288 -0.1502 -2.8625 -0.4948
   57CHL1  H21B 6678   1.579   5.270   9.187 -0.4834 -2.8794  0.3265
   57CHL1  H21C 6679   1.418   5.232   9.121  0.3456 -1.2839  1.6052
   57CHL1   C22 6680   1.499   5.504   9.054  0.4949  0.6547 -0.1984
   57CHL1  H22A 6681   1.481   5.613   9.041 -2.0761  0.5425  1.5685
   57CHL1  H22B 6682   1.606   5.511   9.082 -0.1607  2.7190  2.1496
   57CHL1   C23 6683   1.479   5.430   8.920 -0.3060 -0.1046  0.1915
   57CHL1  H23A 6684   1.524   5.329   8.921 -3.1394 -1.4534  0.7292
   57CHL1  H23B 6685   1.371   5.413   8.901 -0.2840  2.3211 -2.9545
   57CHL1   C24 6686   1.539   5.501   8.799 -0.3255  0.8076  0.0158
   57CHL1  H24A 6687   1.485   5.594   8.770  2.1988  3.1659  2.1934
   57CHL1  H24B 6688   1.641   5.538   8.823  0.6255 -0.1078 -2.3781
   57CHL1   C25 6689   1.551   5.415   8.675 -0.1166  0.0748 -0.9148
   57CHL1   H25 6690   1.589   5.483   8.597  3.0804  0.0519  0.4653
   57CHL1   C26 6691   1.672   5.316   8.673  0.5308  0.2196  0.0631
   57CHL1  H26A 6692   1.653   5.238   8.751  0.6446 -2.2597 -2.2575
   57CHL1  H26B 6693   1.666   5.279   8.569  0.1407 -0.3997  0.2983
   57CHL1  H26C 6694   1.766   5.374   8.685 -0.3644  2.1229 -1.6424
   57CHL1   C27 6695   1.414   5.347   8.633 -0.3696 -0.8787 -0.7068
   57CHL1  H27A 6696   1.375   5.273   8.707  1.6550 -0.7536  0.5466
   57CHL1  H27B 6697   1.339   5.430   8.628 -0.1030 -0.6233 -0.4833
   57CHL1  H27C 6698   1.425   5.308   8.529  2.8731  0.9550 -1.1796
   58CHL1    C3 6699   5.567   5.218  10.145  0.2731  0.2181 -0.5860
   58CHL1    H3 6700   5.600   5.117  10.177 -2.9871 -0.9949 -0.6360
   58CHL1    O3 6701   5.596   5.297  10.263  0.1122 -0.0252  0.4423
   58CHL1   H3' 6702   5.570   5.385  10.235 -1.3366 -0.0674  1.5141
   58CHL1    C4 6703   5.635   5.290  10.032 -0.0530 -0.4862  0.7639
   58CHL1   H4A 6704   5.616   5.399  10.044 -2.4921 -0.6292 -1.0218
   58CHL1   H4B 6705   5.739   5.253  10.044  0.4969  0.7474 -0.0158
   58CHL1    C5 6706   5.587   5.241   9.896  0.4934 -0.2372 -0.3790
   58CHL1    C6 6707   5.676   5.201   9.804 -0.4490  0.2465 -0.3371
   58CHL1    H6 6708   5.785   5.209   9.816 -0.3807  0.5830 -1.1298
   58CHL1    C7 6709   5.632   5.152   9.673 -0.0009 -0.1857  0.5981
   58CHL1   H7A 6710   5.695   5.188   9.590  1.1937 -0.9879  1.1302
   58CHL1   H7B 6711   5.644   5.042   9.681 -0.4119 -0.4015 -1.2837
   58CHL1    C8 6712   5.482   5.182   9.633 -0.0963  0.7530  0.1301
   58CHL1    H8 6713   5.481   5.288   9.598  1.0479  0.1839 -1.8215
   58CHL1   C14 6714   5.435   5.080   9.525  0.0553  0.3447  0.3027
   58CHL1   H14 6715   5.434   4.981   9.574  0.1219 -1.2822 -2.7519
   58CHL1   C15 6716   5.533   5.061   9.401 -0.2654 -0.9987  0.1934
   58CHL1  H15A 6717   5.581   5.158   9.372 -2.0361 -0.7518 -2.2178
   58CHL1  H15B 6718   5.613   4.991   9.431 -0.0964 -1.0647 -0.3997
   58CHL1   C16 6719   5.439   5.007   9.298  0.4435  0.5508 -0.0754
   58CHL1  H16A 6720   5.433   5.084   9.218  1.0057  2.0441  1.2585
   58CHL1  H16B 6721   5.463   4.907   9.255  1.3486  0.3609  0.8324
   58CHL1   C17 6722   5.290   5.007   9.360 -0.5745 -0.4648  0.4734
   58CHL1   H17 6723   5.289   4.906   9.405  2.4154 -0.4959  0.6595
   58CHL1   C13 6724   5.293   5.106   9.476 -0.6711 -0.5239  0.0529
   58CHL1   C18 6725   5.285   5.247   9.411 -0.1201  0.4862  0.4925
   58CHL1  H18A 6726   5.344   5.265   9.318 -0.3391  0.0265  0.2596
   58CHL1  H18B 6727   5.178   5.272   9.398  0.0723  1.3343  0.4721
   58CHL1  H18C 6728   5.315   5.321   9.489  1.4496 -1.2578  1.6340
   58CHL1   C12 6729   5.200   5.090   9.592  0.5723  0.3685 -0.2963
   58CHL1  H12A 6730   5.095   5.108   9.559  0.4819 -1.3314 -1.0159
   58CHL1  H12B 6731   5.210   4.986   9.629 -0.5591 -0.1947 -1.5013
   58CHL1   C11 6732   5.241   5.187   9.707 -0.6384  0.0538 -0.1425
   58CHL1  H11A 6733   5.221   5.292   9.676 -0.9961 -0.2047 -0.8208
   58CHL1  H11B 6734   5.172   5.160   9.789 -2.0168  1.8714 -0.6272
   58CHL1    C9 6735   5.391   5.163   9.751  0.1927 -0.3889  0.6295
   58CHL1    H9 6736   5.394   5.056   9.781 -1.0353 -0.5581  0.2244
   58CHL1   C10 6737   5.433   5.231   9.881 -0.1898 -0.2194 -0.5142
   58CHL1   C19 6738   5.380   5.378   9.881 -0.0787 -0.3050 -0.1410
   58CHL1  H19A 6739   5.450   5.454   9.923  1.1952 -0.7871 -1.2920
   58CHL1  H19B 6740   5.358   5.412   9.777 -0.6547 -0.6756 -0.1429
   58CHL1  H19C 6741   5.289   5.374   9.944  0.8999  0.6770  1.3745
   58CHL1    C1 6742   5.369   5.159  10.003 -0.2740 -0.3312 -0.0670
   58CHL1   H1A 6743   5.261   5.178   9.992 -0.1555  0.5525  0.1909
   58CHL1   H1B 6744   5.383   5.050   9.984 -1.1850  0.0405 -3.4289
   58CHL1    C2 6745   5.414   5.212  10.139 -0.5720 -0.9816  0.5969
   58CHL1   H2A 6746   5.371   5.151  10.222 -1.0742 -3.2317 -1.2135
   58CHL1   H2B 6747   5.368   5.312  10.153  0.7596 -0.1467 -0.7433
   58CHL1   C20 6748   5.178   5.018   9.244 -0.1695  0.4420 -0.3374
   58CHL1   H20 6749   5.207   5.115   9.199 -0.0909  1.2559  1.4109
   58CHL1   C21 6750   5.034   5.022   9.299 -0.4331  0.1426 -0.4104
   58CHL1  H21A 6751   4.967   5.048   9.215 -0.8339  3.7365  0.8737
   58CHL1  H21B 6752   5.028   5.103   9.375  4.1027  0.1755  0.1855
   58CHL1  H21C 6753   5.005   4.924   9.343  3.7918 -1.2470 -0.2576
   58CHL1   C22 6754   5.193   4.908   9.132  0.0368 -0.9317 -0.2531
   58CHL1  H22A 6755   5.300   4.914   9.102 -0.1369  0.0166 -0.7316
   58CHL1  H22B 6756   5.153   4.811   9.169 -2.2144 -0.3509 -1.0200
   58CHL1   C23 6757   5.121   4.941   9.004  0.3430  0.5352  0.0513
   58CHL1  H23A 6758   5.010   4.940   9.015  0.2256 -1.9400 -0.7459
   58CHL1  H23B 6759   5.141   5.043   8.966  0.4420  0.6399  0.3824
   58CHL1   C24 6760   5.157   4.842   8.900 -0.2276 -0.1034  0.0829
   58CHL1  H24A 6761   5.265   4.817   8.901  0.2692  1.4134 -3.5031
   58CHL1  H24B 6762   5.103   4.749   8.931 -0.6631 -0.1363 -0.7560
   58CHL1   C25 6763   5.109   4.882   8.758 -0.1762  0.1446  0.7388
   58CHL1   H25 6764   5.140   4.988   8.746 -0.2862 -0.0533 -1.7562
   58CHL1   C26 6765   5.184   4.782   8.665 -0.3359 -0.1607  0.1628
   58CHL1  H26A 6766   5.155   4.676   8.679 -0.5331 -0.0740  0.4023
   58CHL1  H26B 6767   5.177   4.820   8.561  1.2344  0.9014  0.3988
   58CHL1  H26C 6768   5.290   4.793   8.697 -0.2144 -1.5771  0.2711
   58CHL1   C27 6769   4.957   4.873   8.732  0.0471  0.1140 -0.2450
   58CHL1  H27A 6770   4.907   4.930   8.813 -0.1321  0.3538 -0.5227
   58CHL1  H27B 6771   4.931   4.920   8.634  0.9760 -0.4745 -0.7849
   58CHL1  H27C 6772   4.923   4.770   8.756 -0.3618  0.7042  1.9439
   59CHL1    C3 6773   2.987   3.914  10.107 -0.0137  0.8273  0.3113
   59CHL1    H3 6774   3.074   3.845  10.122  0.2602  1.0085 -0.4009
   59CHL1    O3 6775   2.922   3.934  10.236  0.3677  0.3074  0.3036
   59CHL1   H3' 6776   2.996   3.974  10.282  0.0388  0.8471  0.3572
   59CHL1    C4 6777   3.020   4.055  10.060 -0.4875  0.9211 -0.2938
   59CHL1   H4A 6778   2.929   4.115  10.078 -0.8375  0.6215 -1.0170
   59CHL1   H4B 6779   3.097   4.101  10.125 -2.2153  0.4130  2.2482
   59CHL1    C5 6780   3.057   4.064   9.914 -0.1956  0.3568  0.4149
   59CHL1    C6 6781   3.163   4.134   9.873 -0.2580 -0.2121  0.1628
   59CHL1    H6 6782   3.233   4.174   9.948  0.6883 -1.7996  0.1795
   59CHL1    C7 6783   3.213   4.144   9.729  0.3995 -0.1882 -0.2488
   59CHL1   H7A 6784   3.227   4.253   9.714  3.0426 -0.4161  0.1331
   59CHL1   H7B 6785   3.309   4.091   9.716  1.7230  1.9801  0.1531
   59CHL1    C8 6786   3.106   4.102   9.627  0.3899  0.6129  0.1916
   59CHL1    H8 6787   3.026   4.179   9.623  0.6162  0.9075  1.0346
   59CHL1   C14 6788   3.168   4.084   9.488 -0.4722  0.7938  0.1094
   59CHL1   H14 6789   3.241   4.001   9.504  1.1494  1.8531 -1.4782
   59CHL1   C15 6790   3.247   4.196   9.419  0.1136  0.0781 -0.2848
   59CHL1  H15A 6791   3.199   4.295   9.434 -2.5868 -1.1506 -0.3261
   59CHL1  H15B 6792   3.355   4.210   9.440  0.6795  0.2461 -2.9392
   59CHL1   C16 6793   3.239   4.160   9.264  0.3774  0.4521 -0.4859
   59CHL1  H16A 6794   3.200   4.254   9.219  1.8877  0.5907 -1.5495
   59CHL1  H16B 6795   3.341   4.135   9.230  0.8754  1.9301 -0.1723
   59CHL1   C17 6796   3.144   4.031   9.251 -0.1403 -0.4574  0.0114
   59CHL1   H17 6797   3.218   3.948   9.257  2.7400  1.9751  0.8446
   59CHL1   C13 6798   3.065   4.030   9.383 -0.5102  0.1235 -0.2072
   59CHL1   C18 6799   2.946   4.130   9.368 -1.0170  0.2116 -0.1267
   59CHL1  H18A 6800   2.875   4.080   9.298 -0.2994 -1.9833  0.6379
   59CHL1  H18B 6801   2.901   4.148   9.468 -2.3328  0.7652 -0.7815
   59CHL1  H18C 6802   2.962   4.227   9.316 -1.8419  0.2012 -0.4167
   59CHL1   C12 6803   3.002   3.900   9.427 -0.3582  0.2236 -0.4306
   59CHL1  H12A 6804   2.917   3.883   9.357  0.6563  0.9788 -1.8887
   59CHL1  H12B 6805   3.070   3.818   9.395 -1.2631 -0.2797 -1.1251
   59CHL1   C11 6806   2.944   3.903   9.567  0.1734  0.3010  0.0127
   59CHL1  H11A 6807   2.843   3.950   9.566  0.4139  0.8460  0.6407
   59CHL1  H11B 6808   2.922   3.798   9.596  1.1457 -0.0255 -0.4036
   59CHL1    C9 6809   3.035   3.969   9.678  0.3428 -0.6897  0.1230
   59CHL1    H9 6810   3.111   3.889   9.692  0.5616 -0.4619  0.2591
   59CHL1   C10 6811   2.966   3.987   9.816  0.4869 -0.1059 -0.0870
   59CHL1   C19 6812   2.841   4.078   9.806  0.0969 -0.1836 -0.2222
   59CHL1  H19A 6813   2.803   4.099   9.908 -2.9896 -2.0758 -0.8491
   59CHL1  H19B 6814   2.862   4.176   9.759 -0.5623  0.2711  0.4150
   59CHL1  H19C 6815   2.761   4.024   9.751 -0.7842 -1.7072  2.3563
   59CHL1    C1 6816   2.935   3.848   9.867 -1.2196 -0.1586  0.2800
   59CHL1   H1A 6817   2.865   3.791   9.802 -0.6619 -1.7183  1.0063
   59CHL1   H1B 6818   3.023   3.782   9.856  0.5827  2.1645 -0.2530
   59CHL1    C2 6819   2.889   3.847  10.014  0.2928 -0.5846 -0.1488
   59CHL1   H2A 6820   2.873   3.745  10.054  1.3065 -0.8923 -0.4954
   59CHL1   H2B 6821   2.789   3.895  10.018  0.2581 -0.6930  0.3732
   59CHL1   C20 6822   3.075   4.035   9.111 -0.3558  0.3920  0.8344
   59CHL1   H20 6823   2.970   4.071   9.120 -0.1870  0.5827  2.1190
   59CHL1   C21 6824   3.072   3.886   9.058  0.2244  0.2495 -0.1955
   59CHL1  H21A 6825   3.172   3.846   9.031 -0.9617 -1.4698 -2.3978
   59CHL1  H21B 6826   3.003   3.873   8.973  0.1549 -0.9704  0.0217
   59CHL1  H21C 6827   3.047   3.822   9.146 -0.3951  0.0651 -0.5044
   59CHL1   C22 6828   3.149   4.127   9.005  1.2796 -0.1072 -0.4701
   59CHL1  H22A 6829   3.122   4.230   9.036  1.6763  0.3097 -1.4618
   59CHL1  H22B 6830   3.259   4.108   8.996  1.6569  0.7971  1.7544
   59CHL1   C23 6831   3.079   4.124   8.870  0.1552  0.3927 -0.1706
   59CHL1  H23A 6832   3.080   4.019   8.833  2.5168  0.6815 -1.0773
   59CHL1  H23B 6833   2.974   4.160   8.883 -0.7976 -2.3207  0.3101
   59CHL1   C24 6834   3.153   4.210   8.768  0.3471 -0.3360  0.0596
   59CHL1  H24A 6835   3.080   4.245   8.692  1.0701 -0.4302 -0.6962
   59CHL1  H24B 6836   3.190   4.299   8.824 -1.0483  0.3848 -0.1162
   59CHL1   C25 6837   3.272   4.140   8.694  0.4587 -0.1974  0.0589
   59CHL1   H25 6838   3.354   4.107   8.761  0.6747 -2.9919 -1.4092
   59CHL1   C26 6839   3.235   4.016   8.617  0.4162  0.2364  0.3765
   59CHL1  H26A 6840   3.231   3.927   8.683 -0.9682 -0.1635 -0.1965
   59CHL1  H26B 6841   3.138   4.039   8.567  0.5084  1.3215  0.6568
   59CHL1  H26C 6842   3.315   4.006   8.541  2.1819  0.7032  2.1003
   59CHL1   C27 6843   3.330   4.244   8.596  0.0911 -0.2375 -0.1044
   59CHL1  H27A 6844   3.421   4.206   8.545 -1.4666 -1.5130 -2.1676
   59CHL1  H27B 6845   3.245   4.269   8.528  0.0077  1.2762  0.5295
   59CHL1  H27C 6846   3.356   4.338   8.647 -2.6265  0.8654 -0.5545
   60CHL1    C3 6847   1.631   1.001  10.163 -0.4762  0.5031 -0.6459
   60CHL1    H3 6848   1.693   0.919  10.121 -0.4628 -1.2251  2.4829
   60CHL1    O3 6849   1.638   0.982  10.303  0.0314 -0.2927 -0.5442
   60CHL1   H3' 6850   1.601   1.063  10.339 -0.1795 -1.6392  2.4888
   60CHL1    C4 6851   1.686   1.136  10.114  0.4002 -0.6312  0.0369
   60CHL1   H4A 6852   1.634   1.223  10.159 -1.4705 -0.5343 -2.1343
   60CHL1   H4B 6853   1.796   1.140  10.131  0.7841 -1.0865 -2.0621
   60CHL1    C5 6854   1.671   1.149   9.966  0.4963  0.3049 -0.3104
   60CHL1    C6 6855   1.769   1.176   9.879  0.0179  0.4611 -0.8579
   60CHL1    H6 6856   1.869   1.193   9.920 -0.5026  1.6488 -0.0168
   60CHL1    C7 6857   1.752   1.186   9.731 -0.0459 -0.1239 -0.5433
   60CHL1   H7A 6858   1.810   1.274   9.695 -2.7719  0.8707 -2.8401
   60CHL1   H7B 6859   1.790   1.088   9.697 -1.6983 -0.6102 -1.0579
   60CHL1    C8 6860   1.609   1.205   9.685  0.4128 -1.0835 -0.8035
   60CHL1    H8 6861   1.570   1.307   9.702  1.4777 -0.5226 -1.6211
   60CHL1   C14 6862   1.610   1.178   9.534  0.0222  0.8035  0.2274
   60CHL1   H14 6863   1.632   1.069   9.529 -1.0127  0.3388  3.2893
   60CHL1   C15 6864   1.714   1.243   9.447 -0.1211 -0.6103 -0.2660
   60CHL1  H15A 6865   1.715   1.353   9.463  0.6568 -0.3120 -2.0812
   60CHL1  H15B 6866   1.818   1.205   9.456 -0.4092 -1.5010 -0.6415
   60CHL1   C16 6867   1.669   1.217   9.307 -0.2801 -0.3780  0.1555
   60CHL1  H16A 6868   1.664   1.302   9.237 -2.0499 -0.5562  0.0130
   60CHL1  H16B 6869   1.738   1.139   9.269  2.0876  2.1355 -0.9479
   60CHL1   C17 6870   1.523   1.149   9.323 -0.1571  0.8597 -0.3918
   60CHL1   H17 6871   1.551   1.042   9.320  1.0275  1.1632 -1.2279
   60CHL1   C13 6872   1.477   1.191   9.458  0.2530 -0.6026 -0.4100
   60CHL1   C18 6873   1.427   1.340   9.460 -0.0872  0.0447 -0.0629
   60CHL1  H18A 6874   1.493   1.416   9.414  0.5143  1.5063  2.9461
   60CHL1  H18B 6875   1.329   1.331   9.408 -1.3609  0.3480  2.1492
   60CHL1  H18C 6876   1.401   1.382   9.559  0.3345  1.4424 -0.5253
   60CHL1   C12 6877   1.373   1.101   9.529  0.5327  0.0409 -0.9595
   60CHL1  H12A 6878   1.268   1.126   9.502 -0.0869 -0.1364  1.0516
   60CHL1  H12B 6879   1.392   0.997   9.495  2.0050 -0.9247  2.3610
   60CHL1   C11 6880   1.371   1.116   9.694 -0.5357  0.1058 -0.2354
   60CHL1  H11A 6881   1.328   1.215   9.719 -1.0967 -0.2105  0.0930
   60CHL1  H11B 6882   1.306   1.044   9.749  0.5474  1.2652  2.8274
   60CHL1    C9 6883   1.514   1.110   9.754 -0.1795 -0.2782  0.2843
   60CHL1    H9 6884   1.557   1.008   9.739 -0.1445 -0.2388  0.1041
   60CHL1   C10 6885   1.527   1.123   9.914 -0.2618  0.3093 -0.1757
   60CHL1   C19 6886   1.438   1.243   9.954 -0.3322 -0.5261  0.0839
   60CHL1  H19A 6887   1.329   1.218   9.954 -0.1530 -1.7245 -2.6329
   60CHL1  H19B 6888   1.458   1.292  10.051  0.1425  0.4629 -0.5017
   60CHL1  H19C 6889   1.466   1.324   9.884  3.1522 -1.7584 -0.1651
   60CHL1    C1 6890   1.465   0.996   9.972 -0.2114 -0.3368 -0.0102
   60CHL1   H1A 6891   1.356   0.989   9.954  0.0388 -0.2145 -1.7764
   60CHL1   H1B 6892   1.506   0.901   9.933 -2.4720 -1.8815  1.1830
   60CHL1    C2 6893   1.479   0.992  10.124  0.2203  0.2816 -0.0084
   60CHL1   H2A 6894   1.422   0.899  10.147 -0.5456 -0.1651 -3.3003
   60CHL1   H2B 6895   1.421   1.074  10.173 -1.1722 -1.3047  1.1476
   60CHL1   C20 6896   1.428   1.172   9.205  0.2459 -0.0396 -0.4614
   60CHL1   H20 6897   1.377   1.270   9.223 -2.2864 -1.3338 -0.0889
   60CHL1   C21 6898   1.314   1.060   9.208 -0.5782  0.6709 -0.7795
   60CHL1  H21A 6899   1.259   1.048   9.304 -1.1773  2.8545 -0.7862
   60CHL1  H21B 6900   1.349   0.963   9.168 -0.0174  0.6845 -0.3420
   60CHL1  H21C 6901   1.239   1.098   9.135  0.5762 -1.9644 -3.5217
   60CHL1   C22 6902   1.490   1.185   9.065  0.4361 -0.0506  0.1323
   60CHL1  H22A 6903   1.556   1.272   9.086 -0.9563  1.0928 -0.0436
   60CHL1  H22B 6904   1.545   1.092   9.040  0.9948  0.3203 -0.0563
   60CHL1   C23 6905   1.394   1.216   8.952 -0.0266  0.2877  0.1388
   60CHL1  H23A 6906   1.315   1.138   8.950 -1.6994  1.8272  1.9345
   60CHL1  H23B 6907   1.344   1.308   8.990 -2.4367 -0.9816  0.2208
   60CHL1   C24 6908   1.452   1.239   8.808 -0.6143  0.1843 -0.3227
   60CHL1  H24A 6909   1.525   1.322   8.822 -1.5802  0.9888  0.0802
   60CHL1  H24B 6910   1.502   1.149   8.766  0.5578 -0.2036  1.7645
   60CHL1   C25 6911   1.346   1.278   8.696 -0.0130  0.9555 -0.2875
   60CHL1   H25 6912   1.262   1.332   8.747 -0.6115  0.4807 -0.7661
   60CHL1   C26 6913   1.392   1.386   8.599 -0.4718  0.4393  0.0776
   60CHL1  H26A 6914   1.490   1.363   8.552 -1.4696 -1.9813 -0.9884
   60CHL1  H26B 6915   1.324   1.380   8.512  0.3938 -1.0553 -0.5288
   60CHL1  H26C 6916   1.400   1.485   8.649  2.3196 -0.3470  1.4140
   60CHL1   C27 6917   1.294   1.159   8.620  0.8307 -0.0690 -0.1539
   60CHL1  H27A 6918   1.262   1.072   8.682  2.3565 -3.0098 -3.1127
   60CHL1  H27B 6919   1.212   1.178   8.547 -1.7778  0.1732  2.6530
   60CHL1  H27C 6920   1.384   1.130   8.561  0.1466 -3.4613  0.2512
   61CHL1    C3 6921   4.937   2.556  10.350 -0.9424  0.3863  0.0439
   61CHL1    H3 6922   5.046   2.569  10.370 -0.5125 -4.0541  1.5307
   61CHL1    O3 6923   4.893   2.517  10.479  0.3951 -0.5209 -0.2976
   61CHL1   H3' 6924   4.800   2.495  10.471  0.4904 -0.5424 -1.4503
   61CHL1    C4 6925   4.877   2.687  10.312  0.4783 -0.1293  0.0974
   61CHL1   H4A 6926   4.766   2.688  10.327  0.1240  2.0420 -2.0220
   61CHL1   H4B 6927   4.901   2.770  10.383  0.5778 -0.8745  0.9568
   61CHL1    C5 6928   4.897   2.732  10.169 -0.2934  0.3704  0.1489
   61CHL1    C6 6929   4.960   2.850  10.140  0.5785  0.1073  0.1141
   61CHL1    H6 6930   4.993   2.918  10.220 -0.5277  3.7611 -2.3041
   61CHL1    C7 6931   4.977   2.899  10.004 -0.6392  0.6772  0.2682
   61CHL1   H7A 6932   4.960   3.008   9.995  1.5522  1.2196  1.8657
   61CHL1   H7B 6933   5.084   2.874   9.988 -1.3793 -0.8957 -3.1486
   61CHL1    C8 6934   4.894   2.812   9.896 -0.2360  0.5629 -0.2989
   61CHL1    H8 6935   4.785   2.832   9.908 -0.7843 -2.5080  0.7475
   61CHL1   C14 6936   4.935   2.844   9.754  0.5546  0.6413 -0.1470
   61CHL1   H14 6937   5.041   2.811   9.744  0.0652 -1.1813  0.2899
   61CHL1   C15 6938   4.924   2.985   9.708 -0.3000 -0.2465 -0.5986
   61CHL1  H15A 6939   4.816   3.004   9.727 -0.2348 -0.0016 -0.4797
   61CHL1  H15B 6940   4.999   3.050   9.756 -1.1443  0.1893  0.1587
   61CHL1   C16 6941   4.943   2.983   9.555  0.3460 -0.0894 -0.6291
   61CHL1  H16A 6942   4.873   3.059   9.515 -0.0244  0.0068  0.1914
   61CHL1  H16B 6943   5.053   3.000   9.546  0.5729 -0.7146  0.6690
   61CHL1   C17 6944   4.918   2.834   9.513  0.5534 -0.8462 -0.1337
   61CHL1   H17 6945   5.021   2.801   9.485  1.2405  1.0458  0.0305
   61CHL1   C13 6946   4.868   2.766   9.646 -0.3703  0.3388  0.6457
   61CHL1   C18 6947   4.707   2.785   9.650 -0.2395  0.1466 -0.2290
   61CHL1  H18A 6948   4.664   2.752   9.746 -1.2224  1.2283 -0.2773
   61CHL1  H18B 6949   4.665   2.885   9.624  0.4132  0.7834  1.0308
   61CHL1  H18C 6950   4.661   2.711   9.582 -3.0724  2.9625 -1.6500
   61CHL1   C12 6951   4.909   2.618   9.665 -0.0157  0.0594 -0.1559
   61CHL1  H12A 6952   4.857   2.562   9.584  1.2616 -2.4107  0.6322
   61CHL1  H12B 6953   5.015   2.602   9.637 -0.5570 -3.8625 -0.5365
   61CHL1   C11 6954   4.875   2.567   9.809  0.1345  0.2486  0.0648
   61CHL1  H11A 6955   4.766   2.549   9.794  0.3664  1.1296 -3.8997
   61CHL1  H11B 6956   4.918   2.466   9.823 -1.4250 -0.1913  2.0688
   61CHL1    C9 6957   4.911   2.661   9.926 -0.0811  0.0673  0.6012
   61CHL1    H9 6958   5.022   2.652   9.923  0.1848  2.4389  1.2862
   61CHL1   C10 6959   4.860   2.618  10.064 -0.6917 -0.1644 -0.7329
   61CHL1   C19 6960   4.707   2.603  10.056 -0.6201 -1.2295  0.3242
   61CHL1  H19A 6961   4.676   2.518   9.991 -0.5350 -0.0159 -1.3675
   61CHL1  H19B 6962   4.667   2.581  10.157  1.6211 -0.0998  1.5398
   61CHL1  H19C 6963   4.663   2.695  10.013 -0.7784 -1.2230  0.5036
   61CHL1    C1 6964   4.923   2.484  10.103  0.0643 -0.6157  0.1993
   61CHL1   H1A 6965   4.890   2.403  10.035 -1.8848 -1.5567  2.1694
   61CHL1   H1B 6966   5.029   2.509  10.081 -0.5056  4.3881  1.8234
   61CHL1    C2 6967   4.908   2.444  10.249 -0.0314 -0.8183 -0.2150
   61CHL1   H2A 6968   4.968   2.354  10.277 -0.1583 -0.5131  1.0763
   61CHL1   H2B 6969   4.802   2.413  10.266 -1.5158  3.5465 -0.3724
   61CHL1   C20 6970   4.845   2.824   9.385  0.8799  0.5418 -0.0308
   61CHL1   H20 6971   4.737   2.850   9.394  0.7469  0.3347 -0.9214
   61CHL1   C21 6972   4.851   2.673   9.339 -0.1261 -0.4315 -0.4669
   61CHL1  H21A 6973   4.954   2.640   9.361 -0.2062 -1.0984 -1.0548
   61CHL1  H21B 6974   4.838   2.665   9.229 -0.6574  2.3535 -0.6966
   61CHL1  H21C 6975   4.777   2.609   9.392 -2.5862  1.1210 -1.8061
   61CHL1   C22 6976   4.898   2.923   9.272 -0.2319  0.1573  0.1885
   61CHL1  H22A 6977   4.896   3.025   9.316 -0.3528 -0.0006  0.5565
   61CHL1  H22B 6978   4.999   2.883   9.246 -1.0618 -0.9592 -1.5117
   61CHL1   C23 6979   4.805   2.920   9.149  0.8394  0.5314 -0.2552
   61CHL1  H23A 6980   4.823   2.825   9.094 -2.4423 -0.6495  0.5300
   61CHL1  H23B 6981   4.699   2.909   9.178  0.9105 -2.1724 -0.7950
   61CHL1   C24 6982   4.838   3.039   9.064  0.4732  0.1994 -0.2265
   61CHL1  H24A 6983   4.779   3.020   8.972  0.2612 -1.1900  0.1643
   61CHL1  H24B 6984   4.787   3.124   9.114  1.0626 -0.3812  1.4418
   61CHL1   C25 6985   4.981   3.078   9.044  0.9342 -0.4582  0.4253
   61CHL1   H25 6986   5.024   3.113   9.141  2.3430 -1.6070  0.2607
   61CHL1   C26 6987   5.075   2.972   8.990 -0.1168  0.3726  0.3206
   61CHL1  H26A 6988   5.042   2.956   8.885 -2.7287 -1.8247  1.3402
   61CHL1  H26B 6989   5.176   3.017   9.000 -1.5804  3.5309  2.1387
   61CHL1  H26C 6990   5.066   2.871   9.035  1.8003  0.0550  0.0991
   61CHL1   C27 6991   4.985   3.192   8.945 -0.3273  0.1864  0.3141
   61CHL1  H27A 6992   5.083   3.243   8.959 -1.2592  1.6567  1.6640
   61CHL1  H27B 6993   4.960   3.166   8.840 -0.9059  2.4971 -0.1583
   61CHL1  H27C 6994   4.916   3.267   8.987  0.9082  2.1390 -0.9947
   62CHL1    C3 6995   6.276   0.372   9.908 -0.3439 -0.1127  0.3117
   62CHL1    H3 6996   6.187   0.425   9.868 -0.7708  0.4487  1.9157
   62CHL1    O3 6997   6.246   0.330  10.037 -0.5533 -0.2941  0.3212
   62CHL1   H3' 6998   6.304   0.258  10.061  0.2655  0.8530  1.9637
   62CHL1    C4 6999   6.298   0.243   9.814 -0.3257  0.2043  0.2848
   62CHL1   H4A 7000   6.386   0.190   9.854  0.6499  0.1090 -1.8537
   62CHL1   H4B 7001   6.212   0.174   9.829 -0.5894  0.0137 -1.8547
   62CHL1    C5 7002   6.317   0.280   9.665 -0.3966  0.2099  0.4358
   62CHL1    C6 7003   6.237   0.233   9.562 -0.0446 -0.3328  0.2462
   62CHL1    H6 7004   6.152   0.167   9.587 -0.2201 -0.6777 -1.1752
   62CHL1    C7 7005   6.246   0.270   9.416 -0.0531  0.7300  0.5830
   62CHL1   H7A 7006   6.240   0.177   9.355 -1.7112 -1.1584  3.3525
   62CHL1   H7B 7007   6.164   0.332   9.375  0.3118 -0.2068 -1.7093
   62CHL1    C8 7008   6.381   0.336   9.376  0.0657 -0.0440 -0.2811
   62CHL1    H8 7009   6.455   0.254   9.365 -0.2337 -0.0363 -2.8892
   62CHL1   C14 7010   6.364   0.411   9.243  0.0878  0.4899  0.0258
   62CHL1   H14 7011   6.282   0.485   9.253 -0.0546  0.5177 -1.2152
   62CHL1   C15 7012   6.306   0.325   9.122  0.3563 -0.0260 -0.1537
   62CHL1  H15A 7013   6.355   0.227   9.103  0.3380  0.2702 -1.8497
   62CHL1  H15B 7014   6.196   0.313   9.134  0.4992 -0.6691  0.6035
   62CHL1   C16 7015   6.340   0.418   9.005  0.2408  0.1816 -0.6854
   62CHL1  H16A 7016   6.409   0.367   8.935 -0.7307 -1.6245 -0.3923
   62CHL1  H16B 7017   6.251   0.460   8.954  0.0230 -1.0409 -1.3398
   62CHL1   C17 7018   6.423   0.541   9.064  0.0320 -0.9200  0.2403
   62CHL1   H17 7019   6.355   0.618   9.105 -0.5102 -2.0463  1.5449
   62CHL1   C13 7020   6.492   0.487   9.196  0.6116  0.7634 -0.3020
   62CHL1   C18 7021   6.607   0.389   9.166 -0.0374 -0.1598 -0.9062
   62CHL1  H18A 7022   6.690   0.453   9.130 -0.9185  1.3510 -0.3429
   62CHL1  H18B 7023   6.635   0.333   9.258 -0.7031  0.0635 -0.5572
   62CHL1  H18C 7024   6.572   0.321   9.085 -1.4372  1.5607 -1.8080
   62CHL1   C12 7025   6.530   0.585   9.308  0.0784 -0.1289 -0.1009
   62CHL1  H12A 7026   6.630   0.629   9.285 -0.4909  0.7552 -0.9743
   62CHL1  H12B 7027   6.452   0.665   9.307 -0.4139 -0.6049  0.0074
   62CHL1   C11 7028   6.548   0.514   9.446  0.4632  0.2576  1.1386
   62CHL1  H11A 7029   6.625   0.434   9.435 -1.1899 -1.2610  0.0306
   62CHL1  H11B 7030   6.570   0.577   9.534 -1.6199 -0.8955  2.5634
   62CHL1    C9 7031   6.417   0.440   9.486  0.0812  0.2365 -0.2579
   62CHL1    H9 7032   6.329   0.507   9.486 -0.4820 -0.4969 -0.3496
   62CHL1   C10 7033   6.429   0.380   9.634  0.0430  0.0447 -0.2489
   62CHL1   C19 7034   6.565   0.314   9.646  0.1910 -0.1462  0.3805
   62CHL1  H19A 7035   6.585   0.259   9.741  3.2091  3.5744  2.2041
   62CHL1  H19B 7036   6.572   0.235   9.569 -1.8808  0.3041 -0.3241
   62CHL1  H19C 7037   6.654   0.381   9.639 -0.5674  0.7500 -0.9257
   62CHL1    C1 7038   6.425   0.498   9.740  0.5197  0.2025  0.1703
   62CHL1   H1A 7039   6.516   0.562   9.733  2.2769 -1.9158  2.0459
   62CHL1   H1B 7040   6.336   0.554   9.705  0.3969 -0.5110 -0.7192
   62CHL1    C2 7041   6.399   0.462   9.888 -0.1157  0.0359  0.0485
   62CHL1   H2A 7042   6.394   0.558   9.943  0.8580 -0.6961  1.4746
   62CHL1   H2B 7043   6.489   0.415   9.933  0.9188  1.4901 -0.4182
   62CHL1   C20 7044   6.517   0.605   8.960 -0.4133 -0.1921 -0.4112
   62CHL1   H20 7045   6.604   0.537   8.944 -0.1349 -0.2106  1.0751
   62CHL1   C21 7046   6.569   0.745   9.008  0.1906 -0.3916  0.4881
   62CHL1  H21A 7047   6.642   0.786   8.935 -0.5881  3.4621  1.6853
   62CHL1  H21B 7048   6.611   0.738   9.110 -0.2421  0.4267  0.7263
   62CHL1  H21C 7049   6.480   0.811   9.002  1.8515  1.9883  0.7081
   62CHL1   C22 7050   6.446   0.620   8.821  0.4253 -0.0433 -0.1171
   62CHL1  H22A 7051   6.424   0.518   8.783 -1.4016  0.3087 -0.0558
   62CHL1  H22B 7052   6.351   0.676   8.829  0.3408 -0.3890  1.5842
   62CHL1   C23 7053   6.533   0.689   8.711  0.0074  0.5313  0.1922
   62CHL1  H23A 7054   6.465   0.704   8.624  0.1906  0.1586 -0.0216
   62CHL1  H23B 7055   6.568   0.791   8.734  1.5196  0.1274 -0.2365
   62CHL1   C24 7056   6.654   0.607   8.684 -0.0607 -0.7712  0.2389
   62CHL1  H24A 7057   6.727   0.625   8.766  0.4183  3.8166 -0.8717
   62CHL1  H24B 7058   6.620   0.502   8.689  2.6623 -1.7842 -0.4103
   62CHL1   C25 7059   6.723   0.618   8.547  0.3459 -0.3622 -0.2113
   62CHL1   H25 7060   6.639   0.605   8.475 -0.6238  1.5985  0.4970
   62CHL1   C26 7061   6.801   0.751   8.521  0.1827  1.5765 -0.3170
   62CHL1  H26A 7062   6.889   0.751   8.589  0.0626  1.6553 -0.1607
   62CHL1  H26B 7063   6.854   0.746   8.423  2.8594 -1.7975  1.0975
   62CHL1  H26C 7064   6.725   0.832   8.527 -1.3129  0.1269  0.8826
   62CHL1   C27 7065   6.818   0.491   8.525  0.0780 -0.2980 -0.7860
   62CHL1  H27A 7066   6.868   0.497   8.426  3.8886  1.1959  1.0185
   62CHL1  H27B 7067   6.895   0.498   8.605 -0.4435 -2.7840  0.0265
   62CHL1  H27C 7068   6.761   0.397   8.541  0.6976 -0.2844  2.1000
   63CHL1    C3 7069   0.482   6.581  10.202 -0.9122  0.4037 -0.5710
   63CHL1    H3 7070   0.374   6.564  10.186 -0.9126 -1.2119  0.8868
   63CHL1    O3 7071   0.524   6.520  10.321  0.2237  0.0154 -0.5768
   63CHL1   H3' 7072   0.620   6.517  10.309  0.1735  1.5009 -1.6505
   63CHL1    C4 7073   0.570   6.523  10.083 -0.4524 -0.5171 -0.1063
   63CHL1   H4A 7074   0.677   6.543  10.106 -0.7376  1.8960 -0.6374
   63CHL1   H4B 7075   0.566   6.412  10.079 -0.1084 -0.6058  1.2616
   63CHL1    C5 7076   0.544   6.598   9.957  0.3972  0.2190  0.0928
   63CHL1    C6 7077   0.503   6.526   9.846 -0.0583 -0.0550  0.0962
   63CHL1    H6 7078   0.493   6.417   9.844  1.5860 -0.2153 -0.9352
   63CHL1    C7 7079   0.485   6.586   9.712 -0.2969  0.1894  0.2356
   63CHL1   H7A 7080   0.539   6.523   9.638  0.6666  1.5126 -0.2236
   63CHL1   H7B 7081   0.378   6.588   9.686 -0.2269 -0.9216 -0.2114
   63CHL1    C8 7082   0.553   6.723   9.700  0.3564 -0.3985 -0.6971
   63CHL1    H8 7083   0.664   6.712   9.706  0.4723 -0.0751 -1.9611
   63CHL1   C14 7084   0.504   6.798   9.570  0.6334 -0.0986  0.3116
   63CHL1   H14 7085   0.394   6.804   9.563  0.6481  0.2123  0.3036
   63CHL1   C15 7086   0.538   6.729   9.439  0.3672  0.0516 -0.0469
   63CHL1  H15A 7087   0.647   6.710   9.439  0.3787  0.1215 -0.4113
   63CHL1  H15B 7088   0.476   6.638   9.419  2.9452 -1.9075  0.4118
   63CHL1   C16 7089   0.513   6.837   9.329 -0.2329  0.4103  0.0900
   63CHL1  H16A 7090   0.595   6.833   9.254 -0.3117 -0.9563  0.0630
   63CHL1  H16B 7091   0.418   6.814   9.276 -1.2458  1.5541  1.3373
   63CHL1   C17 7092   0.508   6.966   9.410  0.2642  0.5877  0.0533
   63CHL1   H17 7093   0.400   6.992   9.420 -0.3538 -1.6176 -0.2797
   63CHL1   C13 7094   0.562   6.935   9.551  0.2247 -0.1976 -0.6362
   63CHL1   C18 7095   0.717   6.932   9.543 -0.6044  0.1660  0.0381
   63CHL1  H18A 7096   0.754   7.037   9.544 -3.1409  1.1193 -0.0695
   63CHL1  H18B 7097   0.764   6.882   9.630 -1.0689 -1.9876 -0.8971
   63CHL1  H18C 7098   0.769   6.882   9.458  2.9904  0.6936  1.7086
   63CHL1   C12 7099   0.506   7.019   9.668 -0.4145 -0.1105  0.5498
   63CHL1  H12A 7100   0.547   7.122   9.670 -0.3532  0.0522 -3.2567
   63CHL1  H12B 7101   0.398   7.007   9.649 -0.3000 -1.3323  0.5616
   63CHL1   C11 7102   0.549   6.963   9.801 -0.3968 -0.1614 -0.4906
   63CHL1  H11A 7103   0.658   6.973   9.819 -0.5530  0.6387  0.0395
   63CHL1  H11B 7104   0.492   7.017   9.879 -0.9980  0.2213 -1.1824
   63CHL1    C9 7105   0.513   6.810   9.826 -0.6424 -0.1835  0.9784
   63CHL1    H9 7106   0.403   6.804   9.817 -0.4990 -1.6686 -0.1575
   63CHL1   C10 7107   0.573   6.748   9.959 -0.5722 -0.3703 -0.1008
   63CHL1   C19 7108   0.727   6.765   9.976 -0.5437 -0.0110  0.8625
   63CHL1  H19A 7109   0.759   6.871   9.967  1.1768 -0.4462  1.3187
   63CHL1  H19B 7110   0.769   6.725  10.070 -1.0677  0.1701  1.1778
   63CHL1  H19C 7111   0.774   6.709   9.892 -1.5382 -1.4038  1.2044
   63CHL1    C1 7112   0.484   6.801  10.076  0.4405 -0.1321 -0.6105
   63CHL1   H1A 7113   0.510   6.908  10.090  2.0365 -0.6401  0.5892
   63CHL1   H1B 7114   0.379   6.794  10.040  0.6363 -0.0671 -1.2155
   63CHL1    C2 7115   0.506   6.731  10.208 -0.3363  0.8724  0.2447
   63CHL1   H2A 7116   0.452   6.776  10.294 -1.0963 -0.9246  0.7435
   63CHL1   H2B 7117   0.612   6.751  10.233  0.2383  0.2428 -1.5437
   63CHL1   C20 7118   0.566   7.083   9.337 -0.6666 -0.5302  0.0462
   63CHL1   H20 7119   0.676   7.070   9.330 -0.5469  0.3826  0.1615
   63CHL1   C21 7120   0.523   7.207   9.414 -1.1170 -1.0809 -0.0243
   63CHL1  H21A 7121   0.414   7.218   9.435 -0.9599 -0.1668  0.3448
   63CHL1  H21B 7122   0.540   7.306   9.366 -2.4446 -1.7713 -2.0605
   63CHL1  H21C 7123   0.580   7.216   9.509  1.3975  0.4539 -1.5638
   63CHL1   C22 7124   0.520   7.098   9.187 -0.3941  0.3645 -0.6242
   63CHL1  H22A 7125   0.566   7.011   9.136 -0.1420 -0.3146  0.7298
   63CHL1  H22B 7126   0.410   7.090   9.174 -0.6423  1.7498  0.4603
   63CHL1   C23 7127   0.564   7.232   9.121 -0.2371  0.2566  0.2985
   63CHL1  H23A 7128   0.492   7.310   9.155 -2.4259 -1.0239 -1.1854
   63CHL1  H23B 7129   0.672   7.246   9.145  0.3008 -1.0858 -1.1615
   63CHL1   C24 7130   0.569   7.217   8.965  0.5503 -0.2991 -0.0701
   63CHL1  H24A 7131   0.651   7.147   8.938 -0.4060 -1.5130  0.0875
   63CHL1  H24B 7132   0.474   7.176   8.926 -0.7355  1.7203  0.7807
   63CHL1   C25 7133   0.596   7.353   8.897  0.5961 -0.4573 -0.0521
   63CHL1   H25 7134   0.523   7.432   8.924  1.5347  1.3552 -2.4635
   63CHL1   C26 7135   0.733   7.421   8.927 -0.3911 -0.4384  0.0487
   63CHL1  H26A 7136   0.811   7.356   8.882 -1.9923 -1.1686 -1.8138
   63CHL1  H26B 7137   0.743   7.514   8.867 -0.2966 -1.1502 -1.0706
   63CHL1  H26C 7138   0.744   7.432   9.037 -0.1663  2.2149 -0.1695
   63CHL1   C27 7139   0.589   7.338   8.748  0.2623  0.5931 -0.1740
   63CHL1  H27A 7140   0.658   7.255   8.722 -0.3091 -0.4742  1.5397
   63CHL1  H27B 7141   0.485   7.315   8.715  0.3072  1.7517 -1.1863
   63CHL1  H27C 7142   0.625   7.428   8.693  0.2327  0.0077 -1.1736
   64CHL1    C3 7143   0.356   0.781   9.903  0.4303  0.2560  0.2624
   64CHL1    H3 7144   0.255   0.748   9.870  0.8064  0.7307 -1.4802
   64CHL1    O3 7145   0.391   0.740  10.031  0.5141  0.0591 -0.1543
   64CHL1   H3' 7146   0.436   0.812  10.075 -1.8703  0.7568  1.3290
   64CHL1    C4 7147   0.458   0.725   9.805 -0.3848  0.2707 -0.1339
   64CHL1   H4A 7148   0.556   0.748   9.852  0.0385  2.8275 -2.0540
   64CHL1   H4B 7149   0.442   0.615   9.799 -2.7393  0.5894 -0.6023
   64CHL1    C5 7150   0.461   0.788   9.668 -0.1577 -0.1911 -0.0853
   64CHL1    C6 7151   0.449   0.715   9.558 -0.8289 -0.0732 -0.6109
   64CHL1    H6 7152   0.438   0.605   9.558 -2.2879  0.0291  0.5700
   64CHL1    C7 7153   0.439   0.772   9.418  0.1734 -0.1043 -0.1048
   64CHL1   H7A 7154   0.504   0.721   9.343  1.3078 -0.3789  1.0424
   64CHL1   H7B 7155   0.340   0.764   9.368  0.0731 -0.4039  0.1418
   64CHL1    C8 7156   0.483   0.918   9.420  0.2328 -0.0026 -0.3471
   64CHL1    H8 7157   0.591   0.925   9.442 -0.3355  1.3341  2.5245
   64CHL1   C14 7158   0.460   0.990   9.287  0.3040 -0.5286  0.3440
   64CHL1   H14 7159   0.349   0.989   9.279  0.3325 -0.1080 -0.1448
   64CHL1   C15 7160   0.507   0.931   9.158  0.2545  0.8872  0.1052
   64CHL1  H15A 7161   0.617   0.915   9.167  0.2837  1.3860  0.7160
   64CHL1  H15B 7162   0.461   0.833   9.137  0.6820  0.5716  0.5994
   64CHL1   C16 7163   0.498   1.035   9.044  0.4927  0.4215 -0.6315
   64CHL1  H16A 7164   0.597   1.049   8.994  0.0086 -0.6628 -1.9575
   64CHL1  H16B 7165   0.422   1.006   8.968  0.1515  0.2776 -0.2373
   64CHL1   C17 7166   0.446   1.159   9.119  0.4045  0.3576  0.1040
   64CHL1   H17 7167   0.335   1.154   9.119  0.4105 -2.1609 -2.6335
   64CHL1   C13 7168   0.496   1.144   9.264  0.1869 -0.0444  0.1020
   64CHL1   C18 7169   0.645   1.174   9.270  0.2362  0.5150 -0.3393
   64CHL1  H18A 7170   0.694   1.130   9.180  0.0508  1.2206 -0.8030
   64CHL1  H18B 7171   0.670   1.283   9.271  1.7807  0.2031 -1.2220
   64CHL1  H18C 7172   0.684   1.116   9.356  0.0109 -0.7253 -1.0607
   64CHL1   C12 7173   0.424   1.218   9.382  0.9269  0.1258  0.3383
   64CHL1  H12A 7174   0.470   1.319   9.378 -0.5139  0.7660 -1.9377
   64CHL1  H12B 7175   0.316   1.227   9.360  0.3422 -3.7723  0.8028
   64CHL1   C11 7176   0.449   1.152   9.518 -0.9122 -0.1372  0.6723
   64CHL1  H11A 7177   0.549   1.188   9.548 -1.4678  2.7469 -0.6144
   64CHL1  H11B 7178   0.387   1.202   9.595 -1.9493  0.8374 -0.7610
   64CHL1    C9 7179   0.426   1.002   9.532  0.6467 -0.1734  0.4149
   64CHL1    H9 7180   0.318   0.985   9.512  0.5003  0.3509  0.7428
   64CHL1   C10 7181   0.465   0.943   9.666  0.4796  0.1927  0.1878
   64CHL1   C19 7182   0.604   0.994   9.714  0.3185 -0.0091 -1.0723
   64CHL1  H19A 7183   0.641   0.957   9.812  0.6322  1.8756 -0.4429
   64CHL1  H19B 7184   0.677   0.973   9.633  1.3592 -1.5109  0.2038
   64CHL1  H19C 7185   0.601   1.105   9.727 -0.1924 -0.2824  1.7538
   64CHL1    C1 7186   0.347   0.987   9.757  0.4251  0.6179 -0.3947
   64CHL1   H1A 7187   0.349   1.098   9.764  2.1740  0.5389  1.1005
   64CHL1   H1B 7188   0.255   0.950   9.707  0.5158  2.2487 -1.8943
   64CHL1    C2 7189   0.362   0.934   9.898 -0.9932 -0.9610  0.1780
   64CHL1   H2A 7190   0.285   0.969   9.970 -1.3550 -1.7032  0.1624
   64CHL1   H2B 7191   0.462   0.965   9.933 -0.3456  1.5809 -3.3800
   64CHL1   C20 7192   0.477   1.289   9.044 -0.3805 -0.1519  0.5187
   64CHL1   H20 7193   0.585   1.307   9.063 -0.2833  2.1794 -1.6594
   64CHL1   C21 7194   0.392   1.404   9.091  0.6801  0.4612 -0.2625
   64CHL1  H21A 7195   0.370   1.397   9.200  1.3089 -0.6387 -0.1896
   64CHL1  H21B 7196   0.293   1.391   9.043  0.5619 -1.7695  0.4218
   64CHL1  H21C 7197   0.437   1.501   9.064  1.0029  0.1603 -0.8322
   64CHL1   C22 7198   0.467   1.277   8.890 -0.5884  0.2910  0.5511
   64CHL1  H22A 7199   0.542   1.200   8.864 -0.5586 -0.4801  2.6904
   64CHL1  H22B 7200   0.367   1.240   8.859 -0.7993  0.1043  1.4406
   64CHL1   C23 7201   0.510   1.402   8.814  0.0510 -0.3095  0.5994
   64CHL1  H23A 7202   0.460   1.487   8.864 -1.1232 -0.7303  0.1591
   64CHL1  H23B 7203   0.617   1.414   8.842  0.1757 -1.0462  0.4636
   64CHL1   C24 7204   0.478   1.386   8.668  0.0950 -0.3814 -0.2518
   64CHL1  H24A 7205   0.546   1.307   8.631  0.3744 -0.0620 -0.4255
   64CHL1  H24B 7206   0.373   1.357   8.645 -0.6659  2.9703 -1.6663
   64CHL1   C25 7207   0.509   1.507   8.575  0.1723 -0.9120 -0.0572
   64CHL1   H25 7208   0.430   1.581   8.602 -0.4938 -1.8916  0.7594
   64CHL1   C26 7209   0.650   1.554   8.594  0.5689 -0.3502 -0.3675
   64CHL1  H26A 7210   0.667   1.602   8.693  1.0656 -2.9121  0.8578
   64CHL1  H26B 7211   0.723   1.472   8.578  1.9172  1.0040 -1.4443
   64CHL1  H26C 7212   0.661   1.640   8.525  1.1477 -1.7688 -2.1111
   64CHL1   C27 7213   0.476   1.467   8.430  0.2645  0.6101  1.0940
   64CHL1  H27A 7214   0.373   1.425   8.422  0.4679  0.1223  1.0042
   64CHL1  H27B 7215   0.472   1.554   8.361 -1.6400 -1.6584 -1.9133
   64CHL1  H27C 7216   0.557   1.399   8.397  0.5371  1.2380  0.4276
   65CHL1    C3 7217   3.583   5.542  10.276 -0.7427  0.2762 -0.0597
   65CHL1    H3 7218   3.539   5.642  10.258 -1.2998 -0.1263 -0.9912
   65CHL1    O3 7219   3.611   5.509  10.413  0.2881  0.4160  0.2986
   65CHL1   H3' 7220   3.529   5.460  10.427 -0.5594  1.0267 -2.0326
   65CHL1    C4 7221   3.486   5.439  10.228 -0.9284  0.1930 -0.5931
   65CHL1   H4A 7222   3.530   5.340  10.250 -1.5150 -0.4375 -2.1231
   65CHL1   H4B 7223   3.395   5.456  10.288  0.2236 -1.1280  1.6454
   65CHL1    C5 7224   3.458   5.444  10.078  0.2861  0.3016  1.1520
   65CHL1    C6 7225   3.333   5.459  10.030  0.4109  0.6876 -0.1848
   65CHL1    H6 7226   3.248   5.479  10.097 -0.4870 -0.9029 -0.8023
   65CHL1    C7 7227   3.301   5.455   9.884  0.2264 -0.4907 -0.1338
   65CHL1   H7A 7228   3.224   5.377   9.870 -2.5203  1.8181  1.0299
   65CHL1   H7B 7229   3.257   5.549   9.845 -1.3964 -1.2475 -0.2099
   65CHL1    C8 7230   3.421   5.407   9.787 -0.3734 -0.7915 -0.3652
   65CHL1    H8 7231   3.427   5.296   9.797 -1.2887 -0.7791  0.4587
   65CHL1   C14 7232   3.395   5.446   9.642  0.0399  0.7095  0.2335
   65CHL1   H14 7233   3.379   5.556   9.636  1.8682  1.0122  0.4399
   65CHL1   C15 7234   3.269   5.405   9.565  0.4383  0.3428  0.5667
   65CHL1  H15A 7235   3.250   5.296   9.570  3.2469 -0.2221  0.9727
   65CHL1  H15B 7236   3.174   5.452   9.599 -1.8156 -2.9465 -0.7545
   65CHL1   C16 7237   3.301   5.429   9.420 -0.0782 -0.3197  0.6387
   65CHL1  H16A 7238   3.274   5.336   9.365  0.0624 -0.1892  0.3472
   65CHL1  H16B 7239   3.247   5.524   9.399  0.4857 -0.3427 -1.0988
   65CHL1   C17 7240   3.452   5.462   9.411 -0.5442  0.5675  0.1799
   65CHL1   H17 7241   3.459   5.573   9.410 -2.4527  0.7933 -3.2342
   65CHL1   C13 7242   3.507   5.406   9.541  0.3361 -0.1686 -0.8756
   65CHL1   C18 7243   3.523   5.258   9.534 -0.1622  0.1599 -0.4753
   65CHL1  H18A 7244   3.433   5.217   9.484  0.3395 -1.4935 -0.0995
   65CHL1  H18B 7245   3.614   5.233   9.475  0.0035  0.1522 -0.2207
   65CHL1  H18C 7246   3.529   5.201   9.630 -0.1372 -0.3757 -0.7900
   65CHL1   C12 7247   3.633   5.481   9.592 -0.5852  0.1307 -0.1155
   65CHL1  H12A 7248   3.709   5.472   9.512  0.4140 -1.7239  0.9627
   65CHL1  H12B 7249   3.606   5.588   9.588 -1.4513 -0.0810 -0.1085
   65CHL1   C11 7250   3.676   5.435   9.737 -0.2151 -0.2265  0.8382
   65CHL1  H11A 7251   3.702   5.327   9.743 -0.2049 -0.3376 -0.8615
   65CHL1  H11B 7252   3.763   5.500   9.762 -0.2066 -0.1920  0.7170
   65CHL1    C9 7253   3.556   5.469   9.835 -0.2515 -0.2074 -0.2007
   65CHL1    H9 7254   3.540   5.578   9.823 -0.2092 -0.3446 -1.6491
   65CHL1   C10 7255   3.583   5.441   9.986 -0.2102  0.2137 -0.8162
   65CHL1   C19 7256   3.658   5.300   9.991 -0.3028 -0.5777 -0.0167
   65CHL1  H19A 7257   3.675   5.274  10.098 -0.3406 -0.4619  0.0172
   65CHL1  H19B 7258   3.600   5.217   9.946 -2.7731  0.6474  0.7143
   65CHL1  H19C 7259   3.760   5.293   9.948  0.0321 -1.0095  0.8271
   65CHL1    C1 7260   3.685   5.548  10.045  0.0929  0.4275 -0.3726
   65CHL1   H1A 7261   3.775   5.533   9.981  0.5618 -0.8696  0.5601
   65CHL1   H1B 7262   3.648   5.651  10.029  0.2671  0.4167 -0.8563
   65CHL1    C2 7263   3.711   5.532  10.190  0.3615  0.2028  0.3117
   65CHL1   H2A 7264   3.791   5.600  10.224  1.6746 -0.1016 -1.9242
   65CHL1   H2B 7265   3.749   5.428  10.202 -1.1712 -0.2537  1.5944
   65CHL1   C20 7266   3.509   5.418   9.273  0.4960  0.2162  0.3661
   65CHL1   H20 7267   3.474   5.314   9.254  1.6263  0.0370 -0.8511
   65CHL1   C21 7268   3.661   5.402   9.255 -0.1772 -0.8743 -0.6415
   65CHL1  H21A 7269   3.711   5.501   9.264  2.1488 -1.8205 -2.2938
   65CHL1  H21B 7270   3.676   5.358   9.154  1.9374  0.1603 -0.8368
   65CHL1  H21C 7271   3.701   5.322   9.320 -1.4168 -1.6198 -0.7652
   65CHL1   C22 7272   3.451   5.500   9.156 -0.2954  0.4055  0.3089
   65CHL1  H22A 7273   3.343   5.521   9.171 -0.4655  1.4902 -1.9539
   65CHL1  H22B 7274   3.484   5.607   9.156  2.1378 -0.2680  0.0766
   65CHL1   C23 7275   3.449   5.439   9.012 -0.1691  0.1485  0.3770
   65CHL1  H23A 7276   3.553   5.438   8.971 -0.3032  1.1950 -0.0287
   65CHL1  H23B 7277   3.414   5.334   9.011 -2.3053  0.8169 -1.2763
   65CHL1   C24 7278   3.375   5.531   8.912  0.8680 -0.2771  0.1055
   65CHL1  H24A 7279   3.277   5.550   8.961  0.8289  2.2824 -0.8284
   65CHL1  H24B 7280   3.425   5.630   8.903 -2.1420  1.3547 -0.0271
   65CHL1   C25 7281   3.359   5.459   8.777  0.4435  0.6162  0.3087
   65CHL1   H25 7282   3.308   5.361   8.786  0.7693  0.2027 -1.8889
   65CHL1   C26 7283   3.263   5.550   8.699 -0.2599  0.0261  0.0508
   65CHL1  H26A 7284   3.250   5.511   8.596 -1.0014  2.2161 -0.7372
   65CHL1  H26B 7285   3.163   5.546   8.746 -1.5743  0.9061 -2.5000
   65CHL1  H26C 7286   3.287   5.656   8.676 -0.6135 -0.2615 -1.7660
   65CHL1   C27 7287   3.488   5.439   8.697  0.2774  0.1402 -0.3042
   65CHL1  H27A 7288   3.530   5.536   8.663  1.7278 -0.6363 -0.8067
   65CHL1  H27B 7289   3.560   5.389   8.765 -1.3024  0.2100  1.5224
   65CHL1  H27C 7290   3.480   5.367   8.612 -0.3286  0.3558 -0.4339
   66CHL1    C3 7291   2.575   0.429  10.480  0.0091 -0.1176 -0.2002
   66CHL1    H3 7292   2.595   0.329  10.435 -0.4659 -0.4517  0.3216
   66CHL1    O3 7293   2.576   0.403  10.623  0.0393 -0.0336 -0.0523
   66CHL1   H3' 7294   2.537   0.317  10.639  1.5767 -0.3190  2.9513
   66CHL1    C4 7295   2.672   0.542  10.446  0.0176 -0.3519  0.6824
   66CHL1   H4A 7296   2.642   0.637  10.495 -0.5010 -0.7148  1.0693
   66CHL1   H4B 7297   2.768   0.513  10.493  0.4481 -0.5686 -0.3074
   66CHL1    C5 7298   2.667   0.568  10.297  0.2252  0.4211 -0.4306
   66CHL1    C6 7299   2.776   0.553  10.221 -0.6293 -0.1301 -0.0535
   66CHL1    H6 7300   2.876   0.536  10.264  0.5722  0.7095 -2.3361
   66CHL1    C7 7301   2.787   0.587  10.072  0.6310  0.0701 -0.4471
   66CHL1   H7A 7302   2.861   0.668  10.059 -0.0142  1.0233  1.3886
   66CHL1   H7B 7303   2.808   0.494  10.016  1.2615  0.7704 -1.4020
   66CHL1    C8 7304   2.658   0.645  10.021 -0.0008  0.7945  0.0449
   66CHL1    H8 7305   2.659   0.753  10.046  2.1305  0.5163  1.4489
   66CHL1   C14 7306   2.657   0.637   9.872 -0.2343 -0.5989  0.3722
   66CHL1   H14 7307   2.656   0.526   9.865 -1.4978 -0.6857  1.5132
   66CHL1   C15 7308   2.776   0.687   9.783 -0.2238  0.6933  0.1221
   66CHL1  H15A 7309   2.804   0.787   9.822 -0.6288  0.7777  0.2039
   66CHL1  H15B 7310   2.858   0.612   9.784 -1.2746 -0.4971  1.4388
   66CHL1   C16 7311   2.714   0.697   9.641  0.0030 -0.3800  0.4707
   66CHL1  H16A 7312   2.712   0.801   9.603 -0.8062 -1.4119 -2.5768
   66CHL1  H16B 7313   2.775   0.638   9.569  0.7918 -0.2016  0.9816
   66CHL1   C17 7314   2.560   0.648   9.662  0.2498 -0.0559  0.4201
   66CHL1   H17 7315   2.571   0.538   9.676  1.5790 -0.2127 -1.4474
   66CHL1   C13 7316   2.524   0.693   9.804 -0.4136  0.3960 -0.0308
   66CHL1   C18 7317   2.517   0.847   9.813 -0.0178  0.8311  0.1421
   66CHL1  H18A 7318   2.442   0.890   9.743 -1.9527  1.5071  2.4822
   66CHL1  H18B 7319   2.461   0.875   9.905 -0.4903 -2.6670  1.0524
   66CHL1  H18C 7320   2.612   0.905   9.805 -1.2269  2.7113 -1.5986
   66CHL1   C12 7321   2.393   0.634   9.871 -1.0469  0.1485  0.4251
   66CHL1  H12A 7322   2.301   0.686   9.834  0.0487  0.6648 -1.7842
   66CHL1  H12B 7323   2.388   0.527   9.841 -0.5756  0.4320 -0.7576
   66CHL1   C11 7324   2.401   0.640  10.022  0.0545  0.2355 -0.6440
   66CHL1  H11A 7325   2.408   0.748  10.048 -0.5419  0.1248  0.0507
   66CHL1  H11B 7326   2.309   0.600  10.071  0.0240  2.3380  1.1493
   66CHL1    C9 7327   2.532   0.588  10.081  0.5291  0.6173 -0.3971
   66CHL1    H9 7328   2.533   0.481  10.054 -0.5153  1.1172 -2.6640
   66CHL1   C10 7329   2.533   0.597  10.241  0.7917 -0.9486  0.8819
   66CHL1   C19 7330   2.480   0.737  10.281  0.1587 -0.2378 -0.2805
   66CHL1  H19A 7331   2.375   0.749  10.247 -0.1596  0.1848  0.7977
   66CHL1  H19B 7332   2.473   0.749  10.392 -0.5178 -0.2479 -0.3198
   66CHL1  H19C 7333   2.537   0.827  10.249 -1.3972  1.2605  0.9410
   66CHL1    C1 7334   2.425   0.496  10.291 -0.0342  0.0737 -0.1072
   66CHL1   H1A 7335   2.324   0.528  10.259  0.9549  1.8611 -1.6729
   66CHL1   H1B 7336   2.447   0.402  10.236  3.0416 -2.4932  4.7254
   66CHL1    C2 7337   2.432   0.461  10.439  0.8830  0.1137 -0.4504
   66CHL1   H2A 7338   2.384   0.364  10.465  2.3342 -0.2750  0.8687
   66CHL1   H2B 7339   2.387   0.543  10.499 -2.1718 -1.3958 -0.4716
   66CHL1   C20 7340   2.458   0.662   9.542 -0.0220  0.1298  0.4568
   66CHL1   H20 7341   2.417   0.765   9.538  1.4253  0.7460  0.5654
   66CHL1   C21 7342   2.350   0.559   9.553 -0.6901 -0.2297  0.2102
   66CHL1  H21A 7343   2.324   0.542   9.660 -1.0599 -1.4193 -0.0577
   66CHL1  H21B 7344   2.366   0.466   9.495 -0.6668  1.3211 -2.4694
   66CHL1  H21C 7345   2.254   0.610   9.527 -1.0143  0.0896  1.9003
   66CHL1   C22 7346   2.522   0.635   9.398 -0.3548 -0.5506  0.2849
   66CHL1  H22A 7347   2.609   0.704   9.390  0.1412 -1.3573 -2.2339
   66CHL1  H22B 7348   2.555   0.530   9.388  3.2242  0.5302 -0.7789
   66CHL1   C23 7349   2.423   0.656   9.280  0.1324  0.2113 -0.4619
   66CHL1  H23A 7350   2.321   0.621   9.306  0.9633 -1.2917  0.9930
   66CHL1  H23B 7351   2.426   0.766   9.265  0.8675  0.6500  2.3629
   66CHL1   C24 7352   2.474   0.592   9.149 -0.1251  0.4477  0.2984
   66CHL1  H24A 7353   2.582   0.611   9.134 -0.5248  2.6178 -0.1381
   66CHL1  H24B 7354   2.483   0.486   9.180  0.3691  1.2167  3.0465
   66CHL1   C25 7355   2.403   0.622   9.023  0.5857  0.3535  0.1701
   66CHL1   H25 7356   2.395   0.732   9.010  0.4637  0.3247  0.0041
   66CHL1   C26 7357   2.485   0.573   8.902  0.1107  0.5346 -0.1125
   66CHL1  H26A 7358   2.441   0.604   8.805 -0.9867  0.8973  0.4815
   66CHL1  H26B 7359   2.591   0.604   8.908 -0.0060  0.8831  0.2382
   66CHL1  H26C 7360   2.496   0.463   8.897 -0.4471  0.5022 -0.6755
   66CHL1   C27 7361   2.265   0.563   9.021  0.1645  0.4032  0.1839
   66CHL1  H27A 7362   2.195   0.632   9.074 -0.2084 -0.8029  1.3030
   66CHL1  H27B 7363   2.237   0.568   8.913 -0.0757  4.9059  0.2393
   66CHL1  H27C 7364   2.272   0.468   9.077  1.0937  0.9795  1.0727
   67CHL1    C3 7365   3.185   1.859  10.202 -0.4397  0.2896  1.0104
   67CHL1    H3 7366   3.155   1.756  10.171  2.7051 -0.0744 -1.2814
   67CHL1    O3 7367   3.165   1.854  10.340  0.3930 -0.3709  0.2082
   67CHL1   H3' 7368   3.229   1.796  10.381 -1.4223 -1.8872  1.0521
   67CHL1    C4 7369   3.330   1.887  10.155 -0.5834 -0.0139  0.2789
   67CHL1   H4A 7370   3.346   1.985  10.205 -0.4757  0.6059 -0.9275
   67CHL1   H4B 7371   3.395   1.808  10.197  0.2996  0.3853 -0.3075
   67CHL1    C5 7372   3.358   1.897  10.003 -0.7636 -0.7988 -0.1144
   67CHL1    C6 7373   3.455   1.826   9.951  0.0604  0.0008 -0.3680
   67CHL1    H6 7374   3.512   1.763  10.021  0.4830 -1.5776 -2.0628
   67CHL1    C7 7375   3.477   1.828   9.800 -0.5484 -0.3342  0.2625
   67CHL1   H7A 7376   3.584   1.839   9.774 -0.5896 -0.5227  0.0112
   67CHL1   H7B 7377   3.435   1.736   9.754  3.1000 -0.7665 -2.6145
   67CHL1    C8 7378   3.397   1.948   9.729  0.5352 -0.1236 -0.0793
   67CHL1    H8 7379   3.452   2.043   9.742 -2.8366  2.0182 -0.2324
   67CHL1   C14 7380   3.387   1.908   9.578 -0.2476  0.4595  0.7286
   67CHL1   H14 7381   3.319   1.821   9.566  1.3333 -0.5184 -2.1318
   67CHL1   C15 7382   3.520   1.868   9.508  0.6635 -0.2280 -0.5047
   67CHL1  H15A 7383   3.591   1.952   9.526  1.2466 -0.9323  0.5636
   67CHL1  H15B 7384   3.549   1.767   9.542 -2.7107 -1.3356 -0.5840
   67CHL1   C16 7385   3.486   1.879   9.359 -0.1905  0.4827  0.2449
   67CHL1  H16A 7386   3.560   1.951   9.317  0.9656 -1.5025 -1.3372
   67CHL1  H16B 7387   3.485   1.788   9.294 -0.6972 -0.4157  1.4723
   67CHL1   C17 7388   3.343   1.933   9.347 -0.4952 -0.4108  0.2980
   67CHL1   H17 7389   3.268   1.851   9.340 -0.5386 -0.2860 -0.7416
   67CHL1   C13 7390   3.315   2.012   9.481 -0.0955  0.5085 -0.0886
   67CHL1   C18 7391   3.399   2.147   9.481 -0.0806  0.0366 -0.6397
   67CHL1  H18A 7392   3.337   2.218   9.422  0.2722  0.6269 -0.3090
   67CHL1  H18B 7393   3.411   2.177   9.587  1.0474  2.1034 -1.2837
   67CHL1  H18C 7394   3.500   2.137   9.436  0.9511  1.4498  1.2479
   67CHL1   C12 7395   3.179   2.018   9.533  0.0956  0.2892  0.7167
   67CHL1  H12A 7396   3.114   2.094   9.484  0.1527 -1.1827 -1.8397
   67CHL1  H12B 7397   3.133   1.920   9.506  0.7579 -0.0862  0.9294
   67CHL1   C11 7398   3.169   2.042   9.687  0.4511 -0.1736  0.0412
   67CHL1  H11A 7399   3.184   2.151   9.699 -2.1193  0.1548  0.7910
   67CHL1  H11B 7400   3.061   2.027   9.708  0.3600  0.3505 -0.0426
   67CHL1    C9 7401   3.256   1.951   9.775  0.2438 -0.1574  1.1405
   67CHL1    H9 7402   3.219   1.848   9.755  0.4989 -0.2479  1.1268
   67CHL1   C10 7403   3.250   1.982   9.923 -0.1234  0.0012 -0.3543
   67CHL1   C19 7404   3.288   2.131   9.950 -0.2516 -0.2325  0.2839
   67CHL1  H19A 7405   3.214   2.205   9.912  0.3768  0.4798  0.4186
   67CHL1  H19B 7406   3.292   2.142  10.060 -0.5790  2.1572  0.1089
   67CHL1  H19C 7407   3.391   2.156   9.917 -0.3442 -0.0770  0.1049
   67CHL1    C1 7408   3.110   1.969   9.978 -0.1081 -0.2029  0.1825
   67CHL1   H1A 7409   3.035   2.037   9.933 -0.3721 -0.5803  0.0438
   67CHL1   H1B 7410   3.077   1.868   9.945 -0.4513 -0.1645  0.4025
   67CHL1    C2 7411   3.100   1.967  10.133  0.0294  0.6075  0.4916
   67CHL1   H2A 7412   2.992   1.961  10.159 -0.4801  0.9204 -1.4153
   67CHL1   H2B 7413   3.123   2.068  10.174 -1.0597  0.4937  1.4410
   67CHL1   C20 7414   3.328   2.028   9.224 -0.6677  0.7130  0.5338
   67CHL1   H20 7415   3.394   2.115   9.239 -0.3600  0.1421  2.8203
   67CHL1   C21 7416   3.180   2.075   9.207 -0.7603 -0.1969  0.2299
   67CHL1  H21A 7417   3.170   2.105   9.100 -0.0688 -0.3903  0.1079
   67CHL1  H21B 7418   3.160   2.166   9.267 -1.2809  0.2538 -0.5942
   67CHL1  H21C 7419   3.104   1.996   9.227  0.6902 -1.5078  0.7171
   67CHL1   C22 7420   3.371   1.970   9.085 -0.0253  0.3944  0.6616
   67CHL1  H22A 7421   3.353   2.055   9.015  1.6001  0.2370  0.0017
   67CHL1  H22B 7422   3.479   1.947   9.073 -0.5342 -1.0961 -1.8510
   67CHL1   C23 7423   3.289   1.848   9.044 -0.2396  0.0434 -0.1699
   67CHL1  H23A 7424   3.264   1.784   9.132 -1.4288  0.5970 -0.0789
   67CHL1  H23B 7425   3.187   1.888   9.021 -0.1442  2.3465  2.7416
   67CHL1   C24 7426   3.353   1.765   8.927  0.3293 -0.4990  0.3117
   67CHL1  H24A 7427   3.451   1.733   8.970  1.7152 -0.4977 -2.5658
   67CHL1  H24B 7428   3.298   1.669   8.922  0.3840 -0.5483  0.6340
   67CHL1   C25 7429   3.357   1.818   8.784 -0.4233 -0.1441  0.2768
   67CHL1   H25 7430   3.417   1.911   8.785  2.8222 -2.0867  0.3689
   67CHL1   C26 7431   3.422   1.721   8.687 -0.1320  0.2137  0.2716
   67CHL1  H26A 7432   3.422   1.770   8.588 -0.1569  1.4531  0.8635
   67CHL1  H26B 7433   3.525   1.694   8.718 -0.0137 -0.9573 -1.0618
   67CHL1  H26C 7434   3.367   1.625   8.681 -1.5614  1.0216  0.0082
   67CHL1   C27 7435   3.212   1.860   8.740 -0.0571 -0.1024  0.0113
   67CHL1  H27A 7436   3.160   1.936   8.803  0.4408  0.0343  0.2672
   67CHL1  H27B 7437   3.229   1.893   8.635  2.7183 -0.5881  0.2293
   67CHL1  H27C 7438   3.154   1.766   8.742 -0.3857  0.1077  1.5752
   68CHL1    C3 7439   4.953   0.087   9.976  0.4120 -0.3242  0.3509
   68CHL1    H3 7440   5.012   0.014   9.916  0.8095 -0.3089  0.7215
   68CHL1    O3 7441   5.001   0.080  10.111 -0.1412 -0.0479 -0.0177
   68CHL1   H3' 7442   5.000  -0.014  10.133  1.1860  0.1805  1.1431
   68CHL1    C4 7443   4.972   0.237   9.931  0.5975  0.1448  0.4217
   68CHL1   H4A 7444   4.920   0.301  10.006 -1.9538 -2.2077  0.8529
   68CHL1   H4B 7445   5.082   0.252   9.932  0.5716  0.3188  1.2154
   68CHL1    C5 7446   4.904   0.252   9.793 -0.4820  0.4191 -0.1403
   68CHL1    C6 7447   4.971   0.317   9.700  0.4639 -0.8085  0.1010
   68CHL1    H6 7448   5.073   0.355   9.719  0.4948  0.1259 -1.8059
   68CHL1    C7 7449   4.920   0.350   9.565  0.4456 -0.2598  0.3321
   68CHL1   H7A 7450   4.954   0.450   9.529  1.0778  0.2301  2.2007
   68CHL1   H7B 7451   4.964   0.277   9.493 -0.3624 -0.9652  0.5399
   68CHL1    C8 7452   4.771   0.333   9.550 -0.5666  0.2153  0.3049
   68CHL1    H8 7453   4.736   0.428   9.596  1.7439  0.4694  1.6578
   68CHL1   C14 7454   4.731   0.317   9.404 -0.3290  0.0360 -0.4569
   68CHL1   H14 7455   4.770   0.217   9.373  1.7076  0.9451 -0.9827
   68CHL1   C15 7456   4.785   0.426   9.304 -0.3835  0.5865 -0.4475
   68CHL1  H15A 7457   4.807   0.525   9.350 -0.6514 -0.9056  3.3383
   68CHL1  H15B 7458   4.883   0.385   9.270 -1.0073 -1.7919  0.4234
   68CHL1   C16 7459   4.694   0.404   9.178 -0.7530  0.7712 -0.5946
   68CHL1  H16A 7460   4.653   0.504   9.154  1.8207  2.0752  0.1300
   68CHL1  H16B 7461   4.747   0.364   9.089 -2.1927 -1.7348 -0.4368
   68CHL1   C17 7462   4.586   0.294   9.213  0.5631  0.5472 -0.5969
   68CHL1   H17 7463   4.628   0.194   9.190 -1.3595 -0.4698  0.0739
   68CHL1   C13 7464   4.576   0.303   9.366 -0.1646 -0.0705 -0.5957
   68CHL1   C18 7465   4.510   0.438   9.410  0.7069  0.0073 -0.3892
   68CHL1  H18A 7466   4.561   0.531   9.378 -1.4659  0.7792 -1.8192
   68CHL1  H18B 7467   4.402   0.441   9.387  0.0310  0.4597  2.4186
   68CHL1  H18C 7468   4.507   0.435   9.521  0.1286  1.4293 -0.3398
   68CHL1   C12 7469   4.529   0.177   9.448 -0.4619  0.3068 -0.2522
   68CHL1  H12A 7470   4.422   0.148   9.437 -0.4330  0.1984 -0.2573
   68CHL1  H12B 7471   4.570   0.085   9.399  1.9050  0.6902  0.8758
   68CHL1   C11 7472   4.562   0.189   9.599 -1.4155 -0.6203  0.1494
   68CHL1  H11A 7473   4.516   0.279   9.646  0.0459  0.5585 -0.5954
   68CHL1  H11B 7474   4.522   0.106   9.662 -1.6253  0.2202  1.1570
   68CHL1    C9 7475   4.718   0.213   9.627  0.8122 -0.0415  0.3822
   68CHL1    H9 7476   4.769   0.128   9.577  0.8938  0.1378  0.1599
   68CHL1   C10 7477   4.759   0.209   9.780 -0.1456 -0.0402 -0.3560
   68CHL1   C19 7478   4.663   0.305   9.857 -1.1715 -0.1065 -0.3624
   68CHL1  H19A 7479   4.705   0.330   9.957 -1.7334  2.7510 -0.7485
   68CHL1  H19B 7480   4.656   0.411   9.823  0.7339  0.7079  1.5436
   68CHL1  H19C 7481   4.566   0.254   9.868 -2.0260  0.9539 -2.3866
   68CHL1    C1 7482   4.753   0.061   9.843 -0.0671 -0.3310  0.2067
   68CHL1   H1A 7483   4.650   0.020   9.840 -0.5592  0.8571  0.3287
   68CHL1   H1B 7484   4.802  -0.007   9.770 -0.5860  1.6629 -2.0954
   68CHL1    C2 7485   4.810   0.044   9.982 -0.0156  0.4041  0.0053
   68CHL1   H2A 7486   4.798  -0.060  10.020 -1.8602  0.1857 -1.0083
   68CHL1   H2B 7487   4.755   0.111  10.052  1.3558  1.0684  0.4700
   68CHL1   C20 7488   4.457   0.313   9.132  0.3874 -0.4773  0.6877
   68CHL1   H20 7489   4.427   0.417   9.154 -0.8706 -1.1324  2.2457
   68CHL1   C21 7490   4.352   0.209   9.180 -0.3850 -0.4768 -0.3929
   68CHL1  H21A 7491   4.399   0.109   9.190  1.3019 -0.0124 -2.7251
   68CHL1  H21B 7492   4.260   0.203   9.117 -0.6762 -2.4276  0.1445
   68CHL1  H21C 7493   4.318   0.246   9.279 -0.4032 -1.6463  0.0524
   68CHL1   C22 7494   4.469   0.299   8.978 -0.2981 -0.3265 -0.6584
   68CHL1  H22A 7495   4.369   0.317   8.933 -1.2944 -1.8580  0.8175
   68CHL1  H22B 7496   4.544   0.371   8.938  0.1745 -0.2064  0.4096
   68CHL1   C23 7497   4.520   0.162   8.917  0.0310  0.3590 -0.0462
   68CHL1  H23A 7498   4.618   0.125   8.953  2.1582  2.8176 -2.8306
   68CHL1  H23B 7499   4.462   0.072   8.945  2.5475 -1.4067 -0.1801
   68CHL1   C24 7500   4.502   0.169   8.765 -0.4591 -0.4218  0.1034
   68CHL1  H24A 7501   4.400   0.208   8.748  1.2255  5.1203  0.8658
   68CHL1  H24B 7502   4.560   0.251   8.718  0.4945 -1.3921 -0.4479
   68CHL1   C25 7503   4.524   0.035   8.685 -0.9295 -0.0648  0.0055
   68CHL1   H25 7504   4.465  -0.039   8.742  0.8224  1.2560  3.8491
   68CHL1   C26 7505   4.478   0.038   8.536 -0.0009  0.2562 -0.3299
   68CHL1  H26A 7506   4.376   0.073   8.510  0.5175  1.7302 -0.4549
   68CHL1  H26B 7507   4.544   0.105   8.477  0.4548 -1.4569 -1.8428
   68CHL1  H26C 7508   4.493  -0.064   8.494 -1.6824 -0.7359  1.2880
   68CHL1   C27 7509   4.676  -0.012   8.687 -0.5580  0.5445  0.0544
   68CHL1  H27A 7510   4.738   0.055   8.624 -1.1826  0.1111 -1.0659
   68CHL1  H27B 7511   4.716  -0.006   8.790 -0.3099  0.9028 -0.0613
   68CHL1  H27C 7512   4.674  -0.116   8.648 -2.9752 -0.6848  3.0607
   69CHL1    C3 7513   6.472   4.255   6.753  0.1238  0.1665  0.4348
   69CHL1    H3 7514   6.407   4.343   6.773  0.1892  0.2050  0.4782
   69CHL1    O3 7515   6.513   4.261   6.617  0.1896  0.6034  0.0241
   69CHL1   H3' 7516   6.598   4.305   6.624  1.7599 -2.0238 -1.0363
   69CHL1    C4 7517   6.601   4.257   6.851  0.7546  0.4761  0.3148
   69CHL1   H4A 7518   6.665   4.176   6.811  1.5097 -0.1203  2.6242
   69CHL1   H4B 7519   6.663   4.347   6.831 -0.7583  2.1462  2.6063
   69CHL1    C5 7520   6.579   4.233   6.998  0.0067  0.6569  0.4513
   69CHL1    C6 7521   6.621   4.309   7.097  0.0586 -0.7035 -0.7045
   69CHL1    H6 7522   6.686   4.395   7.076  0.9127 -1.0121  0.6164
   69CHL1    C7 7523   6.601   4.272   7.240  0.2650  0.7695  0.3860
   69CHL1   H7A 7524   6.696   4.282   7.297  0.5662  1.6343 -0.2585
   69CHL1   H7B 7525   6.527   4.347   7.276 -0.5793  0.3876 -0.5230
   69CHL1    C8 7526   6.544   4.121   7.266  0.0093 -0.2645 -0.3019
   69CHL1    H8 7527   6.640   4.065   7.256  2.0068  2.7302  0.6385
   69CHL1   C14 7528   6.479   4.113   7.407 -0.1930  0.7573 -0.1477
   69CHL1   H14 7529   6.397   4.187   7.401  0.2858  1.4213  1.0663
   69CHL1   C15 7530   6.564   4.165   7.526 -0.0030  0.3224  0.2102
   69CHL1  H15A 7531   6.667   4.124   7.522  0.6024  1.8827 -1.4608
   69CHL1  H15B 7532   6.566   4.276   7.528 -2.5443  0.4178  1.5461
   69CHL1   C16 7533   6.486   4.113   7.649  0.0654 -0.1563 -0.2356
   69CHL1  H16A 7534   6.556   4.069   7.723 -0.3100  0.5505  0.5582
   69CHL1  H16B 7535   6.438   4.195   7.707 -0.0422 -0.4475  0.0897
   69CHL1   C17 7536   6.372   4.022   7.592 -0.0281  0.3166 -0.3650
   69CHL1   H17 7537   6.290   4.093   7.568 -0.7642 -0.0170  1.0737
   69CHL1   C13 7538   6.423   3.980   7.447  0.3480  0.0767  0.3525
   69CHL1   C18 7539   6.532   3.883   7.462 -0.2730  0.2997  0.2728
   69CHL1  H18A 7540   6.603   3.912   7.543 -0.1997  0.3543  0.1883
   69CHL1  H18B 7541   6.488   3.784   7.484 -0.9425  0.6708  0.6674
   69CHL1  H18C 7542   6.588   3.881   7.367 -2.2178  0.0241 -0.9162
   69CHL1   C12 7543   6.320   3.941   7.347  0.6882 -0.0093 -0.2210
   69CHL1  H12A 7544   6.281   3.837   7.345 -1.8085  0.8305  1.2488
   69CHL1  H12B 7545   6.238   4.015   7.349 -0.5945 -1.3352 -1.5489
   69CHL1   C11 7546   6.372   3.949   7.202  0.5591  0.0855 -0.0393
   69CHL1  H11A 7547   6.441   3.863   7.188  0.2558  0.0602 -1.5085
   69CHL1  H11B 7548   6.283   3.932   7.138 -0.0178  2.9839 -0.1742
   69CHL1    C9 7549   6.439   4.081   7.169  0.6058  0.3676 -0.4148
   69CHL1    H9 7550   6.360   4.157   7.183 -0.6861 -1.0972  0.5968
   69CHL1   C10 7551   6.493   4.102   7.027 -0.3206 -0.8015 -0.1733
   69CHL1   C19 7552   6.562   3.973   6.995 -0.0645  0.2784  0.1887
   69CHL1  H19A 7553   6.621   3.964   6.901 -0.1654 -1.7792  0.2759
   69CHL1  H19B 7554   6.635   3.936   7.069  0.2400  1.8559  0.7035
   69CHL1  H19C 7555   6.488   3.890   6.986  0.8664 -0.6757  1.0281
   69CHL1    C1 7556   6.364   4.127   6.939 -0.5209  0.3586  0.3870
   69CHL1   H1A 7557   6.291   4.048   6.969 -0.5366  0.4092  0.4841
   69CHL1   H1B 7558   6.313   4.222   6.964  0.8689  1.2770 -0.1799
   69CHL1    C2 7559   6.387   4.129   6.789  0.2828 -0.6576  0.3370
   69CHL1   H2A 7560   6.289   4.136   6.739 -1.1686 -0.2614  3.0745
   69CHL1   H2B 7561   6.434   4.036   6.749 -1.2194 -0.8589 -1.0364
   69CHL1   C20 7562   6.323   3.913   7.689 -0.1089  0.4020  0.9051
   69CHL1   H20 7563   6.413   3.850   7.703  1.4103  2.4520  0.7564
   69CHL1   C21 7564   6.205   3.834   7.631  0.5856 -0.5057  0.5161
   69CHL1  H21A 7565   6.167   3.762   7.707 -1.2156  1.2659  1.4088
   69CHL1  H21B 7566   6.229   3.778   7.538 -3.8216 -1.4810 -0.2641
   69CHL1  H21C 7567   6.116   3.898   7.613 -0.0066 -1.2807  0.6482
   69CHL1   C22 7568   6.289   3.973   7.824 -0.8285 -0.5978  1.1281
   69CHL1  H22A 7569   6.363   4.050   7.854 -1.3354 -0.5003  2.1790
   69CHL1  H22B 7570   6.193   4.024   7.803 -0.3226  0.3602  1.0970
   69CHL1   C23 7571   6.276   3.880   7.938 -0.9230  0.0603  0.2669
   69CHL1  H23A 7572   6.195   3.809   7.910 -0.9308  0.5123 -0.8991
   69CHL1  H23B 7573   6.368   3.819   7.936 -0.2752  0.9944  0.6464
   69CHL1   C24 7574   6.238   3.952   8.066  0.9218 -0.4449 -0.4500
   69CHL1  H24A 7575   6.309   4.032   8.095 -1.0418  0.7486  1.4361
   69CHL1  H24B 7576   6.143   4.006   8.047  1.8780  0.6988 -2.1903
   69CHL1   C25 7577   6.218   3.861   8.191 -0.4034 -0.6633 -0.3798
   69CHL1   H25 7578   6.310   3.803   8.210 -0.5728 -1.2822 -1.3845
   69CHL1   C26 7579   6.204   3.955   8.316 -0.1479  0.6833 -0.3171
   69CHL1  H26A 7580   6.122   4.030   8.314  0.5043  1.4821  1.1538
   69CHL1  H26B 7581   6.181   3.883   8.399  2.9082  0.2745  0.2797
   69CHL1  H26C 7582   6.294   4.012   8.348  0.0802  1.0710 -1.6144
   69CHL1   C27 7583   6.104   3.765   8.178  0.0401  0.0469  0.3639
   69CHL1  H27A 7584   6.016   3.812   8.130 -0.6170  1.6638  2.9482
   69CHL1  H27B 7585   6.148   3.683   8.117  0.9154  0.7858 -0.0238
   69CHL1  H27C 7586   6.065   3.716   8.269 -1.7585  0.7463  0.0029
   70CHL1    C3 7587   0.811   4.089   6.934  0.3805  0.2147 -0.4939
   70CHL1    H3 7588   0.909   4.136   6.958  0.8069 -0.8430 -0.1198
   70CHL1    O3 7589   0.821   4.065   6.798  0.0213  0.3235  0.3065
   70CHL1   H3' 7590   0.745   4.014   6.768 -0.1062  0.3441  0.5948
   70CHL1    C4 7591   0.817   3.957   7.014 -0.5347  0.7750 -0.7184
   70CHL1   H4A 7592   0.732   3.891   6.988  0.5525 -0.7929 -0.4069
   70CHL1   H4B 7593   0.908   3.895   7.008 -0.1771  1.1082  0.7654
   70CHL1    C5 7594   0.800   3.981   7.162  0.4569  0.1519 -1.0604
   70CHL1    C6 7595   0.891   3.938   7.260  0.5391 -0.1362 -0.1631
   70CHL1    H6 7596   0.982   3.888   7.224  0.4462  1.4458 -2.8482
   70CHL1    C7 7597   0.868   3.954   7.406 -0.8890 -0.3839 -0.5442
   70CHL1   H7A 7598   0.889   3.857   7.457 -0.0224 -1.3147 -2.5490
   70CHL1   H7B 7599   0.955   4.018   7.432  0.0166 -1.8852  0.2385
   70CHL1    C8 7600   0.737   4.020   7.452 -0.2047  0.3879  0.7532
   70CHL1    H8 7601   0.658   3.944   7.438  0.2460  0.2546 -1.4672
   70CHL1   C14 7602   0.744   4.073   7.597  0.3326  0.3411  0.2114
   70CHL1   H14 7603   0.820   4.154   7.586  2.5674 -1.7611 -0.7780
   70CHL1   C15 7604   0.792   3.977   7.704 -0.0182  0.7132  0.2444
   70CHL1  H15A 7605   0.740   3.879   7.701 -2.6626  2.0621 -2.1540
   70CHL1  H15B 7606   0.901   3.951   7.704 -0.0035  0.6788  1.7986
   70CHL1   C16 7607   0.758   4.054   7.831  0.3543  0.2314 -0.0564
   70CHL1  H16A 7608   0.716   3.994   7.915 -0.1875  0.4418 -0.1753
   70CHL1  H16B 7609   0.847   4.104   7.875 -1.4154  2.5913  1.0853
   70CHL1   C17 7610   0.666   4.175   7.794 -0.2691 -0.2964 -0.1094
   70CHL1   H17 7611   0.730   4.265   7.780  0.7741 -1.3468 -2.5602
   70CHL1   C13 7612   0.616   4.132   7.659  0.3835 -0.3984  0.0736
   70CHL1   C18 7613   0.504   4.025   7.672 -0.4731 -0.4609 -0.3467
   70CHL1  H18A 7614   0.471   3.992   7.571 -0.0202  0.6815 -0.8884
   70CHL1  H18B 7615   0.539   3.937   7.729  0.8416 -0.7193 -1.5163
   70CHL1  H18C 7616   0.420   4.079   7.722  0.6816  1.8936 -0.8133
   70CHL1   C12 7617   0.583   4.250   7.560 -0.0934  0.0239  0.1761
   70CHL1  H12A 7618   0.490   4.308   7.577  1.0762  1.6457  1.4221
   70CHL1  H12B 7619   0.668   4.322   7.553  1.1362 -1.4092 -0.2533
   70CHL1   C11 7620   0.563   4.196   7.413  0.4644 -0.0713  0.7558
   70CHL1  H11A 7621   0.476   4.128   7.426 -0.0408  0.4981  0.4195
   70CHL1  H11B 7622   0.535   4.285   7.353 -0.3317 -2.0117 -1.9268
   70CHL1    C9 7623   0.692   4.125   7.358 -0.4929 -0.0197  0.5905
   70CHL1    H9 7624   0.774   4.200   7.352  2.0672 -2.7358 -1.3710
   70CHL1   C10 7625   0.677   4.071   7.207 -0.4025  0.1901 -0.5074
   70CHL1   C19 7626   0.549   3.983   7.193  0.4361  0.5639 -0.5137
   70CHL1  H19A 7627   0.535   3.906   7.272 -0.5102  0.9345 -0.3074
   70CHL1  H19B 7628   0.459   4.048   7.202 -1.0118 -1.3890 -0.2193
   70CHL1  H19C 7629   0.533   3.942   7.090 -1.4433 -1.5047  0.5113
   70CHL1    C1 7630   0.676   4.200   7.121  0.1906 -0.2775 -0.0008
   70CHL1   H1A 7631   0.579   4.253   7.138 -0.5037 -1.3693 -0.4469
   70CHL1   H1B 7632   0.764   4.261   7.149  1.6781 -2.6112  0.6627
   70CHL1    C2 7633   0.688   4.176   6.968 -1.0016  0.7096  0.3782
   70CHL1   H2A 7634   0.705   4.271   6.913 -1.2926  1.7579  2.0045
   70CHL1   H2B 7635   0.601   4.123   6.923 -2.3931  2.7856  0.4430
   70CHL1   C20 7636   0.560   4.204   7.907 -0.7567  0.2895  0.3567
   70CHL1   H20 7637   0.508   4.116   7.949 -2.0231  0.8219 -0.0413
   70CHL1   C21 7638   0.461   4.317   7.856  0.1728 -0.0325 -0.2099
   70CHL1  H21A 7639   0.391   4.354   7.933  1.5955  1.4434  0.4467
   70CHL1  H21B 7640   0.406   4.279   7.768  0.7105 -1.3238 -0.0069
   70CHL1  H21C 7641   0.527   4.401   7.822 -1.2193  0.2843 -2.3330
   70CHL1   C22 7642   0.626   4.258   8.040 -0.0937  0.1601  0.6502
   70CHL1  H22A 7643   0.707   4.189   8.072  0.5991  0.1751 -0.9610
   70CHL1  H22B 7644   0.682   4.350   8.012 -1.2501  0.5806 -0.3535
   70CHL1   C23 7645   0.528   4.284   8.156 -0.5306  0.3903  0.7506
   70CHL1  H23A 7646   0.434   4.333   8.123 -0.0355 -0.1249 -1.6329
   70CHL1  H23B 7647   0.499   4.181   8.188 -2.2136  1.1441  1.7986
   70CHL1   C24 7648   0.596   4.357   8.266 -0.3586  0.0637  0.4929
   70CHL1  H24A 7649   0.684   4.298   8.299  0.8404  0.9154 -1.0129
   70CHL1  H24B 7650   0.646   4.445   8.219  2.4333 -0.7818  1.6420
   70CHL1   C25 7651   0.498   4.400   8.376 -0.1656  0.1301 -0.2617
   70CHL1   H25 7652   0.413   4.452   8.325 -2.3878 -0.6824  2.3479
   70CHL1   C26 7653   0.441   4.286   8.468 -0.9351  0.9174  0.0380
   70CHL1  H26A 7654   0.385   4.218   8.400  2.4620 -0.0891 -1.9994
   70CHL1  H26B 7655   0.524   4.233   8.518 -0.0876 -0.3070 -2.5226
   70CHL1  H26C 7656   0.366   4.328   8.539 -2.9096  2.0404 -2.5368
   70CHL1   C27 7657   0.563   4.502   8.465 -0.1013  0.0817 -0.9487
   70CHL1  H27A 7658   0.589   4.589   8.401 -0.9888 -0.0354 -1.4740
   70CHL1  H27B 7659   0.488   4.522   8.544  0.7769  1.1422 -0.3487
   70CHL1  H27C 7660   0.650   4.473   8.528 -2.6169  1.2235  3.5261
   71CHL1    C3 7661   1.592   0.910   6.855 -0.3289  0.1719  0.3616
   71CHL1    H3 7662   1.684   0.953   6.899  0.2903 -1.5754  0.8383
   71CHL1    O3 7663   1.593   0.963   6.722 -0.0798  0.4279 -0.0665
   71CHL1   H3' 7664   1.527   0.916   6.672  0.5915  0.1241 -0.6844
   71CHL1    C4 7665   1.586   0.760   6.856 -0.3758  0.7893 -0.3137
   71CHL1   H4A 7666   1.508   0.723   6.786 -0.3134 -1.0867  0.5426
   71CHL1   H4B 7667   1.673   0.705   6.815 -0.0178 -1.2790  2.8316
   71CHL1    C5 7668   1.576   0.704   6.999 -0.7247  0.3560  0.6927
   71CHL1    C6 7669   1.666   0.615   7.042 -0.4809  0.1700 -0.1527
   71CHL1    H6 7670   1.746   0.571   6.981  1.4390  0.8917  1.7289
   71CHL1    C7 7671   1.659   0.564   7.183 -0.6501 -0.0662  0.3781
   71CHL1   H7A 7672   1.698   0.460   7.182  1.2968  0.5906  1.6890
   71CHL1   H7B 7673   1.725   0.623   7.251 -1.1790  1.3676 -0.2984
   71CHL1    C8 7674   1.524   0.576   7.249  0.0823 -0.7942 -0.4996
   71CHL1    H8 7675   1.457   0.501   7.202  0.0763 -0.8693 -0.3718
   71CHL1   C14 7676   1.542   0.558   7.400  0.3542 -0.1129  0.0893
   71CHL1   H14 7677   1.597   0.648   7.437 -1.6532  0.6311  1.4129
   71CHL1   C15 7678   1.624   0.440   7.454  0.1273  0.5006  0.0898
   71CHL1  H15A 7679   1.609   0.345   7.398 -1.6550  0.0504  1.2425
   71CHL1  H15B 7680   1.731   0.468   7.440  0.4673 -0.6830  0.2175
   71CHL1   C16 7681   1.574   0.434   7.595  0.1340 -0.1196  0.4537
   71CHL1  H16A 7682   1.543   0.328   7.606 -1.5863  0.4398  1.5309
   71CHL1  H16B 7683   1.657   0.451   7.667  0.3076  1.6466 -0.1273
   71CHL1   C17 7684   1.460   0.530   7.618  0.5543 -0.4287 -0.1044
   71CHL1   H17 7685   1.509   0.623   7.654  1.0249 -1.6346  2.5679
   71CHL1   C13 7686   1.406   0.563   7.475  0.4130 -0.2419 -0.0560
   71CHL1   C18 7687   1.314   0.460   7.427  0.2194  0.0494 -0.3467
   71CHL1  H18A 7688   1.290   0.477   7.320  1.5869  1.3938 -0.4731
   71CHL1  H18B 7689   1.351   0.355   7.436 -1.6693 -0.5606  1.1218
   71CHL1  H18C 7690   1.213   0.461   7.472  1.2140  2.7414  2.2099
   71CHL1   C12 7691   1.346   0.707   7.453  0.2340  0.2654 -0.1497
   71CHL1  H12A 7692   1.244   0.717   7.495  0.4324  0.5874  0.2638
   71CHL1  H12B 7693   1.409   0.778   7.510 -1.8454 -0.0050  2.7079
   71CHL1   C11 7694   1.335   0.750   7.306  0.4217 -0.4701  0.1281
   71CHL1  H11A 7695   1.244   0.710   7.258  0.3725  0.6312 -0.7511
   71CHL1  H11B 7696   1.334   0.861   7.317  0.1205 -0.6549  2.5475
   71CHL1    C9 7697   1.463   0.720   7.230 -0.7189  0.0198 -0.2461
   71CHL1    H9 7698   1.546   0.783   7.271 -0.3953  0.1703 -1.1073
   71CHL1   C10 7699   1.458   0.762   7.080 -0.4341 -0.0823  0.1437
   71CHL1   C19 7700   1.333   0.699   7.016 -0.1577  0.4052 -0.6518
   71CHL1  H19A 7701   1.303   0.711   6.909 -4.9274  0.8763  0.5089
   71CHL1  H19B 7702   1.326   0.590   7.039 -1.6330 -0.3449 -4.0160
   71CHL1  H19C 7703   1.252   0.757   7.066 -1.5690 -1.3296 -0.8193
   71CHL1    C1 7704   1.450   0.916   7.068 -0.0813  0.4635  0.4762
   71CHL1   H1A 7705   1.355   0.960   7.105 -0.7548 -2.3426  2.3270
   71CHL1   H1B 7706   1.532   0.960   7.129 -0.5919  1.7869  0.2484
   71CHL1    C2 7707   1.464   0.969   6.929 -0.0297  0.1729  0.9179
   71CHL1   H2A 7708   1.466   1.080   6.924 -1.9572  0.2347  0.4149
   71CHL1   H2B 7709   1.379   0.936   6.865  0.4857  1.6481 -0.6123
   71CHL1   C20 7710   1.365   0.477   7.723  0.6362  0.4613  0.5010
   71CHL1   H20 7711   1.328   0.377   7.690 -0.7432  1.1927 -0.2752
   71CHL1   C21 7712   1.237   0.567   7.743 -0.3937 -0.4443  0.3382
   71CHL1  H21A 7713   1.269   0.668   7.778  0.7116 -0.5769 -0.2397
   71CHL1  H21B 7714   1.161   0.527   7.814 -0.3978 -2.5176 -0.7617
   71CHL1  H21C 7715   1.188   0.580   7.645  1.2742  2.3010 -0.2343
   71CHL1   C22 7716   1.437   0.465   7.861 -0.6067  0.5229 -0.0999
   71CHL1  H22A 7717   1.528   0.402   7.851 -1.2809 -0.4748 -0.1965
   71CHL1  H22B 7718   1.460   0.568   7.894  3.8109 -0.4180  0.3939
   71CHL1   C23 7719   1.352   0.393   7.970  0.1755  1.1001  0.2690
   71CHL1  H23A 7720   1.258   0.452   7.983 -1.4789 -1.2699 -0.2431
   71CHL1  H23B 7721   1.316   0.299   7.923  0.5809  1.1185 -0.0817
   71CHL1   C24 7722   1.413   0.377   8.110 -0.7756 -0.3319 -0.0824
   71CHL1  H24A 7723   1.507   0.320   8.095 -1.0095 -0.9738  0.8634
   71CHL1  H24B 7724   1.437   0.484   8.128 -2.9129  0.2234 -0.2957
   71CHL1   C25 7725   1.323   0.311   8.217  0.9210  0.2850  0.4408
   71CHL1   H25 7726   1.235   0.378   8.224  1.4934  1.4702 -2.4816
   71CHL1   C26 7727   1.269   0.177   8.172  0.9421  0.4008  0.7265
   71CHL1  H26A 7728   1.208   0.120   8.246 -0.5264  0.5205 -0.3415
   71CHL1  H26B 7729   1.219   0.169   8.073  2.1760 -2.2344  0.2156
   71CHL1  H26C 7730   1.348   0.100   8.159 -0.1120 -1.0283  2.2692
   71CHL1   C27 7731   1.391   0.288   8.355 -0.3969  0.1102  0.0805
   71CHL1  H27A 7732   1.436   0.385   8.384  0.6247 -0.2781 -0.1509
   71CHL1  H27B 7733   1.316   0.253   8.430  0.1167  0.3137  0.7051
   71CHL1  H27C 7734   1.471   0.211   8.349 -0.7788 -0.2665 -0.1968
   72CHL1    C3 7735   2.339   4.688   7.222 -0.2330  0.0574 -0.1661
   72CHL1    H3 7736   2.291   4.782   7.255 -0.5260 -0.8377  2.0976
   72CHL1    O3 7737   2.340   4.679   7.080  0.1977  0.0725  0.0008
   72CHL1   H3' 7738   2.344   4.769   7.045 -0.7764  1.4061  2.9724
   72CHL1    C4 7739   2.477   4.696   7.281  0.3782 -0.0626  0.2411
   72CHL1   H4A 7740   2.538   4.616   7.234  1.4932  1.4026 -0.9146
   72CHL1   H4B 7741   2.532   4.787   7.247  1.2573 -0.7708 -0.2678
   72CHL1    C5 7742   2.496   4.684   7.428 -0.3528 -0.5682 -0.2424
   72CHL1    C6 7743   2.566   4.771   7.498 -1.0482 -0.4441 -0.0378
   72CHL1    H6 7744   2.628   4.844   7.443 -0.1203 -0.5493  0.8341
   72CHL1    C7 7745   2.606   4.744   7.640  0.4801  0.5278 -0.3382
   72CHL1   H7A 7746   2.715   4.729   7.652  0.5749  1.8738  0.7943
   72CHL1   H7B 7747   2.584   4.836   7.699  1.2653  0.8785 -0.5893
   72CHL1    C8 7748   2.544   4.615   7.709 -0.9760  0.0936  0.4015
   72CHL1    H8 7749   2.616   4.532   7.692 -2.1066 -0.7956 -0.2211
   72CHL1   C14 7750   2.531   4.646   7.855  0.3991  0.5634  0.6393
   72CHL1   H14 7751   2.455   4.727   7.862 -1.0051 -0.8228  2.1801
   72CHL1   C15 7752   2.654   4.686   7.939  0.4198 -0.2760 -0.2498
   72CHL1  H15A 7753   2.740   4.630   7.898  1.8469  1.3642  0.3658
   72CHL1  H15B 7754   2.672   4.796   7.931  0.2307 -0.1721  0.6328
   72CHL1   C16 7755   2.623   4.633   8.083 -0.1225 -0.7409  0.0015
   72CHL1  H16A 7756   2.688   4.546   8.109 -2.5747 -2.0547  2.0807
   72CHL1  H16B 7757   2.633   4.711   8.162  0.3961 -0.9101  0.1117
   72CHL1   C17 7758   2.485   4.581   8.077  0.1686  0.0112  0.2279
   72CHL1   H17 7759   2.435   4.681   8.070  4.2524  2.3109  0.7982
   72CHL1   C13 7760   2.467   4.524   7.934  0.6634  0.9009  0.3098
   72CHL1   C18 7761   2.556   4.397   7.913 -0.2259  0.0955 -0.5272
   72CHL1  H18A 7762   2.501   4.310   7.955 -0.7677  0.3946 -0.6103
   72CHL1  H18B 7763   2.575   4.370   7.807  1.2304  1.6806 -0.7358
   72CHL1  H18C 7764   2.650   4.416   7.969  0.5939  0.2399 -1.9084
   72CHL1   C12 7765   2.331   4.501   7.870 -0.0130  0.4276  0.6087
   72CHL1  H12A 7766   2.294   4.404   7.910 -0.5095  0.1747 -0.4399
   72CHL1  H12B 7767   2.246   4.568   7.896 -1.6305 -0.7165 -1.3890
   72CHL1   C11 7768   2.330   4.478   7.719  0.0272 -0.0839 -0.1305
   72CHL1  H11A 7769   2.377   4.378   7.711  0.2063  0.1031 -1.7180
   72CHL1  H11B 7770   2.227   4.470   7.680 -0.6415 -0.4686  1.5955
   72CHL1    C9 7771   2.411   4.583   7.641  0.0103 -0.3028 -0.0646
   72CHL1    H9 7772   2.346   4.672   7.657  1.5378  0.4481  2.7903
   72CHL1   C10 7773   2.411   4.567   7.487 -0.3028 -1.3318  0.0170
   72CHL1   C19 7774   2.481   4.435   7.459 -0.2172  0.1138  0.1921
   72CHL1  H19A 7775   2.413   4.354   7.493 -0.2541  0.4298  0.8715
   72CHL1  H19B 7776   2.516   4.420   7.354  0.0610 -1.3831  0.4731
   72CHL1  H19C 7777   2.566   4.422   7.529 -1.0310 -0.7537  1.0455
   72CHL1    C1 7778   2.259   4.567   7.431 -0.3256 -0.0987 -0.1073
   72CHL1   H1A 7779   2.202   4.480   7.470  0.9386 -0.7301  0.3934
   72CHL1   H1B 7780   2.215   4.665   7.462  1.1222  0.6970 -0.4663
   72CHL1    C2 7781   2.253   4.569   7.275 -1.0471 -0.1615  0.0541
   72CHL1   H2A 7782   2.155   4.567   7.224 -1.0396  1.1072 -0.0601
   72CHL1   H2B 7783   2.302   4.475   7.241 -0.3971 -0.0547  0.6657
   72CHL1   C20 7784   2.440   4.499   8.199  0.3695 -0.0453  0.0196
   72CHL1   H20 7785   2.484   4.397   8.190 -2.1694 -1.0859 -2.5006
   72CHL1   C21 7786   2.293   4.484   8.201  0.6176 -0.8224  0.3762
   72CHL1  H21A 7787   2.257   4.398   8.262 -2.2284  0.2010  0.3156
   72CHL1  H21B 7788   2.260   4.453   8.099  0.1522  0.5387  0.0955
   72CHL1  H21C 7789   2.237   4.575   8.230 -1.5331 -0.4533 -4.0017
   72CHL1   C22 7790   2.487   4.551   8.337  0.3585 -0.2945 -0.3937
   72CHL1  H22A 7791   2.458   4.476   8.414 -1.1000 -0.2910 -0.9079
   72CHL1  H22B 7792   2.598   4.537   8.332  0.4921  0.3081  0.7143
   72CHL1   C23 7793   2.444   4.698   8.375  0.0576  1.2822  0.0204
   72CHL1  H23A 7794   2.492   4.779   8.318 -0.8596  1.0839 -1.0702
   72CHL1  H23B 7795   2.334   4.708   8.365  0.0600  2.2433  0.7882
   72CHL1   C24 7796   2.473   4.721   8.528  0.6838 -0.6615 -0.1523
   72CHL1  H24A 7797   2.405   4.653   8.582 -1.4730 -1.9246 -4.0674
   72CHL1  H24B 7798   2.575   4.682   8.547  0.0544 -1.6759  1.2830
   72CHL1   C25 7799   2.454   4.869   8.576  0.0091 -0.0731 -0.1364
   72CHL1   H25 7800   2.367   4.918   8.527 -1.0520 -0.5341  1.2203
   72CHL1   C26 7801   2.434   4.864   8.723  0.6269 -0.4028 -0.1189
   72CHL1  H26A 7802   2.527   4.817   8.762  0.1512 -0.3204  1.1527
   72CHL1  H26B 7803   2.411   4.965   8.764  0.8285 -0.0117 -0.9444
   72CHL1  H26C 7804   2.351   4.795   8.746  3.0252 -3.4307  0.0853
   72CHL1   C27 7805   2.574   4.960   8.541 -0.3305  0.3146  0.6309
   72CHL1  H27A 7806   2.565   5.062   8.585  2.4804 -0.0521  2.3513
   72CHL1  H27B 7807   2.661   4.923   8.600 -1.6269  0.0767  2.4750
   72CHL1  H27C 7808   2.596   4.975   8.433  2.7087 -1.0141  0.9565
   73CHL1    C3 7809   2.456   2.585   7.216  0.5829  0.2013  0.3906
   73CHL1    H3 7810   2.540   2.512   7.216 -0.4250 -1.0185  2.1218
   73CHL1    O3 7811   2.437   2.637   7.087 -0.7289 -0.1707  0.1279
   73CHL1   H3' 7812   2.409   2.559   7.038  0.6548 -0.3666 -0.3970
   73CHL1    C4 7813   2.325   2.501   7.248 -0.2832 -0.0333  0.0228
   73CHL1   H4A 7814   2.239   2.569   7.233 -0.4769 -0.8864 -3.5305
   73CHL1   H4B 7815   2.305   2.418   7.177 -1.8239  0.0064  0.3745
   73CHL1    C5 7816   2.332   2.441   7.389 -0.5036 -0.0802 -0.3734
   73CHL1    C6 7817   2.331   2.309   7.410 -0.1293 -0.0653 -0.8211
   73CHL1    H6 7818   2.301   2.250   7.322 -1.2812  0.2463 -0.6504
   73CHL1    C7 7819   2.340   2.245   7.547 -0.9704  0.4826 -0.8410
   73CHL1   H7A 7820   2.259   2.172   7.567  0.1933 -0.6832 -0.2421
   73CHL1   H7B 7821   2.430   2.181   7.552 -1.6859 -0.4364  1.7849
   73CHL1    C8 7822   2.343   2.345   7.667  0.0414  0.2213  0.5341
   73CHL1    H8 7823   2.238   2.375   7.685 -0.0381 -0.2591  0.8603
   73CHL1   C14 7824   2.405   2.293   7.785 -0.4082 -0.3076 -0.5991
   73CHL1   H14 7825   2.514   2.279   7.765 -0.3669 -0.5245 -0.2210
   73CHL1   C15 7826   2.358   2.156   7.839  0.0847  0.3896  0.1875
   73CHL1  H15A 7827   2.248   2.141   7.835 -0.2973  2.5400  1.2115
   73CHL1  H15B 7828   2.406   2.072   7.783 -0.1704  1.9822 -2.6206
   73CHL1   C16 7829   2.392   2.149   7.985 -0.0264  0.6366  0.4636
   73CHL1  H16A 7830   2.295   2.143   8.037 -0.2007 -1.2285 -0.0111
   73CHL1  H16B 7831   2.455   2.062   8.014  2.3462  1.9690 -0.3645
   73CHL1   C17 7832   2.452   2.285   8.019  0.2469 -0.1798 -0.6603
   73CHL1   H17 7833   2.558   2.259   8.000 -0.3951 -2.6989 -1.1693
   73CHL1   C13 7834   2.399   2.379   7.906  0.1902 -0.5055 -0.0897
   73CHL1   C18 7835   2.253   2.423   7.937 -0.3620 -0.2946 -0.7623
   73CHL1  H18A 7836   2.198   2.332   7.967  3.5829 -1.9366  2.5448
   73CHL1  H18B 7837   2.249   2.483   8.031  0.0434  0.0186 -0.9424
   73CHL1  H18C 7838   2.204   2.475   7.852  0.1184  2.7191  0.6405
   73CHL1   C12 7839   2.489   2.503   7.879 -0.0682  0.6479  0.2656
   73CHL1  H12A 7840   2.488   2.576   7.962 -0.9078  1.3352 -0.3388
   73CHL1  H12B 7841   2.591   2.463   7.860 -1.7869 -5.4765  1.4895
   73CHL1   C11 7842   2.456   2.571   7.747  0.2240  0.0245 -0.1074
   73CHL1  H11A 7843   2.375   2.644   7.769 -1.4841 -1.9395  0.4671
   73CHL1  H11B 7844   2.542   2.638   7.726  1.0207 -0.3950  1.6514
   73CHL1    C9 7845   2.430   2.473   7.634  0.1715 -0.2985  0.9268
   73CHL1    H9 7846   2.529   2.432   7.607  0.0114 -0.1097  0.0349
   73CHL1   C10 7847   2.376   2.545   7.498  0.1337 -0.1991 -0.1590
   73CHL1   C19 7848   2.263   2.635   7.536  0.1521 -0.7448 -0.9054
   73CHL1  H19A 7849   2.203   2.677   7.453 -0.7844 -3.0960 -1.4913
   73CHL1  H19B 7850   2.185   2.577   7.590 -0.3294  0.6778 -0.0182
   73CHL1  H19C 7851   2.302   2.721   7.595 -0.0720 -0.3506 -1.3254
   73CHL1    C1 7852   2.499   2.637   7.453 -0.5059 -0.1502  0.0207
   73CHL1   H1A 7853   2.541   2.710   7.526  0.0371 -0.6172  0.1844
   73CHL1   H1B 7854   2.588   2.573   7.436  0.7986  0.9420  2.2584
   73CHL1    C2 7855   2.472   2.703   7.321 -0.3493  0.4881 -0.4553
   73CHL1   H2A 7856   2.547   2.776   7.285  0.4737 -0.4417 -0.6936
   73CHL1   H2B 7857   2.376   2.758   7.320 -1.2583 -1.0102 -2.5402
   73CHL1   C20 7858   2.451   2.335   8.165  0.8043  0.5184  0.8576
   73CHL1   H20 7859   2.478   2.443   8.170  2.2250  0.2226  0.1848
   73CHL1   C21 7860   2.570   2.274   8.234  0.1955  0.3924 -0.4487
   73CHL1  H21A 7861   2.590   2.313   8.336  3.1686  0.9871 -1.1552
   73CHL1  H21B 7862   2.656   2.317   8.178  0.4860 -1.5170 -1.5764
   73CHL1  H21C 7863   2.573   2.163   8.238  2.0654  0.4537  1.8924
   73CHL1   C22 7864   2.314   2.316   8.246 -0.0937 -0.3441  0.5189
   73CHL1  H22A 7865   2.226   2.342   8.183  0.0181 -0.9774  0.0852
   73CHL1  H22B 7866   2.303   2.208   8.270 -0.3781 -0.8115 -1.4993
   73CHL1   C23 7867   2.312   2.384   8.380  0.3346  0.3188 -0.4611
   73CHL1  H23A 7868   2.392   2.335   8.440 -1.1267 -0.4952  0.9077
   73CHL1  H23B 7869   2.340   2.491   8.389  0.7889  0.2466 -0.9625
   73CHL1   C24 7870   2.181   2.359   8.461  0.1516 -0.0155  0.5560
   73CHL1  H24A 7871   2.154   2.251   8.468  1.0622 -0.1856  1.8958
   73CHL1  H24B 7872   2.200   2.392   8.566  1.2490 -0.8592  0.6390
   73CHL1   C25 7873   2.059   2.433   8.411 -0.3267  0.1762  0.3334
   73CHL1   H25 7874   2.036   2.396   8.309 -0.4868  1.5236 -0.1385
   73CHL1   C26 7875   1.930   2.377   8.483  0.1145 -0.3016 -0.5938
   73CHL1  H26A 7876   1.946   2.378   8.593 -4.0154  0.5316  0.1660
   73CHL1  H26B 7877   1.846   2.446   8.461  1.0907  1.1891  0.2079
   73CHL1  H26C 7878   1.910   2.270   8.460 -0.6141 -0.4034  0.4530
   73CHL1   C27 7879   2.072   2.586   8.418  0.3342  0.0898  0.0683
   73CHL1  H27A 7880   1.980   2.630   8.375  0.1771 -0.2928  0.0117
   73CHL1  H27B 7881   2.067   2.619   8.524  1.2281 -0.0989  0.1797
   73CHL1  H27C 7882   2.160   2.629   8.366 -0.2210  0.2282 -0.7694
   74CHL1    C3 7883   2.426   0.523   6.809  0.2170  0.0054  0.0440
   74CHL1    H3 7884   2.441   0.633   6.818 -2.0314  0.2561  1.8846
   74CHL1    O3 7885   2.405   0.485   6.676  0.2859 -0.0020  0.4133
   74CHL1   H3' 7886   2.495   0.465   6.652  0.5390 -0.1906  1.4747
   74CHL1    C4 7887   2.542   0.444   6.856  0.0060  0.9409 -0.2863
   74CHL1   H4A 7888   2.529   0.334   6.844  2.7837  0.5263 -0.0082
   74CHL1   H4B 7889   2.630   0.463   6.791 -1.0916  0.5724 -1.9400
   74CHL1    C5 7890   2.575   0.465   6.997  0.3075  0.1312  0.5783
   74CHL1    C6 7891   2.697   0.503   7.036 -0.0565  0.1049  0.6181
   74CHL1    H6 7892   2.777   0.513   6.961 -0.2332  1.5392  0.5896
   74CHL1    C7 7893   2.728   0.540   7.179 -0.6241 -1.0141  0.1511
   74CHL1   H7A 7894   2.828   0.500   7.206 -0.2815 -0.4899 -0.3134
   74CHL1   H7B 7895   2.726   0.651   7.181 -0.2286 -0.9923 -0.5237
   74CHL1    C8 7896   2.623   0.486   7.284 -0.0718  0.0295  0.4844
   74CHL1    H8 7897   2.636   0.378   7.307 -0.9520 -0.0425  0.6816
   74CHL1   C14 7898   2.645   0.541   7.424 -0.7306  0.2184 -0.2362
   74CHL1   H14 7899   2.643   0.651   7.410  0.7427  0.5238  1.5880
   74CHL1   C15 7900   2.783   0.521   7.492 -0.1722  0.6919 -0.6069
   74CHL1  H15A 7901   2.841   0.426   7.497  1.2392  1.4808 -1.3096
   74CHL1  H15B 7902   2.847   0.602   7.452 -0.6008  1.6661  0.6360
   74CHL1   C16 7903   2.748   0.566   7.642  0.6229 -0.2982  0.1050
   74CHL1  H16A 7904   2.774   0.483   7.711  1.1697 -0.5069 -0.3473
   74CHL1  H16B 7905   2.809   0.656   7.664  0.0930  0.9257 -2.9337
   74CHL1   C17 7906   2.587   0.596   7.652  0.0546 -0.0690  0.3261
   74CHL1   H17 7907   2.566   0.704   7.636 -0.5994 -0.4845 -2.0246
   74CHL1   C13 7908   2.530   0.520   7.527  0.4908  0.0366  0.3847
   74CHL1   C18 7909   2.519   0.369   7.561 -0.4921  0.2001 -0.6449
   74CHL1  H18A 7910   2.428   0.336   7.616 -0.8212  0.3444 -1.0963
   74CHL1  H18B 7911   2.504   0.312   7.467  1.0306 -0.5248 -0.4786
   74CHL1  H18C 7912   2.615   0.344   7.611  0.4666  1.3124 -1.8387
   74CHL1   C12 7913   2.394   0.574   7.469  0.0141  0.2596  0.8236
   74CHL1  H12A 7914   2.303   0.550   7.528  0.8694 -2.3052  1.2586
   74CHL1  H12B 7915   2.393   0.685   7.464 -1.2109  0.3361  2.1876
   74CHL1   C11 7916   2.380   0.504   7.339 -0.0948  0.1239  1.0507
   74CHL1  H11A 7917   2.375   0.395   7.363  0.2062 -0.0911  0.1927
   74CHL1  H11B 7918   2.274   0.525   7.314 -0.4880  1.4805  3.5046
   74CHL1    C9 7919   2.488   0.522   7.229  1.2338 -0.1088  0.1372
   74CHL1    H9 7920   2.486   0.630   7.206 -0.5520  0.2828  1.8281
   74CHL1   C10 7921   2.454   0.451   7.097 -0.0509 -0.2367 -0.1782
   74CHL1   C19 7922   2.421   0.302   7.122 -0.5323  0.0030  0.3289
   74CHL1  H19A 7923   2.331   0.290   7.186 -0.9511  0.2331 -0.2070
   74CHL1  H19B 7924   2.407   0.235   7.034  2.1828 -2.0818  1.3675
   74CHL1  H19C 7925   2.509   0.259   7.173  0.5839 -0.2926 -1.7396
   74CHL1    C1 7926   2.332   0.523   7.042 -0.3740 -0.4874  0.1186
   74CHL1   H1A 7927   2.243   0.489   7.098  0.2071 -1.2274  0.6102
   74CHL1   H1B 7928   2.335   0.634   7.043  1.0402 -0.3869 -2.8292
   74CHL1    C2 7929   2.302   0.490   6.897 -0.4184  0.3330 -0.9650
   74CHL1   H2A 7930   2.210   0.539   6.858 -1.6870  1.7265  3.2954
   74CHL1   H2B 7931   2.289   0.380   6.884  0.4425  0.4345 -3.1157
   74CHL1   C20 7932   2.529   0.557   7.788 -0.4501 -0.4055  0.5199
   74CHL1   H20 7933   2.538   0.447   7.797  2.5832 -0.3986 -1.1546
   74CHL1   C21 7934   2.377   0.593   7.798  0.3576 -0.0938  0.1108
   74CHL1  H21A 7935   2.329   0.536   7.716  0.7527 -0.3022  0.0241
   74CHL1  H21B 7936   2.350   0.701   7.797  0.0123 -0.1741  0.6098
   74CHL1  H21C 7937   2.344   0.549   7.894 -0.5469 -1.6994 -0.8881
   74CHL1   C22 7938   2.601   0.631   7.904 -0.4714 -0.3852 -0.4869
   74CHL1  H22A 7939   2.540   0.623   7.996 -2.4492  1.1490 -1.5758
   74CHL1  H22B 7940   2.702   0.586   7.910  0.1727  1.2267  2.7752
   74CHL1   C23 7941   2.621   0.783   7.876 -0.6612 -0.5815 -0.5873
   74CHL1  H23A 7942   2.666   0.801   7.776 -0.0118  2.8708  0.2153
   74CHL1  H23B 7943   2.522   0.833   7.870  0.2894  1.4403 -0.2013
   74CHL1   C24 7944   2.721   0.853   7.977 -0.7362  0.0068  0.4333
   74CHL1  H24A 7945   2.685   0.825   8.078 -1.4880  0.4556  0.3008
   74CHL1  H24B 7946   2.824   0.818   7.957 -1.8719 -2.8201 -0.9680
   74CHL1   C25 7947   2.745   1.005   7.963 -0.1292  0.0769 -0.1256
   74CHL1   H25 7948   2.648   1.058   7.954 -1.6236 -2.6582 -1.0147
   74CHL1   C26 7949   2.826   1.058   8.084  0.1845 -0.2334  0.4491
   74CHL1  H26A 7950   2.762   1.057   8.175 -1.1201  1.2614 -0.4029
   74CHL1  H26B 7951   2.924   1.005   8.088  0.0668 -0.3833  1.9672
   74CHL1  H26C 7952   2.839   1.167   8.074 -2.2005  0.0499 -0.0671
   74CHL1   C27 7953   2.828   1.045   7.838  0.4861 -0.2769  0.1063
   74CHL1  H27A 7954   2.886   1.138   7.856  2.2753 -1.2987 -0.0978
   74CHL1  H27B 7955   2.910   0.972   7.824  0.2319 -0.8541  1.4775
   74CHL1  H27C 7956   2.767   1.049   7.745  3.2871  2.6596 -1.8451
   75CHL1    C3 7957   0.294   2.704   6.849 -0.7423  0.4675  0.3253
   75CHL1    H3 7958   0.384   2.656   6.894 -1.9890 -1.1341  1.2307
   75CHL1    O3 7959   0.303   2.724   6.706  0.6301 -0.4206 -0.0591
   75CHL1   H3' 7960   0.372   2.788   6.687  0.8265 -1.2059 -2.3074
   75CHL1    C4 7961   0.160   2.634   6.891  0.9334  0.7818 -0.5895
   75CHL1   H4A 7962   0.075   2.688   6.845  2.9728  4.3702 -0.4905
   75CHL1   H4B 7963   0.158   2.531   6.850 -1.4282  0.1730  0.8288
   75CHL1    C5 7964   0.144   2.625   7.043  0.3728 -0.1186  0.0026
   75CHL1    C6 7965   0.122   2.507   7.105  0.6124 -0.2161  0.2340
   75CHL1    H6 7966   0.113   2.414   7.046  0.7905  0.6260 -1.1453
   75CHL1    C7 7967   0.104   2.486   7.253  0.0334  0.1124 -0.3946
   75CHL1   H7A 7968   0.011   2.427   7.268 -2.5991  3.1842 -2.9948
   75CHL1   H7B 7969   0.193   2.438   7.299 -0.0833 -2.1713 -2.3388
   75CHL1    C8 7970   0.088   2.619   7.334  0.0081  0.0129  0.3428
   75CHL1    H8 7971  -0.021   2.640   7.330 -0.1477 -0.9403 -1.4324
   75CHL1   C14 7972   0.129   2.597   7.475  0.4992 -0.6239 -0.0080
   75CHL1   H14 7973   0.237   2.572   7.481  0.5063 -0.5959 -0.0156
   75CHL1   C15 7974   0.061   2.490   7.547  0.7296  0.2457  0.0889
   75CHL1  H15A 7975  -0.048   2.491   7.522  0.1689  0.0782  2.2716
   75CHL1  H15B 7976   0.097   2.394   7.505  0.0624  0.7538 -1.7607
   75CHL1   C16 7977   0.077   2.515   7.694 -0.1182 -0.0270  0.4907
   75CHL1  H16A 7978  -0.026   2.525   7.734 -1.4080 -0.6540 -2.4187
   75CHL1  H16B 7979   0.124   2.438   7.758 -0.8517 -1.5347 -0.7210
   75CHL1   C17 7980   0.149   2.655   7.703  0.2121 -0.8673  0.3123
   75CHL1   H17 7981   0.260   2.645   7.702  0.6118  2.0625 -3.0920
   75CHL1   C13 7982   0.114   2.725   7.569 -0.1717 -0.3837  0.4755
   75CHL1   C18 7983  -0.030   2.769   7.582  0.5867 -1.0795  0.5778
   75CHL1  H18A 7984  -0.066   2.780   7.477  1.2663 -0.3115  0.4147
   75CHL1  H18B 7985  -0.098   2.700   7.636 -0.9323  0.9284  1.3703
   75CHL1  H18C 7986  -0.037   2.873   7.619  1.7254 -0.1603 -1.5755
   75CHL1   C12 7987   0.187   2.845   7.519  0.0373  0.5006 -0.3100
   75CHL1  H12A 7988   0.155   2.941   7.564 -3.6038 -1.4635  1.7414
   75CHL1  H12B 7989   0.297   2.832   7.535  0.0899 -1.4369 -1.8588
   75CHL1   C11 7990   0.155   2.860   7.366 -0.5207  0.4878 -0.0517
   75CHL1  H11A 7991   0.053   2.904   7.359 -0.9938 -0.5434  0.1931
   75CHL1  H11B 7992   0.223   2.936   7.322 -1.9088  0.7457 -1.8745
   75CHL1    C9 7993   0.170   2.733   7.274  0.7051 -0.2811  0.4982
   75CHL1    H9 7994   0.276   2.706   7.291  0.7442  0.3537  1.2884
   75CHL1   C10 7995   0.153   2.757   7.123  0.2234 -0.6125 -0.7234
   75CHL1   C19 7996   0.019   2.834   7.091 -1.1231  0.6416  0.2894
   75CHL1  H19A 7997   0.019   2.846   6.980  4.2888 -3.9916 -0.7037
   75CHL1  H19B 7998  -0.065   2.775   7.133  0.7772 -1.1798  1.7457
   75CHL1  H19C 7999   0.003   2.937   7.130 -1.6843 -0.2638  2.6343
   75CHL1    C1 8000   0.277   2.833   7.065  0.1531  0.4994  0.3844
   75CHL1   H1A 8001   0.279   2.933   7.115  2.0677  0.7587 -0.1184
   75CHL1   H1B 8002   0.375   2.791   7.097  0.4814  0.4471 -0.6406
   75CHL1    C2 8003   0.289   2.845   6.905 -0.0892  0.2616 -0.5996
   75CHL1   H2A 8004   0.372   2.906   6.866 -1.7994  1.1487 -3.0605
   75CHL1   H2B 8005   0.208   2.911   6.869 -0.8103  0.7336  1.7286
   75CHL1   C20 8006   0.117   2.730   7.837 -0.4063 -0.7142 -0.5292
   75CHL1   H20 8007   0.011   2.766   7.836  0.3345  1.6577 -0.3857
   75CHL1   C21 8008   0.191   2.865   7.837  0.0807 -0.3075  0.3193
   75CHL1  H21A 8009   0.293   2.868   7.793 -0.1384  3.2771 -0.2967
   75CHL1  H21B 8010   0.216   2.891   7.943  0.5147  0.2691  0.0839
   75CHL1  H21C 8011   0.138   2.953   7.795 -1.8469 -2.0772 -1.1631
   75CHL1   C22 8012   0.149   2.647   7.966 -0.0753 -0.2384  0.2164
   75CHL1  H22A 8013   0.101   2.546   7.967 -0.2702 -0.2720 -2.8364
   75CHL1  H22B 8014   0.255   2.641   7.999  0.3186  2.1382 -0.4083
   75CHL1   C23 8015   0.075   2.709   8.086 -0.3251 -0.2269  0.4470
   75CHL1  H23A 8016   0.112   2.812   8.106  2.9890 -1.2711  0.2668
   75CHL1  H23B 8017  -0.029   2.723   8.049  0.4321  2.6956 -0.9436
   75CHL1   C24 8018   0.087   2.634   8.224 -0.6717  0.3769 -0.4598
   75CHL1  H24A 8019   0.062   2.527   8.204 -3.1360  0.3914  1.9451
   75CHL1  H24B 8020   0.191   2.643   8.263 -1.0031 -0.2056  0.6075
   75CHL1   C25 8021  -0.021   2.682   8.332 -0.0816  0.1421  0.7170
   75CHL1   H25 8022  -0.114   2.698   8.273  1.0041 -0.8112 -1.3280
   75CHL1   C26 8023  -0.051   2.578   8.446  0.3413  0.1062 -0.0503
   75CHL1  H26A 8024   0.046   2.531   8.472 -0.3176 -0.6366  1.1145
   75CHL1  H26B 8025  -0.074   2.622   8.545 -1.1216 -0.6234 -0.0457
   75CHL1  H26C 8026  -0.126   2.501   8.419  0.9586 -0.2396 -0.8504
   75CHL1   C27 8027   0.042   2.806   8.393 -0.0752  0.1639 -0.3517
   75CHL1  H27A 8028   0.092   2.870   8.317 -0.7555  2.1434  0.7917
   75CHL1  H27B 8029  -0.026   2.868   8.456 -1.0599 -0.3354 -0.8912
   75CHL1  H27C 8030   0.113   2.761   8.466 -0.6702 -2.3640 -1.2424
   76CHL1    C3 8031   2.045   3.140   6.972  0.5514 -0.4351 -0.0029
   76CHL1    H3 8032   2.010   3.039   6.943  0.8539 -1.1485  1.9430
   76CHL1    O3 8033   2.081   3.219   6.860 -0.0216 -0.0910 -0.3108
   76CHL1   H3' 8034   2.124   3.296   6.897 -0.0685 -0.4184  0.4541
   76CHL1    C4 8035   1.932   3.211   7.059  0.2615 -0.2960 -0.1931
   76CHL1   H4A 8036   1.963   3.315   7.082  0.7361  0.5198 -3.9218
   76CHL1   H4B 8037   1.840   3.218   6.997  0.6752  1.5567 -0.6576
   76CHL1    C5 8038   1.906   3.138   7.192 -0.2329  0.3000  0.4857
   76CHL1    C6 8039   1.782   3.104   7.227 -0.1020  0.1133 -0.8891
   76CHL1    H6 8040   1.691   3.133   7.173 -2.8808 -0.6539  2.9937
   76CHL1    C7 8041   1.760   3.037   7.359  0.4154  0.0071 -0.5379
   76CHL1   H7A 8042   1.666   3.074   7.404  0.0194  0.4189 -1.6814
   76CHL1   H7B 8043   1.741   2.929   7.345 -0.6596 -0.0838  1.2160
   76CHL1    C8 8044   1.877   3.061   7.463  0.1821 -0.1307  0.3302
   76CHL1    H8 8045   1.877   3.166   7.499 -0.1768 -0.3180  0.8739
   76CHL1   C14 8046   1.860   2.965   7.579  0.0930  0.5494  0.1650
   76CHL1   H14 8047   1.863   2.869   7.522 -1.1368  0.4887  0.1704
   76CHL1   C15 8048   1.733   2.975   7.660  0.6946 -0.0197 -0.2113
   76CHL1  H15A 8049   1.681   3.072   7.666 -2.5039 -1.5611 -1.0450
   76CHL1  H15B 8050   1.664   2.903   7.610 -0.8410  1.0963  0.2348
   76CHL1   C16 8051   1.762   2.900   7.796  0.0661  0.4178 -0.2811
   76CHL1  H16A 8052   1.740   2.969   7.881  0.1988 -0.1455  0.2169
   76CHL1  H16B 8053   1.693   2.814   7.814  0.7714  0.1713  1.4569
   76CHL1   C17 8054   1.913   2.855   7.793 -0.1254  0.5833 -0.3515
   76CHL1   H17 8055   1.929   2.752   7.752  2.4182  1.3498 -1.4957
   76CHL1   C13 8056   1.968   2.947   7.680 -0.1731  0.1811  0.2603
   76CHL1   C18 8057   1.986   3.082   7.746  0.4461 -0.0256  0.3659
   76CHL1  H18A 8058   1.921   3.102   7.835  1.8412 -0.7408  1.5808
   76CHL1  H18B 8059   2.077   3.087   7.810  0.2845 -0.6522  0.6474
   76CHL1  H18C 8060   1.997   3.173   7.683  0.3704  1.0885  1.8998
   76CHL1   C12 8061   2.088   2.896   7.608 -0.3967 -0.5397 -0.2841
   76CHL1  H12A 8062   2.179   2.877   7.668  1.5256 -0.9379 -3.0942
   76CHL1  H12B 8063   2.067   2.796   7.566  0.8181 -0.3493 -1.4443
   76CHL1   C11 8064   2.123   2.996   7.495  0.2164  0.7499  0.0543
   76CHL1  H11A 8065   2.169   3.090   7.531  0.1758  0.7327  0.1490
   76CHL1  H11B 8066   2.193   2.946   7.425 -0.3250  1.0533 -0.7195
   76CHL1    C9 8067   2.007   3.023   7.394 -0.2431 -0.1232  0.5057
   76CHL1    H9 8068   1.987   2.926   7.342 -0.2160  1.0752 -1.8986
   76CHL1   C10 8069   2.037   3.113   7.276 -0.3099 -0.2016  0.0228
   76CHL1   C19 8070   2.087   3.250   7.330 -0.3130 -0.6314 -0.1987
   76CHL1  H19A 8071   2.008   3.306   7.384 -0.9743 -1.3361 -0.4262
   76CHL1  H19B 8072   2.174   3.253   7.400 -0.4843 -1.3007  0.0441
   76CHL1  H19C 8073   2.125   3.318   7.251  0.6925 -1.0320 -0.0820
   76CHL1    C1 8074   2.150   3.047   7.192 -1.0176  0.2916  0.4479
   76CHL1   H1A 8075   2.244   3.051   7.251 -0.5740 -0.3617 -0.1962
   76CHL1   H1B 8076   2.124   2.941   7.172  0.5807 -0.2221  0.9933
   76CHL1    C2 8077   2.176   3.121   7.052 -0.6355  0.1175 -0.1763
   76CHL1   H2A 8078   2.255   3.076   6.989  0.2516  2.0536 -0.5261
   76CHL1   H2B 8079   2.218   3.221   7.075 -1.4164  0.5457 -0.5919
   76CHL1   C20 8080   1.984   2.844   7.929  0.4145 -0.0856  0.1624
   76CHL1   H20 8081   2.005   2.943   7.974  0.5410 -0.0043 -0.0738
   76CHL1   C21 8082   2.119   2.774   7.919  0.2886  0.1907  0.3525
   76CHL1  H21A 8083   2.203   2.840   7.888  1.1394 -0.6239  0.8651
   76CHL1  H21B 8084   2.113   2.683   7.855 -1.0581 -1.2399  2.3710
   76CHL1  H21C 8085   2.153   2.728   8.014 -1.8137 -0.0550  1.0534
   76CHL1   C22 8086   1.893   2.772   8.039  0.0271 -0.3450 -0.1324
   76CHL1  H22A 8087   1.794   2.728   8.015  0.4541 -1.4958  0.1344
   76CHL1  H22B 8088   1.941   2.673   8.057 -2.3863 -2.3859 -3.7626
   76CHL1   C23 8089   1.878   2.832   8.178  0.1107 -0.4608 -0.1195
   76CHL1  H23A 8090   1.837   2.747   8.236  0.5854 -0.2207  0.5810
   76CHL1  H23B 8091   1.979   2.856   8.218  0.5494 -1.8387 -0.3570
   76CHL1   C24 8092   1.784   2.959   8.188  0.1770  0.4071  0.5393
   76CHL1  H24A 8093   1.832   3.048   8.142 -0.9480  0.9818  0.4545
   76CHL1  H24B 8094   1.697   2.937   8.123  1.4681 -2.5756 -0.3450
   76CHL1   C25 8095   1.746   2.995   8.331  0.1735 -0.3028  0.0844
   76CHL1   H25 8096   1.703   2.902   8.375  1.8997 -1.3394 -0.3015
   76CHL1   C26 8097   1.864   3.046   8.418  0.0841 -0.1462  0.4339
   76CHL1  H26A 8098   1.833   3.081   8.519  1.7008 -1.7196  1.5351
   76CHL1  H26B 8099   1.943   2.971   8.440  2.1889  1.9818  0.4875
   76CHL1  H26C 8100   1.910   3.130   8.362 -2.0883  2.0521  1.7251
   76CHL1   C27 8101   1.625   3.099   8.333  0.2904 -0.8145 -0.1399
   76CHL1  H27A 8102   1.526   3.073   8.289 -1.1739  1.8055  1.3197
   76CHL1  H27B 8103   1.604   3.133   8.437 -0.2807  0.7769 -0.7521
   76CHL1  H27C 8104   1.659   3.188   8.277  1.4213 -0.4560  1.0723
   77CHL1    C3 8105   1.916   2.602   7.038 -0.5917  0.3257 -0.6691
   77CHL1    H3 8106   2.027   2.603   7.038 -0.5834 -0.1878 -0.3766
   77CHL1    O3 8107   1.874   2.666   6.923 -0.4984 -0.4329  0.3968
   77CHL1   H3' 8108   1.852   2.597   6.860  0.8997  0.1061 -0.7303
   77CHL1    C4 8109   1.864   2.462   7.054  0.4805  0.0951  0.1351
   77CHL1   H4A 8110   1.755   2.464   7.031  0.2426 -1.5708  0.9533
   77CHL1   H4B 8111   1.918   2.393   6.986 -1.1473 -0.2137 -0.9275
   77CHL1    C5 8112   1.875   2.411   7.198  1.2704  0.7663  0.9004
   77CHL1    C6 8113   1.927   2.286   7.205  0.1812  0.4675 -0.2153
   77CHL1    H6 8114   1.949   2.227   7.115  1.7458  1.5274 -0.5724
   77CHL1    C7 8115   1.954   2.222   7.341  0.5981  0.1569 -0.2813
   77CHL1   H7A 8116   1.916   2.117   7.344 -0.0400  0.3983  1.3536
   77CHL1   H7B 8117   2.063   2.218   7.363  1.1955 -0.7266 -2.9603
   77CHL1    C8 8118   1.872   2.293   7.453  0.1631  0.3635  0.0242
   77CHL1    H8 8119   1.765   2.266   7.437  0.5220 -0.1008 -1.7638
   77CHL1   C14 8120   1.922   2.239   7.588 -0.1421  0.4162 -1.1279
   77CHL1   H14 8121   2.030   2.260   7.602 -0.5885  1.3353  1.3354
   77CHL1   C15 8122   1.899   2.088   7.607 -0.9822  0.7001  0.8101
   77CHL1  H15A 8123   1.797   2.053   7.579 -0.2068 -1.6041  0.6790
   77CHL1  H15B 8124   1.968   2.016   7.559 -2.3653  0.7955 -1.4491
   77CHL1   C16 8125   1.910   2.068   7.759  0.2179 -0.0425  0.0348
   77CHL1  H16A 8126   1.837   1.995   7.800  0.0134 -0.1029 -0.4311
   77CHL1  H16B 8127   2.011   2.029   7.786  0.2133  0.3341  0.6007
   77CHL1   C17 8128   1.894   2.213   7.822  0.1535 -0.2869  0.2142
   77CHL1   H17 8129   1.996   2.253   7.841 -0.3154  0.9896  0.1294
   77CHL1   C13 8130   1.840   2.295   7.707 -0.5898  0.0654 -0.2047
   77CHL1   C18 8131   1.689   2.275   7.698 -0.0075  0.6872 -0.8119
   77CHL1  H18A 8132   1.636   2.327   7.781 -1.1091 -1.0699 -0.3556
   77CHL1  H18B 8133   1.645   2.308   7.602 -0.0593  1.1302 -0.6366
   77CHL1  H18C 8134   1.663   2.168   7.714 -0.6053  1.2097  2.5232
   77CHL1   C12 8135   1.876   2.448   7.707 -0.0519 -0.3706 -0.5651
   77CHL1  H12A 8136   1.841   2.486   7.806 -0.3868 -1.9302 -0.0537
   77CHL1  H12B 8137   1.987   2.448   7.709 -0.0230 -1.8684 -0.8381
   77CHL1   C11 8138   1.835   2.515   7.582 -0.2415 -0.9988 -0.2961
   77CHL1  H11A 8139   1.728   2.540   7.570  0.8177  3.0501 -3.2108
   77CHL1  H11B 8140   1.877   2.618   7.582 -0.2735 -0.9642 -2.0769
   77CHL1    C9 8141   1.890   2.440   7.457 -0.6295  0.4194  0.6926
   77CHL1    H9 8142   2.000   2.449   7.456 -0.3124 -2.5482 -1.0087
   77CHL1   C10 8143   1.845   2.499   7.324  0.0118 -0.3248  0.5188
   77CHL1   C19 8144   1.689   2.528   7.316 -0.4306 -0.5485 -0.0359
   77CHL1  H19A 8145   1.636   2.554   7.222 -1.7956  0.7310  1.0284
   77CHL1  H19B 8146   1.637   2.439   7.356 -1.1983  0.2264  0.7473
   77CHL1  H19C 8147   1.670   2.618   7.379 -1.3525 -0.1917 -0.8012
   77CHL1    C1 8148   1.920   2.634   7.297  0.0230 -0.0072  0.1398
   77CHL1   H1A 8149   1.886   2.704   7.376  0.7008  0.9470 -0.4045
   77CHL1   H1B 8150   2.030   2.627   7.293  0.0569  0.0379  0.8817
   77CHL1    C2 8151   1.882   2.697   7.160 -0.0990  0.9592  0.1858
   77CHL1   H2A 8152   1.944   2.790   7.152 -1.2275  1.7916  0.8318
   77CHL1   H2B 8153   1.777   2.731   7.151  0.2302  1.5369 -1.9922
   77CHL1   C20 8154   1.815   2.195   7.953  0.6495 -0.5869  0.2043
   77CHL1   H20 8155   1.708   2.172   7.934 -0.0375  1.0315  1.8167
   77CHL1   C21 8156   1.807   2.328   8.026  0.3802 -0.0358  0.0893
   77CHL1  H21A 8157   1.758   2.315   8.125  0.5997  0.4950  0.2696
   77CHL1  H21B 8158   1.746   2.407   7.978  2.1058  0.9893 -0.4688
   77CHL1  H21C 8159   1.907   2.375   8.032  0.8472 -1.1798  2.6691
   77CHL1   C22 8160   1.872   2.092   8.050 -0.7531 -1.0339 -0.0028
   77CHL1  H22A 8161   1.806   2.092   8.139  0.8461 -1.8657  1.2265
   77CHL1  H22B 8162   1.863   1.989   8.011  1.5223 -0.7781 -1.3912
   77CHL1   C23 8163   2.012   2.115   8.104  0.0349  0.7713 -0.0318
   77CHL1  H23A 8164   2.068   2.114   8.008 -0.4698 -1.6331 -0.3658
   77CHL1  H23B 8165   2.036   2.212   8.154  0.6774  2.1716 -2.8690
   77CHL1   C24 8166   2.055   1.994   8.188 -0.3088  0.3379 -0.5909
   77CHL1  H24A 8167   2.160   2.016   8.218  0.4146  1.3293 -3.4623
   77CHL1  H24B 8168   1.992   1.986   8.279  0.0469  3.9399  0.1005
   77CHL1   C25 8169   2.075   1.859   8.105  0.8325 -0.6412  0.1271
   77CHL1   H25 8170   1.991   1.837   8.036 -0.6897  2.4221  0.8108
   77CHL1   C26 8171   2.190   1.876   8.005 -0.4013  0.2283  0.0951
   77CHL1  H26A 8172   2.165   1.955   7.930  2.1449  0.1568 -0.9111
   77CHL1  H26B 8173   2.291   1.882   8.051  1.4955  2.6571 -3.8221
   77CHL1  H26C 8174   2.203   1.772   7.968  1.6791  0.5309 -0.1390
   77CHL1   C27 8175   2.109   1.746   8.198 -0.2238  0.0007  0.0028
   77CHL1  H27A 8176   2.019   1.697   8.242 -0.2341 -0.0146 -0.0351
   77CHL1  H27B 8177   2.155   1.671   8.131  1.9381  1.8725 -0.7424
   77CHL1  H27C 8178   2.183   1.771   8.276  0.2615  1.5025 -0.9021
   78CHL1    C3 8179   4.659   4.956   6.737 -0.6076  0.6239  0.1470
   78CHL1    H3 8180   4.633   4.851   6.760 -0.1484  0.3701 -0.4525
   78CHL1    O3 8181   4.683   4.980   6.597 -0.1420 -0.5632 -0.1569
   78CHL1   H3' 8182   4.623   4.911   6.566 -0.9357  0.2678 -0.5277
   78CHL1    C4 8183   4.541   5.044   6.780  0.8309  0.2313 -0.4256
   78CHL1   H4A 8184   4.576   5.149   6.772 -0.2276  0.7896  1.5110
   78CHL1   H4B 8185   4.455   5.012   6.718 -0.7042  1.5150  0.9596
   78CHL1    C5 8186   4.509   5.010   6.926 -0.3127  0.4218 -0.5577
   78CHL1    C6 8187   4.392   4.953   6.963 -0.6967 -0.6660 -0.9559
   78CHL1    H6 8188   4.322   4.921   6.885 -1.9810 -1.7215  0.5739
   78CHL1    C7 8189   4.353   4.919   7.103  0.5176 -0.3565 -0.1401
   78CHL1   H7A 8190   4.250   4.954   7.125  0.1022  0.9577 -3.6128
   78CHL1   H7B 8191   4.359   4.808   7.108 -1.5282 -0.5139 -0.4079
   78CHL1    C8 8192   4.448   4.986   7.207 -0.7821  0.3689  0.1950
   78CHL1    H8 8193   4.418   5.093   7.207 -0.1857  0.5507  1.5212
   78CHL1   C14 8194   4.419   4.926   7.348  0.3208 -0.1424 -0.9215
   78CHL1   H14 8195   4.455   4.821   7.346 -2.1816 -1.1466  1.0932
   78CHL1   C15 8196   4.273   4.910   7.401  0.2928  0.5437  0.1844
   78CHL1  H15A 8197   4.196   4.985   7.374 -1.2286 -1.2471 -0.6019
   78CHL1  H15B 8198   4.242   4.811   7.363 -0.0693 -0.8710  3.8070
   78CHL1   C16 8199   4.283   4.930   7.556  0.1328 -0.3254 -0.2082
   78CHL1  H16A 8200   4.244   5.028   7.589  3.4969  0.6645  1.2539
   78CHL1  H16B 8201   4.242   4.839   7.604 -0.1843  0.5423  1.2091
   78CHL1   C17 8202   4.432   4.943   7.585  0.1636 -0.2595 -0.3603
   78CHL1   H17 8203   4.458   4.835   7.590 -1.1894 -0.5338  2.1756
   78CHL1   C13 8204   4.499   5.002   7.461  0.0320  0.1930  0.3486
   78CHL1   C18 8205   4.472   5.150   7.460  0.7062 -0.1060 -0.1863
   78CHL1  H18A 8206   4.508   5.193   7.365  1.0893  0.8555  0.3819
   78CHL1  H18B 8207   4.364   5.174   7.467  1.1344  1.9626 -0.0547
   78CHL1  H18C 8208   4.519   5.210   7.541 -1.0591  2.0185 -0.6431
   78CHL1   C12 8209   4.643   4.964   7.431 -0.2986 -0.0669  0.0841
   78CHL1  H12A 8210   4.710   5.025   7.494 -0.8639 -0.6411  1.2907
   78CHL1  H12B 8211   4.662   4.855   7.444  3.2199  0.5567  1.0489
   78CHL1   C11 8212   4.689   5.000   7.282  0.0749 -0.5829 -0.0161
   78CHL1  H11A 8213   4.694   5.111   7.278  0.4343 -0.5542  0.8103
   78CHL1  H11B 8214   4.791   4.961   7.260  0.5082  1.0534 -1.0152
   78CHL1    C9 8215   4.593   4.965   7.162  0.8301  0.3165 -0.4045
   78CHL1    H9 8216   4.614   4.856   7.156 -0.1099 -0.2373  3.3580
   78CHL1   C10 8217   4.620   5.030   7.026 -0.7049  1.0189 -0.4769
   78CHL1   C19 8218   4.640   5.180   7.040 -0.6774 -0.9635 -0.4443
   78CHL1  H19A 8219   4.735   5.192   7.097 -0.4400 -1.2333 -0.7845
   78CHL1  H19B 8220   4.659   5.242   6.950  0.2596  2.3247  1.7881
   78CHL1  H19C 8221   4.552   5.210   7.101 -0.9827 -2.0062 -0.3640
   78CHL1    C1 8222   4.755   4.965   6.966 -0.6427 -0.5477  0.3534
   78CHL1   H1A 8223   4.838   5.006   7.028  0.2512  1.4147 -1.9786
   78CHL1   H1B 8224   4.752   4.854   6.980 -1.7911 -0.9262 -2.3183
   78CHL1    C2 8225   4.781   4.999   6.819 -0.3836 -0.0743 -0.1926
   78CHL1   H2A 8226   4.869   4.942   6.783 -0.8276 -0.9758  0.1116
   78CHL1   H2B 8227   4.797   5.109   6.812  0.9085 -0.2709 -0.6228
   78CHL1   C20 8228   4.460   5.007   7.731 -0.4749  0.0154  1.0373
   78CHL1   H20 8229   4.433   5.114   7.720 -0.5363 -0.1237 -0.3067
   78CHL1   C21 8230   4.608   5.000   7.762 -0.1605  0.1039  0.9239
   78CHL1  H21A 8231   4.619   5.021   7.870 -3.0735 -0.6920  1.4671
   78CHL1  H21B 8232   4.665   5.074   7.701  1.9804 -0.5483  2.0577
   78CHL1  H21C 8233   4.639   4.897   7.734  1.2435  0.5669  0.7105
   78CHL1   C22 8234   4.371   4.954   7.842  0.0947  0.1763  0.1009
   78CHL1  H22A 8235   4.385   5.023   7.928  1.5316  1.3965 -1.0442
   78CHL1  H22B 8236   4.264   4.955   7.814  0.2401  1.7502 -0.5141
   78CHL1   C23 8237   4.406   4.813   7.892 -0.6294  0.3431  0.4889
   78CHL1  H23A 8238   4.361   4.739   7.822 -0.0109  0.5827 -0.1724
   78CHL1  H23B 8239   4.516   4.803   7.890 -0.6140  0.0412  1.7948
   78CHL1   C24 8240   4.348   4.794   8.037 -0.0959  0.1993  0.0154
   78CHL1  H24A 8241   4.374   4.878   8.104 -1.0547  0.6625 -0.1676
   78CHL1  H24B 8242   4.237   4.797   8.030 -0.1532  0.0019  0.7915
   78CHL1   C25 8243   4.381   4.663   8.104 -0.3006 -0.3941  0.5640
   78CHL1   H25 8244   4.348   4.682   8.208  3.0985 -1.5642  2.0036
   78CHL1   C26 8245   4.302   4.548   8.043  0.0933 -0.8573  1.0253
   78CHL1  H26A 8246   4.300   4.456   8.106 -0.0940 -1.2914  0.4048
   78CHL1  H26B 8247   4.196   4.575   8.024  0.0986 -1.0813  0.6700
   78CHL1  H26C 8248   4.359   4.511   7.955  1.6831 -0.4869  1.8520
   78CHL1   C27 8249   4.526   4.633   8.119  0.2518  0.5824 -0.6614
   78CHL1  H27A 8250   4.575   4.716   8.174  1.3327  0.6975 -1.7517
   78CHL1  H27B 8251   4.538   4.540   8.177  0.7457  0.9514 -0.1562
   78CHL1  H27C 8252   4.573   4.628   8.018 -2.5525  0.4973 -2.0580
   79CHL1    C3 8253   1.273   2.919   6.994 -0.9303 -0.4729  0.1452
   79CHL1    H3 8254   1.288   2.810   7.008 -1.6100 -0.9809 -2.5303
   79CHL1    O3 8255   1.282   2.937   6.854  0.0191  0.3659  0.2333
   79CHL1   H3' 8256   1.296   3.029   6.830  0.0570 -0.3282 -2.7963
   79CHL1    C4 8257   1.138   2.982   7.045  0.1892  0.0202  0.4472
   79CHL1   H4A 8258   1.116   3.088   7.022 -0.7121  0.0848  1.5038
   79CHL1   H4B 8259   1.056   2.939   6.983 -0.7570  1.6198  0.5541
   79CHL1    C5 8260   1.117   2.964   7.192 -0.2735  0.2858  0.1566
   79CHL1    C6 8261   1.010   2.901   7.244 -0.2387  0.4176  0.8584
   79CHL1    H6 8262   0.933   2.860   7.177  1.5438  0.0885 -1.1159
   79CHL1    C7 8263   0.981   2.894   7.391 -0.1546  0.2239 -0.5081
   79CHL1   H7A 8264   0.877   2.927   7.411  1.0186  3.0997  1.4921
   79CHL1   H7B 8265   0.978   2.787   7.418 -3.5178  0.6334  1.1360
   79CHL1    C8 8266   1.073   2.981   7.477 -0.8549 -0.3372  0.4245
   79CHL1    H8 8267   1.040   3.086   7.470 -0.3181 -0.1704  0.3309
   79CHL1   C14 8268   1.069   2.939   7.628  0.1189  0.7501  0.6347
   79CHL1   H14 8269   1.102   2.833   7.625 -0.1127  0.7018 -2.0803
   79CHL1   C15 8270   0.926   2.923   7.687 -0.2019 -0.3114 -0.5483
   79CHL1  H15A 8271   0.860   3.011   7.672 -1.0744 -1.1006 -1.3621
   79CHL1  H15B 8272   0.877   2.830   7.653 -0.9616 -0.9487  2.0727
   79CHL1   C16 8273   0.945   2.906   7.843 -0.6143  0.2250 -0.2685
   79CHL1  H16A 8274   0.898   2.997   7.887  2.4980  2.1047 -0.4980
   79CHL1  H16B 8275   0.917   2.809   7.888  1.9623 -0.7384 -0.5778
   79CHL1   C17 8276   1.103   2.926   7.855 -0.2010 -0.8902 -0.1794
   79CHL1   H17 8277   1.156   2.828   7.847 -1.2745 -1.5807  0.8227
   79CHL1   C13 8278   1.153   3.010   7.731  0.0404 -0.3854 -0.0900
   79CHL1   C18 8279   1.113   3.157   7.742 -0.4894 -0.3338 -0.3741
   79CHL1  H18A 8280   1.016   3.169   7.796  0.0210  1.0646  0.2716
   79CHL1  H18B 8281   1.194   3.207   7.799  2.3257 -1.5608 -3.0215
   79CHL1  H18C 8282   1.101   3.218   7.649 -2.1300  0.6927  0.4647
   79CHL1   C12 8283   1.303   2.997   7.676 -0.1925  0.3293  0.2014
   79CHL1  H12A 8284   1.370   3.060   7.738 -0.8451 -0.8266  2.1750
   79CHL1  H12B 8285   1.335   2.890   7.680 -1.4042 -0.0698 -0.3158
   79CHL1   C11 8286   1.316   3.043   7.533 -0.2921 -0.1482  0.3739
   79CHL1  H11A 8287   1.304   3.153   7.538 -0.2652 -0.2046  2.2839
   79CHL1  H11B 8288   1.423   3.023   7.509 -0.7594 -0.4954 -1.5978
   79CHL1    C9 8289   1.218   2.978   7.426  0.2128  0.5906 -0.0154
   79CHL1    H9 8290   1.244   2.870   7.427  0.9446  0.7565  1.2535
   79CHL1   C10 8291   1.227   3.028   7.281  0.2263  0.0695  0.2795
   79CHL1   C19 8292   1.207   3.182   7.272  0.0047 -0.5383 -0.0917
   79CHL1  H19A 8293   1.214   3.213   7.165  0.1120  1.8700  0.5420
   79CHL1  H19B 8294   1.101   3.208   7.292 -0.0755  0.8912 -2.0209
   79CHL1  H19C 8295   1.271   3.242   7.340 -1.6216  1.2408 -0.0522
   79CHL1    C1 8296   1.367   2.988   7.225 -0.1929  0.2702 -0.0444
   79CHL1   H1A 8297   1.449   3.048   7.269  0.0920 -1.7371  2.3746
   79CHL1   H1B 8298   1.378   2.878   7.226 -1.8448  0.0818  0.6755
   79CHL1    C2 8299   1.379   3.001   7.069 -0.0275 -0.0711 -0.0139
   79CHL1   H2A 8300   1.477   2.959   7.038 -0.8035 -1.7421 -0.2756
   79CHL1   H2B 8301   1.372   3.108   7.039 -4.0900 -0.8145 -2.5296
   79CHL1   C20 8302   1.143   2.982   7.995  0.0666  0.5183 -0.0104
   79CHL1   H20 8303   1.118   3.091   7.997 -1.8994  0.0935  0.4706
   79CHL1   C21 8304   1.292   2.980   8.010 -0.7600 -0.1712  0.2848
   79CHL1  H21A 8305   1.333   3.050   7.934 -2.6314  2.0601  1.2083
   79CHL1  H21B 8306   1.326   2.875   7.996 -0.3876  0.0964 -0.9234
   79CHL1  H21C 8307   1.337   3.012   8.106  0.7407  0.4996 -0.6058
   79CHL1   C22 8308   1.078   2.915   8.120  0.1241  0.2165  0.1624
   79CHL1  H22A 8309   1.129   2.928   8.217  0.9801  0.3350 -0.2877
   79CHL1  H22B 8310   0.973   2.949   8.127  0.1267  0.3393 -0.3175
   79CHL1   C23 8311   1.075   2.755   8.110  0.3954 -0.4211  0.3654
   79CHL1  H23A 8312   1.005   2.716   8.033  0.0942  0.8390 -0.0203
   79CHL1  H23B 8313   1.178   2.733   8.075  0.3872 -0.6371  0.4795
   79CHL1   C24 8314   1.031   2.696   8.252 -0.0529 -0.2921  0.6297
   79CHL1  H24A 8315   1.094   2.730   8.337 -0.1694  2.1260 -0.1554
   79CHL1  H24B 8316   0.929   2.733   8.275  0.7479  2.3096  0.3951
   79CHL1   C25 8317   1.018   2.548   8.259 -0.2645  0.2739 -0.1279
   79CHL1   H25 8318   1.020   2.502   8.158 -0.7547  0.5072 -0.2495
   79CHL1   C26 8319   1.140   2.477   8.320  0.0745  0.2305 -0.4099
   79CHL1  H26A 8320   1.131   2.366   8.318  0.5494 -0.1848  4.9910
   79CHL1  H26B 8321   1.235   2.516   8.277 -0.5825 -0.5576 -2.7223
   79CHL1  H26C 8322   1.143   2.497   8.429  0.5055 -0.3117 -0.3207
   79CHL1   C27 8323   0.891   2.491   8.320 -0.5523 -0.3129  0.3050
   79CHL1  H27A 8324   0.904   2.381   8.322 -2.0624 -0.5909 -1.8389
   79CHL1  H27B 8325   0.881   2.523   8.426  1.4109  1.0015  0.1403
   79CHL1  H27C 8326   0.800   2.506   8.258  0.6912 -0.8438 -1.7515
   80CHL1    C3 8327   3.744   0.500   6.815 -0.0058  0.5226 -0.2972
   80CHL1    H3 8328   3.796   0.411   6.774 -0.3115  0.7556 -1.2094
   80CHL1    O3 8329   3.715   0.582   6.702  0.1481 -0.0308  0.4863
   80CHL1   H3' 8330   3.619   0.583   6.698  0.1276  1.3753  0.7526
   80CHL1    C4 8331   3.617   0.461   6.880  0.4527  0.7035  0.2825
   80CHL1   H4A 8332   3.548   0.548   6.884  0.8772  1.0140  3.0183
   80CHL1   H4B 8333   3.574   0.391   6.805  0.9776  1.3239 -0.6186
   80CHL1    C5 8334   3.631   0.397   7.018 -0.8811 -0.2186  0.5927
   80CHL1    C6 8335   3.577   0.278   7.046 -0.0490 -0.0624  0.3504
   80CHL1    H6 8336   3.508   0.221   6.981 -0.6367  0.3734  0.5839
   80CHL1    C7 8337   3.593   0.204   7.177  0.2395  0.3605 -0.2693
   80CHL1   H7A 8338   3.496   0.159   7.208 -1.0637  2.1298 -1.5918
   80CHL1   H7B 8339   3.652   0.112   7.159  2.2198  1.3768  0.6842
   80CHL1    C8 8340   3.659   0.281   7.283 -0.4106 -0.0859  0.3691
   80CHL1    H8 8341   3.591   0.360   7.323  1.8009  2.4752 -0.5933
   80CHL1   C14 8342   3.703   0.194   7.394  0.5607 -0.0086 -0.6069
   80CHL1   H14 8343   3.773   0.115   7.359 -1.8041 -2.6531  0.2868
   80CHL1   C15 8344   3.582   0.127   7.473  0.3026 -0.2528 -0.2179
   80CHL1  H15A 8345   3.493   0.191   7.488 -0.2339 -1.1293  0.4070
   80CHL1  H15B 8346   3.542   0.039   7.419 -0.2556  0.9539 -1.8213
   80CHL1   C16 8347   3.641   0.089   7.605 -0.3865 -0.3869 -0.1412
   80CHL1  H16A 8348   3.571   0.110   7.689  1.2705  1.2062  0.9109
   80CHL1  H16B 8349   3.657  -0.021   7.607  0.3188 -0.2815  0.9980
   80CHL1   C17 8350   3.778   0.156   7.617  0.2736  0.1888 -0.5259
   80CHL1   H17 8351   3.858   0.090   7.577  0.1800 -1.8273  2.3121
   80CHL1   C13 8352   3.772   0.269   7.512 -0.4251 -0.1714 -0.3909
   80CHL1   C18 8353   3.680   0.386   7.567  0.0718  0.1522  0.4934
   80CHL1  H18A 8354   3.577   0.358   7.601 -0.5200  1.2442 -0.3602
   80CHL1  H18B 8355   3.741   0.431   7.648  0.3863 -2.0430  1.5704
   80CHL1  H18C 8356   3.669   0.462   7.487  1.3455  1.6149  1.6422
   80CHL1   C12 8357   3.904   0.332   7.457 -0.3249 -0.6296 -0.6412
   80CHL1  H12A 8358   3.958   0.398   7.528 -1.8732  1.6010 -1.4233
   80CHL1  H12B 8359   3.969   0.247   7.427 -0.4564 -0.7699 -0.5308
   80CHL1   C11 8360   3.876   0.425   7.327 -0.1487  0.2789 -0.6194
   80CHL1  H11A 8361   3.835   0.522   7.361  2.0009  1.1448 -0.3284
   80CHL1  H11B 8362   3.965   0.455   7.268  0.3301  1.0942  0.4807
   80CHL1    C9 8363   3.780   0.360   7.224 -0.6253  0.0280 -0.1454
   80CHL1    H9 8364   3.840   0.277   7.180 -0.6125 -0.6215  1.0457
   80CHL1   C10 8365   3.737   0.460   7.110  0.2556 -0.2863  0.8071
   80CHL1   C19 8366   3.666   0.583   7.165 -0.0921 -0.4022 -0.0767
   80CHL1  H19A 8367   3.620   0.649   7.089  0.3298  0.0455  0.0502
   80CHL1  H19B 8368   3.590   0.568   7.244 -0.0122  3.2767  0.8603
   80CHL1  H19C 8369   3.748   0.647   7.204 -0.3294  0.2690 -0.6604
   80CHL1    C1 8370   3.860   0.504   7.033 -0.2290 -0.4107 -0.0348
   80CHL1   H1A 8371   3.934   0.557   7.097 -3.0150  0.3360  2.8670
   80CHL1   H1B 8372   3.910   0.411   7.001  2.6994  1.0739 -0.0878
   80CHL1    C2 8373   3.835   0.581   6.907 -0.0573 -0.5455  0.1447
   80CHL1   H2A 8374   3.919   0.626   6.850 -0.1690 -1.2023 -0.5601
   80CHL1   H2B 8375   3.772   0.667   6.939 -1.1225 -0.9592 -0.7779
   80CHL1   C20 8376   3.812   0.191   7.762 -0.2281 -0.0892  0.1713
   80CHL1   H20 8377   3.744   0.274   7.793  1.0056  0.9671  0.1626
   80CHL1   C21 8378   3.954   0.257   7.759 -0.4512  0.1602 -0.3280
   80CHL1  H21A 8379   4.006   0.263   7.857 -1.8624  0.2132  0.4526
   80CHL1  H21B 8380   3.948   0.364   7.730  0.6984  0.5025  0.5987
   80CHL1  H21C 8381   4.025   0.196   7.699  1.5278  1.9631  0.0398
   80CHL1   C22 8382   3.797   0.074   7.864  0.1000 -0.0791 -0.5730
   80CHL1  H22A 8383   3.691   0.040   7.860 -1.2971  3.8952 -1.7875
   80CHL1  H22B 8384   3.869  -0.008   7.844  0.6415  0.1160  0.5018
   80CHL1   C23 8385   3.822   0.121   8.007 -0.1672  0.3394  0.2145
   80CHL1  H23A 8386   3.932   0.133   8.001 -0.5201  3.7214 -2.8928
   80CHL1  H23B 8387   3.780   0.222   8.027  0.6013  0.3611  1.9031
   80CHL1   C24 8388   3.788   0.022   8.115 -0.2673 -0.1098 -0.3593
   80CHL1  H24A 8389   3.681  -0.005   8.106 -0.3517  0.1621 -0.1835
   80CHL1  H24B 8390   3.855  -0.066   8.106  0.2251  0.0626  1.3015
   80CHL1   C25 8391   3.804   0.081   8.258 -0.7632 -0.1727 -0.1526
   80CHL1   H25 8392   3.752   0.179   8.245 -3.9582 -1.5034  1.4558
   80CHL1   C26 8393   3.724  -0.010   8.360 -0.2979  0.2430 -0.5682
   80CHL1  H26A 8394   3.619  -0.031   8.330 -0.2011  0.3747 -1.0168
   80CHL1  H26B 8395   3.777  -0.107   8.367 -0.8259 -0.0559 -0.6975
   80CHL1  H26C 8396   3.725   0.032   8.463  0.3081  0.0079 -0.4745
   80CHL1   C27 8397   3.942   0.099   8.310 -0.3229  0.4081 -0.2340
   80CHL1  H27A 8398   3.993   0.170   8.242  1.1190 -0.8578 -0.5235
   80CHL1  H27B 8399   3.942   0.128   8.418  1.4432 -0.8851  0.1560
   80CHL1  H27C 8400   4.007   0.011   8.294 -1.3407 -0.6778  1.3562
   81CHL1    C3 8401   5.076   4.133   6.706 -0.4675  0.2386  0.2597
   81CHL1    H3 8402   5.031   4.032   6.694  0.6448 -0.1589 -0.9375
   81CHL1    O3 8403   5.133   4.178   6.583  0.7286  1.1255 -0.2054
   81CHL1   H3' 8404   5.117   4.271   6.571  0.7675  1.3582  1.3402
   81CHL1    C4 8405   4.960   4.224   6.750  0.5802 -0.2455  0.0514
   81CHL1   H4A 8406   4.987   4.330   6.766 -0.1691 -0.2190  1.2678
   81CHL1   H4B 8407   4.889   4.216   6.665  0.0517 -0.4716  0.5067
   81CHL1    C5 8408   4.897   4.171   6.878 -0.6850  0.0860  0.4161
   81CHL1    C6 8409   4.768   4.135   6.894 -0.3260  0.1083  0.4773
   81CHL1    H6 8410   4.703   4.162   6.810  1.1066  0.2519 -0.6263
   81CHL1    C7 8411   4.710   4.083   7.012 -0.2794 -0.2993 -0.0725
   81CHL1   H7A 8412   4.621   4.144   7.037 -0.2178  0.1462 -0.9081
   81CHL1   H7B 8413   4.680   3.976   7.008 -0.0745 -0.3215 -1.5945
   81CHL1    C8 8414   4.799   4.100   7.139  0.7136  0.1117  0.9010
   81CHL1    H8 8415   4.782   4.203   7.178  1.4575  0.4336  0.4176
   81CHL1   C14 8416   4.751   3.999   7.249 -0.5489 -0.3429 -0.7704
   81CHL1   H14 8417   4.781   3.902   7.204  3.2528  0.3260 -0.0402
   81CHL1   C15 8418   4.599   3.987   7.277 -0.3021  0.1637  0.1381
   81CHL1  H15A 8419   4.565   4.093   7.285 -2.9578 -0.3826 -2.3875
   81CHL1  H15B 8420   4.547   3.939   7.192 -2.7394  0.8957  1.1206
   81CHL1   C16 8421   4.593   3.910   7.415 -0.7285 -0.1390  1.0704
   81CHL1  H16A 8422   4.522   3.960   7.484  1.0051  1.7794  1.5419
   81CHL1  H16B 8423   4.566   3.803   7.399 -2.2899  0.4235 -0.3721
   81CHL1   C17 8424   4.736   3.925   7.473 -0.1023  0.3126 -0.0015
   81CHL1   H17 8425   4.789   3.829   7.456 -0.8818 -0.0783 -0.2989
   81CHL1   C13 8426   4.815   4.016   7.376 -0.0389  0.2952 -0.3778
   81CHL1   C18 8427   4.800   4.170   7.434 -0.3694  0.3806  0.4169
   81CHL1  H18A 8428   4.691   4.188   7.438 -0.7300 -0.7751 -2.2232
   81CHL1  H18B 8429   4.843   4.169   7.536 -0.8225 -4.3730  0.7816
   81CHL1  H18C 8430   4.856   4.253   7.385  0.7410  0.2019  1.3288
   81CHL1   C12 8431   4.966   3.989   7.356  0.3497 -0.3522 -0.5490
   81CHL1  H12A 8432   5.005   4.015   7.457  0.5687  0.1902 -0.7723
   81CHL1  H12B 8433   4.970   3.881   7.328 -1.7171 -0.4737 -0.4873
   81CHL1   C11 8434   5.017   4.083   7.249 -0.0006 -0.3827  0.4306
   81CHL1  H11A 8435   5.034   4.184   7.292  0.2369 -0.3285  0.2169
   81CHL1  H11B 8436   5.116   4.041   7.223  1.1015  2.2346  0.0355
   81CHL1    C9 8437   4.946   4.077   7.108  0.2072 -0.1190  0.1434
   81CHL1    H9 8438   4.946   3.970   7.079 -2.9988  0.1881 -1.4446
   81CHL1   C10 8439   5.001   4.151   6.988 -0.3105  0.3026 -0.4429
   81CHL1   C19 8440   5.025   4.300   7.037 -0.1654  0.7443  0.0946
   81CHL1  H19A 8441   4.929   4.346   7.070 -0.5988  1.0625 -1.5425
   81CHL1  H19B 8442   5.092   4.306   7.126 -1.4662  0.5934  1.1145
   81CHL1  H19C 8443   5.076   4.361   6.959  0.8849  0.9275  0.8893
   81CHL1    C1 8444   5.137   4.080   6.956 -0.0291  0.2083 -0.1138
   81CHL1   H1A 8445   5.216   4.093   7.032  0.0930  1.2696 -0.4036
   81CHL1   H1B 8446   5.123   3.970   6.946  0.3277  0.0977  0.5564
   81CHL1    C2 8447   5.184   4.128   6.817 -0.1287 -1.2112  0.4868
   81CHL1   H2A 8448   5.272   4.072   6.780  0.2282 -0.5178  0.2719
   81CHL1   H2B 8449   5.214   4.234   6.832  0.0417 -1.0775 -0.7218
   81CHL1   C20 8450   4.733   3.938   7.627 -0.4073 -0.8367 -0.4694
   81CHL1   H20 8451   4.669   4.025   7.653  1.5742  0.2423  1.0833
   81CHL1   C21 8452   4.873   3.955   7.693  0.2486  0.2217 -0.1381
   81CHL1  H21A 8453   4.862   3.940   7.802 -3.4517 -2.6929 -0.7332
   81CHL1  H21B 8454   4.932   4.049   7.681 -0.3536  1.1443  3.1769
   81CHL1  H21C 8455   4.936   3.876   7.648  1.5190  1.0568  0.1243
   81CHL1   C22 8456   4.665   3.817   7.694 -0.1131  0.2374  0.8604
   81CHL1  H22A 8457   4.642   3.733   7.625  0.7198  0.0125  0.8411
   81CHL1  H22B 8458   4.745   3.762   7.748  2.3375 -1.5159 -3.9416
   81CHL1   C23 8459   4.555   3.858   7.785  0.1851 -0.6924  0.3367
   81CHL1  H23A 8460   4.581   3.953   7.836 -0.7541  0.5647 -1.4361
   81CHL1  H23B 8461   4.458   3.869   7.731  0.8069 -0.9993 -0.8812
   81CHL1   C24 8462   4.539   3.753   7.904 -0.0475 -0.3571  1.0039
   81CHL1  H24A 8463   4.503   3.655   7.869  0.6724 -1.1443  2.3870
   81CHL1  H24B 8464   4.633   3.739   7.962  0.2419  0.7019  0.8113
   81CHL1   C25 8465   4.445   3.807   8.024 -0.5362  0.5793 -0.1035
   81CHL1   H25 8466   4.487   3.907   8.049  2.5664 -0.7896  0.7066
   81CHL1   C26 8467   4.297   3.826   7.977 -0.4684 -0.7615 -0.1312
   81CHL1  H26A 8468   4.299   3.876   7.878  1.8524 -1.0358 -0.2782
   81CHL1  H26B 8469   4.261   3.722   7.968 -0.2982 -0.7859 -0.5523
   81CHL1  H26C 8470   4.237   3.879   8.053  0.3926  0.4293 -0.2517
   81CHL1   C27 8471   4.458   3.716   8.152 -0.0435 -0.2140 -0.8140
   81CHL1  H27A 8472   4.389   3.757   8.230  0.5415  0.2349 -0.5183
   81CHL1  H27B 8473   4.425   3.615   8.122 -2.2845  0.3119 -0.2825
   81CHL1  H27C 8474   4.563   3.702   8.187 -0.4768 -3.6609 -0.5798
   82CHL1    C3 8475   3.904   1.466   6.880 -0.5031  0.6539 -0.2130
   82CHL1    H3 8476   3.925   1.360   6.855  1.9133  1.2413 -0.9253
   82CHL1    O3 8477   3.895   1.527   6.759  0.3577 -0.6132  0.3821
   82CHL1   H3' 8478   3.975   1.579   6.747  0.5543 -1.2329 -1.2105
   82CHL1    C4 8479   3.769   1.481   6.963 -0.2885  0.0646 -0.0429
   82CHL1   H4A 8480   3.756   1.589   6.982 -3.2317 -0.3771  1.0347
   82CHL1   H4B 8481   3.684   1.450   6.897 -0.1924 -2.7978  1.0395
   82CHL1    C5 8482   3.787   1.412   7.094 -0.4783 -0.4949  0.1362
   82CHL1    C6 8483   3.704   1.315   7.129  0.4072 -0.0031 -0.1207
   82CHL1    H6 8484   3.619   1.294   7.062 -0.8719  1.1690  1.0754
   82CHL1    C7 8485   3.688   1.258   7.272 -0.6039 -0.2345  0.0305
   82CHL1   H7A 8486   3.584   1.251   7.311  0.1956 -1.8143  2.0928
   82CHL1   H7B 8487   3.720   1.152   7.274  1.4470  0.2845 -1.6555
   82CHL1    C8 8488   3.778   1.341   7.371 -0.3993 -0.1989  0.7208
   82CHL1    H8 8489   3.722   1.434   7.394 -2.5850 -0.9352 -1.1781
   82CHL1   C14 8490   3.794   1.266   7.510  1.0130 -0.0383 -0.2253
   82CHL1   H14 8491   3.815   1.160   7.484 -2.7581 -1.0602  0.1676
   82CHL1   C15 8492   3.664   1.237   7.584  0.1617  0.4491  0.1243
   82CHL1  H15A 8493   3.599   1.326   7.598 -1.6342 -0.4731 -1.7835
   82CHL1  H15B 8494   3.605   1.158   7.532 -0.4855 -0.6491  2.3997
   82CHL1   C16 8495   3.719   1.170   7.714 -0.5466  0.2080 -0.0010
   82CHL1  H16A 8496   3.659   1.203   7.802 -1.8043 -2.4497  0.2471
   82CHL1  H16B 8497   3.729   1.060   7.706 -0.2011  0.0563  2.1364
   82CHL1   C17 8498   3.867   1.211   7.721 -0.1259 -0.4902  0.9330
   82CHL1   H17 8499   3.912   1.114   7.691  0.0784 -0.1346  0.0565
   82CHL1   C13 8500   3.892   1.320   7.607  0.2671 -0.0570 -0.1411
   82CHL1   C18 8501   3.845   1.447   7.668 -0.3563 -0.2048 -0.3514
   82CHL1  H18A 8502   3.769   1.422   7.745  1.0534 -3.0254  0.2770
   82CHL1  H18B 8503   3.921   1.514   7.714 -2.1034 -0.4330  3.1788
   82CHL1  H18C 8504   3.798   1.503   7.585 -2.2839  2.3440  2.2727
   82CHL1   C12 8505   4.030   1.329   7.537 -0.0453 -0.1300 -0.5348
   82CHL1  H12A 8506   4.105   1.369   7.609 -2.0359  0.9441  1.0980
   82CHL1  H12B 8507   4.062   1.225   7.516 -0.1912 -0.8896  2.4517
   82CHL1   C11 8508   4.022   1.415   7.415 -0.4457 -0.4705 -0.1627
   82CHL1  H11A 8509   3.998   1.520   7.443 -1.0112 -0.3467 -1.0666
   82CHL1  H11B 8510   4.123   1.404   7.371 -0.8285 -3.5481 -0.5420
   82CHL1    C9 8511   3.913   1.363   7.311 -0.4702  0.0404  0.0496
   82CHL1    H9 8512   3.952   1.262   7.285 -1.6950 -0.7799  1.2591
   82CHL1   C10 8513   3.903   1.446   7.184 -0.6613  0.4956 -0.3134
   82CHL1   C19 8514   3.900   1.599   7.232  0.9279  0.6767  0.3226
   82CHL1  H19A 8515   3.880   1.669   7.149 -2.4800 -2.0287 -1.4074
   82CHL1  H19B 8516   3.806   1.617   7.289  0.4940 -2.3276  0.7104
   82CHL1  H19C 8517   3.993   1.644   7.272  1.3189 -0.1876  0.4148
   82CHL1    C1 8518   4.026   1.434   7.098 -0.5475 -0.0623  0.1409
   82CHL1   H1A 8519   4.111   1.489   7.143  0.7160 -0.3435 -1.7780
   82CHL1   H1B 8520   4.062   1.331   7.081 -0.9442 -0.0296 -0.9580
   82CHL1    C2 8521   4.018   1.513   6.963  1.1158 -1.0798 -0.2436
   82CHL1   H2A 8522   4.112   1.500   6.905  0.4846 -0.0722 -1.5498
   82CHL1   H2B 8523   4.000   1.622   6.976 -1.6041 -1.2582 -1.7139
   82CHL1   C20 8524   3.917   1.230   7.868  0.2983 -0.0405 -0.0625
   82CHL1   H20 8525   3.873   1.324   7.907 -0.3256  0.0105 -0.8683
   82CHL1   C21 8526   4.069   1.259   7.857  0.7133 -0.2297 -0.9101
   82CHL1  H21A 8527   4.120   1.170   7.813  0.1892 -1.8167  1.4839
   82CHL1  H21B 8528   4.110   1.265   7.960 -2.2224 -0.3963  0.3612
   82CHL1  H21C 8529   4.090   1.343   7.788  0.4849  0.5334 -0.0611
   82CHL1   C22 8530   3.883   1.117   7.963  0.0349  0.0879 -0.2234
   82CHL1  H22A 8531   3.773   1.103   7.970  0.2649 -1.2546  1.7080
   82CHL1  H22B 8532   3.919   1.019   7.924  1.1720 -0.9958  3.1246
   82CHL1   C23 8533   3.939   1.134   8.106 -0.3860 -0.5846  0.3037
   82CHL1  H23A 8534   4.046   1.107   8.096  0.2832  1.4115  1.5642
   82CHL1  H23B 8535   3.938   1.240   8.139 -3.8635 -0.9699  1.9160
   82CHL1   C24 8536   3.874   1.045   8.211  0.0701  0.5811  0.6038
   82CHL1  H24A 8537   3.770   1.072   8.238  0.2200  0.4041  1.3887
   82CHL1  H24B 8538   3.869   0.943   8.167 -1.5487  0.6249  0.6288
   82CHL1   C25 8539   3.942   1.054   8.349  0.2258 -0.5005 -0.1628
   82CHL1   H25 8540   3.936   1.159   8.386 -1.6446 -0.7348  0.2979
   82CHL1   C26 8541   3.857   0.980   8.455  0.1186  0.2408 -0.1554
   82CHL1  H26A 8542   3.758   1.030   8.458 -0.2476 -0.5115  1.1362
   82CHL1  H26B 8543   3.847   0.872   8.432  2.8106 -0.4542  1.6044
   82CHL1  H26C 8544   3.899   0.980   8.558 -1.2899 -1.3836  0.4710
   82CHL1   C27 8545   4.090   1.016   8.339  0.4382 -0.0789  0.1700
   82CHL1  H27A 8546   4.155   1.103   8.314 -2.2266  2.3109  0.9998
   82CHL1  H27B 8547   4.129   0.983   8.437 -1.5766  0.3379  1.1705
   82CHL1  H27C 8548   4.095   0.935   8.263 -0.3903  0.2168 -0.2131
   83CHL1    C3 8549   3.613   2.948   6.910 -0.5883 -0.1481  0.6488
   83CHL1    H3 8550   3.701   2.885   6.934  1.3725  2.5023  0.8869
   83CHL1    O3 8551   3.609   2.983   6.774  0.0586  0.1164  0.0962
   83CHL1   H3' 8552   3.675   3.050   6.757 -1.0056  1.2935  0.3811
   83CHL1    C4 8553   3.482   2.886   6.943 -0.2536 -0.5785 -0.1653
   83CHL1   H4A 8554   3.402   2.959   6.919  2.2010  1.4334 -2.7788
   83CHL1   H4B 8555   3.466   2.795   6.881 -0.7232 -0.8734  0.3696
   83CHL1    C5 8556   3.486   2.846   7.089 -0.2995 -0.3619 -0.5852
   83CHL1    C6 8557   3.445   2.722   7.125  0.3702 -0.2534 -0.3668
   83CHL1    H6 8558   3.411   2.652   7.047 -0.5553 -0.7460  0.4515
   83CHL1    C7 8559   3.438   2.667   7.265 -0.3079  0.0410 -0.2348
   83CHL1   H7A 8560   3.348   2.604   7.280  0.1310 -0.5096  0.1437
   83CHL1   H7B 8561   3.527   2.604   7.287  2.0263  3.6782  1.7598
   83CHL1    C8 8562   3.456   2.781   7.375  0.4418  0.1368  0.3291
   83CHL1    H8 8563   3.358   2.833   7.384  0.4239  0.1140  0.2656
   83CHL1   C14 8564   3.494   2.720   7.505  0.8467 -0.0165 -0.5590
   83CHL1   H14 8565   3.592   2.675   7.480  0.9003  0.7769 -1.8731
   83CHL1   C15 8566   3.398   2.611   7.565 -0.2437  0.5891  0.2735
   83CHL1  H15A 8567   3.291   2.640   7.563 -0.6868 -0.9983 -0.2998
   83CHL1  H15B 8568   3.418   2.527   7.494 -0.0898  2.0017 -1.4410
   83CHL1   C16 8569   3.459   2.590   7.707  0.4305 -0.3226 -0.9038
   83CHL1  H16A 8570   3.380   2.583   7.785 -0.9146  3.0444 -1.7675
   83CHL1  H16B 8571   3.526   2.502   7.713  1.0194  0.1497 -0.3514
   83CHL1   C17 8572   3.547   2.716   7.729 -0.0594  0.0802 -0.1937
   83CHL1   H17 8573   3.650   2.676   7.712 -0.1485  0.0051 -0.5610
   83CHL1   C13 8574   3.521   2.822   7.617  0.0655 -0.6311  0.0600
   83CHL1   C18 8575   3.392   2.904   7.651 -0.4808 -0.0312  0.0393
   83CHL1  H18A 8576   3.365   2.972   7.568 -2.4178  0.5288  1.0741
   83CHL1  H18B 8577   3.302   2.842   7.670 -2.9537  3.2795 -0.0420
   83CHL1  H18C 8578   3.405   2.962   7.745  0.6584 -0.9450  0.4837
   83CHL1   C12 8579   3.639   2.909   7.574 -0.2591 -0.5647  0.1762
   83CHL1  H12A 8580   3.669   2.986   7.649  0.2871 -0.7041  0.1073
   83CHL1  H12B 8581   3.726   2.845   7.549  1.2112  2.0287 -1.9484
   83CHL1   C11 8582   3.603   2.981   7.446  0.3218 -0.4088 -0.2873
   83CHL1  H11A 8583   3.526   3.057   7.471 -0.5036 -0.9313 -1.2043
   83CHL1  H11B 8584   3.690   3.044   7.416 -1.0795  1.7845  0.0329
   83CHL1    C9 8585   3.571   2.882   7.331 -0.2347 -0.3498  0.4924
   83CHL1    H9 8586   3.664   2.824   7.317  1.4763  1.9336  1.6076
   83CHL1   C10 8587   3.540   2.949   7.193 -0.2521 -0.4021 -0.1239
   83CHL1   C19 8588   3.434   3.053   7.225 -0.3923  0.5056  0.6734
   83CHL1  H19A 8589   3.352   3.019   7.292  0.2110  0.3197  1.3373
   83CHL1  H19B 8590   3.486   3.144   7.263  1.5423 -0.1804 -0.1747
   83CHL1  H19C 8591   3.396   3.094   7.130  0.4247 -1.5287 -0.6194
   83CHL1    C1 8592   3.671   3.011   7.139 -0.0100 -0.7564 -0.6944
   83CHL1   H1A 8593   3.691   3.093   7.211 -2.6579 -1.9060  1.5441
   83CHL1   H1B 8594   3.762   2.948   7.137  0.6209  0.0645  0.6301
   83CHL1    C2 8595   3.638   3.072   7.006  0.9385 -0.5125 -0.3348
   83CHL1   H2A 8596   3.721   3.138   6.973  1.5236 -0.2031  1.6347
   83CHL1   H2B 8597   3.551   3.142   7.008  0.9877 -0.3536 -2.2392
   83CHL1   C20 8598   3.548   2.775   7.873  0.3931 -0.0298 -0.3094
   83CHL1   H20 8599   3.582   2.879   7.852  0.3927  0.0430  0.0462
   83CHL1   C21 8600   3.652   2.708   7.959  0.2965  0.2563  0.7471
   83CHL1  H21A 8601   3.755   2.740   7.930 -0.5712  3.2905  0.7097
   83CHL1  H21B 8602   3.638   2.598   7.958  0.2863  0.2617 -0.1886
   83CHL1  H21C 8603   3.640   2.745   8.063 -0.1916  1.2929  0.3282
   83CHL1   C22 8604   3.410   2.778   7.952 -0.0279 -0.5590  1.1127
   83CHL1  H22A 8605   3.325   2.787   7.881  2.2807  0.8004 -1.6761
   83CHL1  H22B 8606   3.402   2.681   8.005  1.3911 -0.0360  2.3396
   83CHL1   C23 8607   3.399   2.893   8.059 -0.4150  0.0368 -0.0950
   83CHL1  H23A 8608   3.484   2.880   8.130  0.5891 -0.1277 -1.2831
   83CHL1  H23B 8609   3.411   2.991   8.008 -1.5278  0.2129 -0.0289
   83CHL1   C24 8610   3.269   2.891   8.133  0.2190  0.1587 -0.1196
   83CHL1  H24A 8611   3.186   2.892   8.060  0.7122 -2.1493 -0.7878
   83CHL1  H24B 8612   3.267   2.787   8.173 -0.0792  0.4640  0.6765
   83CHL1   C25 8613   3.236   2.986   8.249 -0.2766 -0.6637 -0.2511
   83CHL1   H25 8614   3.315   3.006   8.325 -2.5072  3.0028  1.4039
   83CHL1   C26 8615   3.178   3.127   8.214  0.4117  0.7830  0.5693
   83CHL1  H26A 8616   3.127   3.178   8.298  1.5409  2.3301  0.3699
   83CHL1  H26B 8617   3.248   3.207   8.180  0.6967  1.1892  2.0272
   83CHL1  H26C 8618   3.108   3.115   8.128  0.4840  0.8421  0.5020
   83CHL1   C27 8619   3.128   2.906   8.337 -0.1901 -0.2506 -0.4110
   83CHL1  H27A 8620   3.171   2.806   8.360 -0.4070 -0.8373 -2.3469
   83CHL1  H27B 8621   3.110   2.964   8.430 -1.3733  1.2209 -1.5127
   83CHL1  H27C 8622   3.036   2.880   8.280  0.8852 -2.1378 -1.3997
   84CHL1    C3 8623   4.175   3.806   6.745  0.0843 -0.6318 -0.4170
   84CHL1    H3 8624   4.075   3.852   6.760 -0.5363 -2.2000  0.4993
   84CHL1    O3 8625   4.218   3.838   6.615  0.2016  0.4333  0.3512
   84CHL1   H3' 8626   4.311   3.817   6.617  0.1816 -0.1090  4.3912
   84CHL1    C4 8627   4.274   3.873   6.846  0.4603  0.1102 -0.2566
   84CHL1   H4A 8628   4.376   3.858   6.805  1.5160  2.2000  1.4070
   84CHL1   H4B 8629   4.257   3.982   6.851  1.1646  0.1841  2.2341
   84CHL1    C5 8630   4.258   3.821   6.985 -0.5487  0.5011 -0.2293
   84CHL1    C6 8631   4.249   3.900   7.096  0.1982  0.0466 -0.7097
   84CHL1    H6 8632   4.260   4.009   7.086  0.6148  0.2857  1.7620
   84CHL1    C7 8633   4.237   3.860   7.235  0.1992  0.3432 -0.2715
   84CHL1   H7A 8634   4.292   3.930   7.302 -1.0570  2.1131 -1.0241
   84CHL1   H7B 8635   4.131   3.871   7.266 -0.1625 -2.6125 -0.1030
   84CHL1    C8 8636   4.271   3.708   7.258 -0.0802  0.0946  0.0808
   84CHL1    H8 8637   4.381   3.695   7.254 -0.1849 -1.3945  1.4758
   84CHL1   C14 8638   4.217   3.659   7.389 -0.6697  0.1860  0.1076
   84CHL1   H14 8639   4.108   3.640   7.378 -0.3792 -2.3235  0.8538
   84CHL1   C15 8640   4.241   3.749   7.511 -0.0576 -0.3005  0.1427
   84CHL1  H15A 8641   4.340   3.799   7.504 -0.4160  0.3114 -0.8393
   84CHL1  H15B 8642   4.172   3.836   7.516 -0.5250 -0.7111  0.8488
   84CHL1   C16 8643   4.237   3.655   7.632  0.3409 -0.6979 -0.5159
   84CHL1  H16A 8644   4.333   3.646   7.687  0.3894  0.4260 -0.4010
   84CHL1  H16B 8645   4.156   3.688   7.701  0.3336  0.0780 -0.8853
   84CHL1   C17 8646   4.196   3.514   7.574  0.4978 -0.4576  0.0717
   84CHL1   H17 8647   4.086   3.505   7.564  0.1599  1.7866  1.2369
   84CHL1   C13 8648   4.253   3.520   7.435 -0.0766  0.3607 -0.1079
   84CHL1   C18 8649   4.409   3.508   7.444 -0.1799  0.5239 -0.2339
   84CHL1  H18A 8650   4.448   3.517   7.341 -0.7112 -0.7767 -0.5632
   84CHL1  H18B 8651   4.452   3.582   7.515 -2.7955  1.9843 -0.0302
   84CHL1  H18C 8652   4.443   3.405   7.468 -0.6676  0.7537  1.6030
   84CHL1   C12 8653   4.191   3.428   7.323 -0.0390 -0.4287  0.7245
   84CHL1  H12A 8654   4.216   3.320   7.333  0.7289 -0.2209  1.1894
   84CHL1  H12B 8655   4.081   3.436   7.334 -0.0031 -1.4417  2.1095
   84CHL1   C11 8656   4.232   3.476   7.188  0.4921 -0.2242  0.1448
   84CHL1  H11A 8657   4.340   3.455   7.171  0.7934  1.9736 -1.0655
   84CHL1  H11B 8658   4.170   3.423   7.113 -0.7977  2.0488 -0.4890
   84CHL1    C9 8659   4.209   3.624   7.148  0.2855 -0.7120  0.8525
   84CHL1    H9 8660   4.099   3.639   7.154  0.2076 -1.1917  0.6554
   84CHL1   C10 8661   4.248   3.666   7.003 -0.1053  0.2102 -0.5093
   84CHL1   C19 8662   4.394   3.610   6.968 -0.3063 -0.0218 -0.2902
   84CHL1  H19A 8663   4.467   3.637   7.047 -0.5160 -0.3776  0.0252
   84CHL1  H19B 8664   4.390   3.499   6.966  0.8574 -0.0801 -0.4532
   84CHL1  H19C 8665   4.417   3.630   6.861  0.8648 -2.4952 -0.5745
   84CHL1    C1 8666   4.138   3.613   6.908 -0.2048 -0.1642  0.5857
   84CHL1   H1A 8667   4.141   3.502   6.908 -1.7919 -0.2472 -0.8957
   84CHL1   H1B 8668   4.034   3.636   6.938 -0.8229 -3.0678  0.9647
   84CHL1    C2 8669   4.165   3.656   6.761  0.1396  0.5035 -0.7631
   84CHL1   H2A 8670   4.088   3.618   6.690 -1.2151  0.5196  0.6591
   84CHL1   H2B 8671   4.258   3.604   6.730 -1.3640 -2.3125 -0.9021
   84CHL1   C20 8672   4.249   3.400   7.668  0.1396 -0.3840  0.1309
   84CHL1   H20 8673   4.360   3.400   7.670  0.2751 -0.5774 -2.8435
   84CHL1   C21 8674   4.209   3.263   7.610 -0.2369 -0.4465  0.3236
   84CHL1  H21A 8675   4.270   3.247   7.519 -0.6203 -1.6137  0.2668
   84CHL1  H21B 8676   4.104   3.247   7.579  0.1719 -3.1946  0.1497
   84CHL1  H21C 8677   4.243   3.174   7.667  1.9603 -0.2750 -0.6122
   84CHL1   C22 8678   4.189   3.413   7.810  0.1014  0.4093  0.2818
   84CHL1  H22A 8679   4.220   3.502   7.868  2.4826 -0.8074  1.0051
   84CHL1  H22B 8680   4.082   3.426   7.782  0.1987  0.9940  0.1806
   84CHL1   C23 8681   4.207   3.288   7.895 -1.0033  0.8151  0.1292
   84CHL1  H23A 8682   4.120   3.288   7.964 -1.3528 -3.5070 -0.0457
   84CHL1  H23B 8683   4.193   3.188   7.850  0.0268  0.5006  0.4717
   84CHL1   C24 8684   4.349   3.290   7.969  0.2517 -0.4228  0.2124
   84CHL1  H24A 8685   4.429   3.270   7.895  0.9656  1.6784  0.3329
   84CHL1  H24B 8686   4.369   3.389   8.015 -0.5808 -0.1975  0.1169
   84CHL1   C25 8687   4.353   3.182   8.080 -0.4260  0.6773  0.7313
   84CHL1   H25 8688   4.312   3.085   8.043 -1.7374  0.6547  2.1502
   84CHL1   C26 8689   4.506   3.163   8.112  0.3491  0.1930 -0.2862
   84CHL1  H26A 8690   4.538   3.262   8.152  0.6429 -0.8075  2.1348
   84CHL1  H26B 8691   4.509   3.085   8.191  0.0708 -1.0269 -1.4411
   84CHL1  H26C 8692   4.563   3.144   8.019 -0.3809  0.2220 -0.7430
   84CHL1   C27 8693   4.272   3.208   8.206  0.4198  0.0806  0.3805
   84CHL1  H27A 8694   4.314   3.299   8.254 -2.1753  2.1782 -0.9754
   84CHL1  H27B 8695   4.180   3.257   8.165  1.4315  0.4877 -1.5155
   84CHL1  H27C 8696   4.252   3.128   8.280  0.1150  0.7588  1.0431
   85CHL1    C3 8697   5.754   2.213   6.842 -0.2610 -0.7227  1.0351
   85CHL1    H3 8698   5.648   2.243   6.860  0.3348  2.0005  0.3885
   85CHL1    O3 8699   5.755   2.147   6.719 -0.7283 -0.0208  0.2305
   85CHL1   H3' 8700   5.810   2.198   6.660  0.4012 -2.2858 -0.8313
   85CHL1    C4 8701   5.847   2.341   6.839  0.0253  0.5084 -0.0432
   85CHL1   H4A 8702   5.941   2.292   6.807 -1.6468 -2.7513 -0.4107
   85CHL1   H4B 8703   5.821   2.418   6.763 -1.5312 -1.2567 -1.4104
   85CHL1    C5 8704   5.837   2.404   6.978 -0.1554  0.1914  0.3976
   85CHL1    C6 8705   5.785   2.524   6.993  0.5647  0.2371 -0.2179
   85CHL1    H6 8706   5.737   2.574   6.908 -0.0534  0.0812  0.0332
   85CHL1    C7 8707   5.771   2.603   7.121 -0.2262  0.5332  0.2155
   85CHL1   H7A 8708   5.790   2.709   7.097 -0.1125  0.0275 -2.1669
   85CHL1   H7B 8709   5.670   2.583   7.163 -1.0878  3.7093 -0.1081
   85CHL1    C8 8710   5.868   2.537   7.233  0.4919 -0.4843  0.2325
   85CHL1    H8 8711   5.974   2.565   7.216  1.4604 -3.8149  0.2619
   85CHL1   C14 8712   5.829   2.585   7.370 -1.0089 -0.0633 -0.0980
   85CHL1   H14 8713   5.726   2.560   7.404  0.2591 -1.9588  2.6763
   85CHL1   C15 8714   5.816   2.736   7.395  0.2219  0.1259  0.3775
   85CHL1  H15A 8715   5.904   2.788   7.351  2.0230 -0.8729  2.6208
   85CHL1  H15B 8716   5.725   2.778   7.348  0.7470 -0.3646 -1.1326
   85CHL1   C16 8717   5.820   2.748   7.551  0.4314 -0.0738 -0.6268
   85CHL1  H16A 8718   5.895   2.821   7.589  2.1363 -0.9847 -2.0876
   85CHL1  H16B 8719   5.720   2.761   7.597  1.0099  1.6983  0.2317
   85CHL1   C17 8720   5.860   2.605   7.605  0.2816  0.4603  0.9099
   85CHL1   H17 8721   5.766   2.547   7.619 -0.5983  1.7995  0.6782
   85CHL1   C13 8722   5.919   2.526   7.484 -1.0597 -0.1526  0.7270
   85CHL1   C18 8723   6.075   2.564   7.470  0.2714  0.1887 -0.1564
   85CHL1  H18A 8724   6.115   2.528   7.372 -2.5854 -1.4269 -0.8243
   85CHL1  H18B 8725   6.074   2.675   7.468  0.5769  0.1979 -1.8548
   85CHL1  H18C 8726   6.131   2.536   7.561  1.7071  2.7233 -0.1426
   85CHL1   C12 8727   5.901   2.372   7.489 -0.7254 -0.1937 -0.3301
   85CHL1  H12A 8728   5.960   2.321   7.568 -0.2714  1.0490  0.1585
   85CHL1  H12B 8729   5.793   2.355   7.507 -0.5831 -0.3995  0.3540
   85CHL1   C11 8730   5.935   2.316   7.347  0.3072  0.7236 -0.4052
   85CHL1  H11A 8731   6.044   2.333   7.338  0.0584  1.5237 -2.1620
   85CHL1  H11B 8732   5.915   2.207   7.342  1.9834  0.3825 -0.1367
   85CHL1    C9 8733   5.860   2.381   7.230  0.3817 -0.4961 -0.3452
   85CHL1    H9 8734   5.753   2.362   7.254  0.4582  2.6097  3.5632
   85CHL1   C10 8735   5.886   2.319   7.092 -0.0555  1.1687  0.2978
   85CHL1   C19 8736   6.040   2.307   7.064  0.0747 -0.8666 -0.2536
   85CHL1  H19A 8737   6.085   2.247   7.146 -1.5560  1.2012  2.3334
   85CHL1  H19B 8738   6.081   2.266   6.969  0.7655 -1.5349  0.3180
   85CHL1  H19C 8739   6.083   2.408   7.080  0.5074 -1.2933  1.5681
   85CHL1    C1 8740   5.812   2.173   7.083 -0.5806  0.1048 -0.3712
   85CHL1   H1A 8741   5.875   2.103   7.142  0.5323  2.2227  1.1030
   85CHL1   H1B 8742   5.713   2.183   7.133 -0.1313 -1.3999  0.8820
   85CHL1    C2 8743   5.804   2.112   6.944  0.5317 -0.8119 -0.8921
   85CHL1   H2A 8744   5.746   2.017   6.943 -0.7950 -0.0201 -1.4083
   85CHL1   H2B 8745   5.908   2.075   6.926  0.8240 -0.0491 -0.8003
   85CHL1   C20 8746   5.935   2.616   7.735 -0.5230 -0.6752 -0.3167
   85CHL1   H20 8747   6.028   2.672   7.710 -2.0236  2.9035  1.2714
   85CHL1   C21 8748   5.986   2.476   7.786  0.2839  0.3882  0.1965
   85CHL1  H21A 8749   5.894   2.426   7.821 -0.9369  2.3872  0.0317
   85CHL1  H21B 8750   6.061   2.490   7.867 -1.4347  0.9037  1.7720
   85CHL1  H21C 8751   6.037   2.422   7.704 -0.2539 -1.9111  1.3081
   85CHL1   C22 8752   5.869   2.698   7.853 -0.4649 -0.3744  0.5066
   85CHL1  H22A 8753   5.851   2.803   7.823  1.2051  0.0153  0.7705
   85CHL1  H22B 8754   5.767   2.660   7.876  0.1830 -1.3432  1.9965
   85CHL1   C23 8755   5.958   2.721   7.976  0.1232 -0.4442 -0.7268
   85CHL1  H23A 8756   5.982   2.632   8.037 -1.2329 -0.5277 -0.2736
   85CHL1  H23B 8757   6.061   2.755   7.952  0.8568 -2.1703 -0.1725
   85CHL1   C24 8758   5.893   2.811   8.083 -0.8777 -0.0033  0.5494
   85CHL1  H24A 8759   5.901   2.920   8.064  0.2070 -0.1179  0.2862
   85CHL1  H24B 8760   5.786   2.782   8.074 -0.2127 -2.4518 -0.3122
   85CHL1   C25 8761   5.941   2.789   8.223  0.0009  0.8010  0.0946
   85CHL1   H25 8762   6.052   2.786   8.210  0.1538  0.9978  1.2429
   85CHL1   C26 8763   5.912   2.907   8.321  0.0789  0.5051 -0.3711
   85CHL1  H26A 8764   5.977   2.899   8.411 -1.5120  3.7525  1.2506
   85CHL1  H26B 8765   5.937   3.008   8.283 -0.6389  1.0020  0.4469
   85CHL1  H26C 8766   5.806   2.908   8.355  0.2347  2.2717  0.1613
   85CHL1   C27 8767   5.885   2.661   8.285  0.1849  0.5346  0.5064
   85CHL1  H27A 8768   5.919   2.668   8.391 -2.9761  0.8668  1.5967
   85CHL1  H27B 8769   5.775   2.670   8.296  0.0605  0.3644 -0.5521
   85CHL1  H27C 8770   5.925   2.574   8.230  1.4836  2.1365 -1.2093
   86CHL1    C3 8771   1.135   5.639   6.966  0.7061  0.3903  0.7255
   86CHL1    H3 8772   1.162   5.532   6.981  0.7289  0.0950 -1.1163
   86CHL1    O3 8773   1.138   5.662   6.824 -0.3236  0.5318  0.1518
   86CHL1   H3' 8774   1.215   5.608   6.802 -0.5142  0.6159 -0.7762
   86CHL1    C4 8775   0.989   5.654   7.019 -0.2096 -0.0617  0.1873
   86CHL1   H4A 8776   0.958   5.754   6.981 -1.7593 -0.0702  1.3201
   86CHL1   H4B 8777   0.929   5.569   6.981  0.5863 -0.7366  0.4172
   86CHL1    C5 8778   0.984   5.652   7.171  0.2946  0.0345 -0.3173
   86CHL1    C6 8779   0.887   5.581   7.232  0.1974 -0.7321  0.2355
   86CHL1    H6 8780   0.812   5.533   7.169  0.0379 -2.1110  1.4067
   86CHL1    C7 8781   0.849   5.577   7.376 -0.1846  0.2727  0.1014
   86CHL1   H7A 8782   0.740   5.595   7.384  0.1300  3.1056 -0.9569
   86CHL1   H7B 8783   0.857   5.473   7.413 -1.2126  0.9002  2.2697
   86CHL1    C8 8784   0.944   5.666   7.468  0.4923 -0.1948 -0.0982
   86CHL1    H8 8785   0.890   5.763   7.475  1.2116  0.1473  1.1423
   86CHL1   C14 8786   0.957   5.608   7.605  0.6343  0.4735  0.1457
   86CHL1   H14 8787   1.014   5.513   7.596  1.6711  0.8793  1.8839
   86CHL1   C15 8788   0.826   5.574   7.677 -0.8612  0.0202  0.7863
   86CHL1  H15A 8789   0.753   5.658   7.671  0.6508  1.3244 -0.3520
   86CHL1  H15B 8790   0.772   5.485   7.639  2.1851 -1.4434 -0.4625
   86CHL1   C16 8791   0.870   5.551   7.822  0.0143  0.2309 -0.1472
   86CHL1  H16A 8792   0.807   5.618   7.885  0.7880  0.4880  0.3648
   86CHL1  H16B 8793   0.858   5.441   7.840  0.6183 -0.4516 -3.3676
   86CHL1   C17 8794   1.020   5.603   7.833  0.6183  0.1412  0.1735
   86CHL1   H17 8795   1.086   5.516   7.815  0.1236  0.1167 -1.6523
   86CHL1   C13 8796   1.043   5.683   7.698 -0.2130 -0.0717 -0.6191
   86CHL1   C18 8797   0.997   5.831   7.718 -0.2959 -0.0315 -0.1910
   86CHL1  H18A 8798   0.897   5.850   7.762  0.9432  4.1492  1.2941
   86CHL1  H18B 8799   1.065   5.884   7.788 -0.4243  0.4919 -0.4595
   86CHL1  H18C 8800   1.002   5.886   7.621  0.1115  1.7170  0.7801
   86CHL1   C12 8801   1.186   5.668   7.637 -0.0260 -0.2228  1.0484
   86CHL1  H12A 8802   1.261   5.727   7.694  0.6185  2.2780 -2.0917
   86CHL1  H12B 8803   1.211   5.561   7.653 -2.1224 -0.8751  0.2662
   86CHL1   C11 8804   1.200   5.730   7.492  0.0834  0.0363 -0.1866
   86CHL1  H11A 8805   1.188   5.840   7.501  0.3752  0.0552 -0.0134
   86CHL1  H11B 8806   1.303   5.706   7.458 -0.3067 -2.2170  0.0201
   86CHL1    C9 8807   1.086   5.674   7.399  0.3344 -0.1003 -0.5515
   86CHL1    H9 8808   1.108   5.565   7.404  0.2322 -0.0688  1.2328
   86CHL1   C10 8809   1.088   5.730   7.254  0.0298  0.1257 -0.5716
   86CHL1   C19 8810   1.059   5.884   7.255  0.5833  0.1731  0.0893
   86CHL1  H19A 8811   0.953   5.904   7.281  0.4441  0.4176 -0.6379
   86CHL1  H19B 8812   1.128   5.940   7.322 -0.5879 -0.2515  1.7013
   86CHL1  H19C 8813   1.081   5.918   7.151  0.4612  0.7694  0.2499
   86CHL1    C1 8814   1.224   5.700   7.188 -0.0746 -0.3570  0.0504
   86CHL1   H1A 8815   1.303   5.761   7.237 -0.1813  0.2540 -0.5175
   86CHL1   H1B 8816   1.257   5.595   7.200  0.2210 -0.4269 -1.2784
   86CHL1    C2 8817   1.233   5.728   7.035 -0.3265  0.2754  0.5335
   86CHL1   H2A 8818   1.334   5.710   6.991  0.1185  2.8489  0.3654
   86CHL1   H2B 8819   1.201   5.830   7.005 -1.2203 -0.6320 -1.8088
   86CHL1   C20 8820   1.053   5.663   7.971  0.2198 -0.0920 -0.4680
   86CHL1   H20 8821   0.987   5.752   7.976 -0.7478 -0.8628  2.0909
   86CHL1   C21 8822   1.198   5.710   7.980  0.0308  0.0754 -0.3018
   86CHL1  H21A 8823   1.229   5.727   8.085  2.2549 -3.0877 -0.3318
   86CHL1  H21B 8824   1.224   5.797   7.915 -0.6435  0.2060 -0.4005
   86CHL1  H21C 8825   1.269   5.631   7.946 -0.4197  0.5870 -2.6223
   86CHL1   C22 8826   1.018   5.564   8.085 -0.0041 -1.0069 -0.4856
   86CHL1  H22A 8827   0.995   5.613   8.182  0.5816  1.5541 -1.5576
   86CHL1  H22B 8828   0.925   5.511   8.056 -1.3816  1.8267 -1.6989
   86CHL1   C23 8829   1.123   5.458   8.117 -0.4248  0.0843 -0.2050
   86CHL1  H23A 8830   1.169   5.433   8.018 -0.6897 -1.1567 -0.0297
   86CHL1  H23B 8831   1.199   5.513   8.176 -1.4700 -0.5284  1.7814
   86CHL1   C24 8832   1.065   5.335   8.180 -0.2905 -0.2194 -0.3984
   86CHL1  H24A 8833   0.978   5.314   8.114 -0.5989  0.6081 -0.2668
   86CHL1  H24B 8834   1.136   5.252   8.160  1.3771  0.9850  0.3334
   86CHL1   C25 8835   1.031   5.344   8.330 -0.3361 -0.2123  0.3581
   86CHL1   H25 8836   0.957   5.426   8.343  0.2190  0.1226  1.5582
   86CHL1   C26 8837   0.994   5.209   8.381  0.3981 -0.3891 -1.0639
   86CHL1  H26A 8838   0.895   5.186   8.337 -2.2742  2.0415  2.9700
   86CHL1  H26B 8839   1.070   5.130   8.366 -0.2957 -1.6359  1.3511
   86CHL1  H26C 8840   0.976   5.219   8.491  3.2134  1.2093 -0.6695
   86CHL1   C27 8841   1.150   5.393   8.416 -0.2059  0.0928  0.6751
   86CHL1  H27A 8842   1.242   5.333   8.396  0.9660  1.6345  1.1976
   86CHL1  H27B 8843   1.177   5.500   8.398  0.2951 -0.1035  0.2449
   86CHL1  H27C 8844   1.135   5.384   8.526 -1.2099 -0.3339  0.5083
   87CHL1    C3 8845   5.740   5.217   6.829  0.4323  0.8867 -0.8073
   87CHL1    H3 8846   5.772   5.314   6.872 -0.0171 -0.4366  2.8402
   87CHL1    O3 8847   5.778   5.204   6.694 -0.2387 -0.0476  0.1319
   87CHL1   H3' 8848   5.872   5.184   6.695  0.3580  2.2277  2.7644
   87CHL1    C4 8849   5.805   5.101   6.907  0.2390  0.2674  0.0410
   87CHL1   H4A 8850   5.780   5.005   6.857  2.0369 -0.4421  0.4280
   87CHL1   H4B 8851   5.915   5.117   6.897  0.7145 -1.4618  1.8798
   87CHL1    C5 8852   5.776   5.107   7.056 -0.1747  0.6937 -0.3684
   87CHL1    C6 8853   5.873   5.110   7.152  0.3120 -0.5693  0.2911
   87CHL1    H6 8854   5.976   5.100   7.116  0.4313 -3.7931  1.2071
   87CHL1    C7 8855   5.853   5.095   7.299 -0.1828  0.6171 -0.7351
   87CHL1   H7A 8856   5.924   5.019   7.338  1.0479  1.2743 -1.6193
   87CHL1   H7B 8857   5.883   5.192   7.346 -0.2375  0.5507 -0.5633
   87CHL1    C8 8858   5.708   5.061   7.342  0.8788  0.0880 -0.1107
   87CHL1    H8 8859   5.690   4.954   7.321  0.6569 -0.4748  2.6199
   87CHL1   C14 8860   5.672   5.085   7.492 -0.5062  0.1960  0.9213
   87CHL1   H14 8861   5.688   5.195   7.500  1.0423 -0.1329  3.2402
   87CHL1   C15 8862   5.765   5.018   7.591 -0.3535  0.4577 -0.3675
   87CHL1  H15A 8863   5.774   4.908   7.577 -1.3230  0.4634 -1.1633
   87CHL1  H15B 8864   5.865   5.066   7.591 -1.2029  2.3123 -0.4580
   87CHL1   C16 8865   5.699   5.041   7.718 -0.0837 -0.2203 -0.3245
   87CHL1  H16A 8866   5.682   4.943   7.766 -1.0960  0.0006 -0.2137
   87CHL1  H16B 8867   5.740   5.116   7.789 -2.1545 -0.0316  0.7522
   87CHL1   C17 8868   5.550   5.089   7.678 -0.2878 -0.0031  0.6339
   87CHL1   H17 8869   5.548   5.200   7.682 -0.3857 -0.0109  0.7824
   87CHL1   C13 8870   5.531   5.054   7.528 -0.5567  0.3610 -0.0190
   87CHL1   C18 8871   5.494   4.906   7.523  0.3481  0.1011  0.6339
   87CHL1  H18A 8872   5.386   4.882   7.533  0.0672  1.0812  0.1222
   87CHL1  H18B 8873   5.511   4.861   7.422 -0.4225  1.9465 -0.3647
   87CHL1  H18C 8874   5.561   4.851   7.593  2.7683  1.8412 -0.1639
   87CHL1   C12 8875   5.437   5.144   7.448  0.0616 -0.3540  0.6580
   87CHL1  H12A 8876   5.332   5.124   7.478 -0.7409  1.3438 -0.7997
   87CHL1  H12B 8877   5.462   5.249   7.476 -0.2350  0.5414 -2.1309
   87CHL1   C11 8878   5.466   5.118   7.302 -0.1188  0.1574 -0.1996
   87CHL1  H11A 8879   5.432   5.013   7.285 -1.1362  0.3964  0.3061
   87CHL1  H11B 8880   5.399   5.175   7.234 -0.0965 -0.5821 -0.8632
   87CHL1    C9 8881   5.607   5.130   7.246  0.1595 -0.3348  0.4025
   87CHL1    H9 8882   5.623   5.240   7.255 -1.3010  0.0234 -1.0006
   87CHL1   C10 8883   5.627   5.094   7.099 -0.2805  0.0841  0.6074
   87CHL1   C19 8884   5.576   4.953   7.065  0.0154  0.1598  0.2927
   87CHL1  H19A 8885   5.608   4.917   6.966  2.4464  1.4547  0.5180
   87CHL1  H19B 8886   5.606   4.888   7.151 -0.6463 -0.2705  0.2004
   87CHL1  H19C 8887   5.465   4.948   7.061  0.1091 -1.5473 -1.2691
   87CHL1    C1 8888   5.551   5.191   7.007  0.7653  0.1063 -0.0803
   87CHL1   H1A 8889   5.443   5.169   7.025  1.0160 -0.0912  1.3281
   87CHL1   H1B 8890   5.562   5.296   7.042  3.8497 -0.6472  1.5509
   87CHL1    C2 8891   5.591   5.197   6.855 -0.0962  0.4251 -0.2871
   87CHL1   H2A 8892   5.529   5.282   6.820 -1.8246 -0.5315  0.3202
   87CHL1   H2B 8893   5.551   5.112   6.794 -0.1715  0.1929  0.0840
   87CHL1   C20 8894   5.444   5.033   7.783  0.3317  0.6149  0.6893
   87CHL1   H20 8895   5.444   4.922   7.787  1.8362  0.6235  1.5223
   87CHL1   C21 8896   5.300   5.078   7.735  0.1548  0.4179 -0.7700
   87CHL1  H21A 8897   5.229   5.045   7.814  0.4856  0.5722 -0.4011
   87CHL1  H21B 8898   5.276   5.030   7.638 -4.2187 -3.0498  1.6113
   87CHL1  H21C 8899   5.304   5.189   7.727  0.6836  0.4109 -0.6767
   87CHL1   C22 8900   5.494   5.078   7.926  0.3735 -0.1638  0.2811
   87CHL1  H22A 8901   5.579   5.017   7.963 -0.3841 -0.4507  1.6146
   87CHL1  H22B 8902   5.522   5.185   7.934  0.5566  0.0400 -2.2653
   87CHL1   C23 8903   5.374   5.057   8.028 -0.3017  0.3285  0.0222
   87CHL1  H23A 8904   5.299   5.137   8.015 -1.6136 -1.1969 -2.5690
   87CHL1  H23B 8905   5.325   4.960   8.002 -1.3172  0.0776  2.5775
   87CHL1   C24 8906   5.434   5.060   8.166  0.4694  0.6343 -0.1514
   87CHL1  H24A 8907   5.506   4.979   8.189 -0.0068 -0.1234 -1.2113
   87CHL1  H24B 8908   5.490   5.156   8.177  1.8145 -0.0399 -0.9202
   87CHL1   C25 8909   5.321   5.062   8.276  0.1656  0.5347 -0.5898
   87CHL1   H25 8910   5.259   5.153   8.262  1.1241  1.0837 -1.4281
   87CHL1   C26 8911   5.236   4.942   8.278  0.3587 -0.0041  0.2660
   87CHL1  H26A 8912   5.191   4.910   8.182  1.0099  0.6365 -0.2647
   87CHL1  H26B 8913   5.302   4.856   8.301 -0.6820 -0.3768  2.0597
   87CHL1  H26C 8914   5.164   4.950   8.362  0.1709  0.3171  0.0769
   87CHL1   C27 8915   5.380   5.071   8.421  0.4360 -0.6450 -0.2376
   87CHL1  H27A 8916   5.447   5.156   8.442  0.2472 -0.5340 -0.0787
   87CHL1  H27B 8917   5.291   5.073   8.487 -1.4700 -0.1435 -2.6772
   87CHL1  H27C 8918   5.450   4.985   8.434  1.7026  0.0330 -2.1322
   88CHL1    C3 8919   2.160   5.389   6.997  0.0660 -0.0212 -0.5669
   88CHL1    H3 8920   2.071   5.330   6.964 -0.1088 -0.0944  0.0356
   88CHL1    O3 8921   2.199   5.478   6.892  0.2089 -0.1626  0.2796
   88CHL1   H3' 8922   2.124   5.500   6.837 -0.2807 -0.7384  0.6945
   88CHL1    C4 8923   2.123   5.476   7.116  0.7851 -0.3594 -0.4676
   88CHL1   H4A 8924   2.206   5.549   7.124  1.6674 -1.4119  0.2009
   88CHL1   H4B 8925   2.035   5.533   7.080 -0.5213 -1.9846  0.0190
   88CHL1    C5 8926   2.091   5.408   7.250  0.0453 -0.4929 -0.5567
   88CHL1    C6 8927   1.970   5.411   7.304  0.1049  0.5072 -0.7216
   88CHL1    H6 8928   1.889   5.476   7.269 -1.5189 -1.1414 -0.1351
   88CHL1    C7 8929   1.942   5.326   7.422  0.0296 -0.3639  0.8216
   88CHL1   H7A 8930   1.870   5.376   7.490 -0.8704 -0.0617 -0.3137
   88CHL1   H7B 8931   1.874   5.242   7.398 -0.8944  0.8270 -0.9078
   88CHL1    C8 8932   2.066   5.272   7.501  0.2773 -0.3793  0.7780
   88CHL1    H8 8933   2.115   5.363   7.544  0.3647  0.3842 -0.8704
   88CHL1   C14 8934   2.031   5.179   7.610  0.2732  0.5348 -0.5300
   88CHL1   H14 8935   1.995   5.084   7.566 -0.9804  1.0779 -0.7066
   88CHL1   C15 8936   1.922   5.223   7.713  0.0479  0.5512  0.4115
   88CHL1  H15A 8937   1.950   5.324   7.749 -0.0227 -0.0449  2.2240
   88CHL1  H15B 8938   1.823   5.216   7.663  0.2334 -1.5605  0.2455
   88CHL1   C16 8939   1.931   5.122   7.825  0.2354  0.1424 -0.3587
   88CHL1  H16A 8940   1.940   5.171   7.925  0.3693 -1.4438  0.4427
   88CHL1  H16B 8941   1.847   5.050   7.834 -1.3741  2.1149  1.4630
   88CHL1   C17 8942   2.064   5.045   7.799  0.1492  0.8775 -0.0249
   88CHL1   H17 8943   2.028   4.949   7.756  0.5751  0.3330  0.8049
   88CHL1   C13 8944   2.148   5.130   7.693  0.1282  0.7092 -0.7288
   88CHL1   C18 8945   2.228   5.246   7.766  0.0856 -0.1822 -0.0703
   88CHL1  H18A 8946   2.153   5.323   7.793  0.8826 -0.2055  2.4545
   88CHL1  H18B 8947   2.289   5.228   7.858  0.2114 -1.8608 -0.4459
   88CHL1  H18C 8948   2.296   5.291   7.691  0.1823  0.3838  0.3501
   88CHL1   C12 8949   2.239   5.052   7.601  0.4750  0.5040 -0.0047
   88CHL1  H12A 8950   2.336   5.017   7.644  0.5568  0.8092  0.0645
   88CHL1  H12B 8951   2.185   4.958   7.577  0.1895 -0.0903  2.6383
   88CHL1   C11 8952   2.276   5.141   7.477  0.3698  0.2118 -0.3078
   88CHL1  H11A 8953   2.346   5.219   7.514 -0.1279  1.7699 -2.4250
   88CHL1  H11B 8954   2.321   5.072   7.403 -0.3195  1.0192 -1.5110
   88CHL1    C9 8955   2.162   5.214   7.405  0.1757 -0.0334 -0.5016
   88CHL1    H9 8956   2.107   5.139   7.344  1.4659  0.4069 -2.2881
   88CHL1   C10 8957   2.210   5.310   7.295 -0.0429  0.3540  0.7865
   88CHL1   C19 8958   2.312   5.408   7.349 -1.0520  0.3649 -0.0776
   88CHL1  H19A 8959   2.409   5.357   7.370 -0.8838  1.1451  1.1550
   88CHL1  H19B 8960   2.341   5.496   7.289  1.2379  0.0658  0.4755
   88CHL1  H19C 8961   2.270   5.440   7.447  0.9659 -0.3959  1.1043
   88CHL1    C1 8962   2.258   5.221   7.174 -0.2183 -0.6710  0.3957
   88CHL1   H1A 8963   2.344   5.155   7.199 -0.7809 -1.4865  0.2410
   88CHL1   H1B 8964   2.177   5.153   7.141 -0.9765 -0.2440  1.3564
   88CHL1    C2 8965   2.284   5.300   7.037 -0.0070 -0.0785 -0.2295
   88CHL1   H2A 8966   2.311   5.223   6.962  2.2334  0.0611  0.3500
   88CHL1   H2B 8967   2.374   5.361   7.059 -1.0094  0.7260  1.9301
   88CHL1   C20 8968   2.129   5.000   7.930  0.5380  0.6766 -0.4548
   88CHL1   H20 8969   2.156   5.093   7.983 -0.5178  0.3405  0.7374
   88CHL1   C21 8970   2.248   4.915   7.895  0.5715  0.0903  0.4507
   88CHL1  H21A 8971   2.297   4.871   7.984 -2.2945 -1.0202  1.5763
   88CHL1  H21B 8972   2.326   4.974   7.842  0.2569  1.6987  1.6865
   88CHL1  H21C 8973   2.224   4.827   7.832  0.3604  0.7652 -0.4305
   88CHL1   C22 8974   2.021   4.919   8.022  0.3193  0.6922  0.0683
   88CHL1  H22A 8975   1.926   4.975   8.040 -0.1943 -0.1829  0.1450
   88CHL1  H22B 8976   1.979   4.832   7.966 -0.8122  0.0518  1.8262
   88CHL1   C23 8977   2.081   4.870   8.159  0.2233  0.3525  0.5122
   88CHL1  H23A 8978   2.186   4.834   8.153  0.0301 -0.0177 -1.2129
   88CHL1  H23B 8979   2.082   4.952   8.234  2.0322 -0.5136  1.4863
   88CHL1   C24 8980   1.984   4.762   8.216 -0.2326  0.0907 -0.0075
   88CHL1  H24A 8981   1.882   4.805   8.205 -0.7423 -1.1609 -0.3283
   88CHL1  H24B 8982   1.995   4.674   8.150 -0.7764 -0.6455  0.8512
   88CHL1   C25 8983   2.011   4.717   8.362  1.1494 -0.3798 -0.0747
   88CHL1   H25 8984   2.114   4.675   8.368  0.8950 -1.5800 -2.7086
   88CHL1   C26 8985   2.008   4.832   8.471 -0.4028  0.4314  0.3565
   88CHL1  H26A 8986   2.057   4.799   8.565 -0.5021 -0.1950  0.1901
   88CHL1  H26B 8987   2.076   4.912   8.433 -0.1481  0.7026  1.3563
   88CHL1  H26C 8988   1.904   4.869   8.488 -1.4039 -1.6053 -1.0123
   88CHL1   C27 8989   1.908   4.607   8.395 -1.7273 -1.2540 -0.1733
   88CHL1  H27A 8990   1.948   4.517   8.344  1.2143 -0.4388  0.4883
   88CHL1  H27B 8991   1.909   4.593   8.505  1.3773 -0.8507 -0.0658
   88CHL1  H27C 8992   1.803   4.628   8.366 -1.4575  2.5046  1.0146
   89CHL1    C3 8993   1.418   6.189   6.834 -0.1112  0.1553 -0.8667
   89CHL1    H3 8994   1.312   6.224   6.831  0.5999  2.7695  1.1580
   89CHL1    O3 8995   1.465   6.160   6.704 -0.2260  0.3085 -0.0507
   89CHL1   H3' 8996   1.422   6.213   6.637 -0.2964 -1.8210 -1.8052
   89CHL1    C4 8997   1.512   6.293   6.902  0.0928 -0.5467  0.5422
   89CHL1   H4A 8998   1.615   6.250   6.901  0.0966 -0.5705  1.3794
   89CHL1   H4B 8999   1.516   6.388   6.844  2.0089 -1.5147 -1.0332
   89CHL1    C5 9000   1.468   6.307   7.050  0.2657 -0.7059  0.1732
   89CHL1    C6 9001   1.427   6.425   7.099 -0.3822 -0.0785  0.2067
   89CHL1    H6 9002   1.428   6.519   7.041  1.1027  1.0992  2.0072
   89CHL1    C7 9003   1.389   6.447   7.244 -0.0531  0.0791 -0.5440
   89CHL1   H7A 9004   1.435   6.540   7.284 -2.8239  0.2514  2.6425
   89CHL1   H7B 9005   1.279   6.457   7.256 -0.2236 -0.2084 -1.7644
   89CHL1    C8 9006   1.439   6.331   7.329 -0.1863  0.9352 -0.1182
   89CHL1    H8 9007   1.550   6.338   7.335 -0.3430  2.3311  2.1622
   89CHL1   C14 9008   1.378   6.330   7.469  0.2339 -0.4444  0.1505
   89CHL1   H14 9009   1.272   6.320   7.438  1.0110 -3.1291 -2.1474
   89CHL1   C15 9010   1.388   6.459   7.551  0.0197  0.3893 -0.1866
   89CHL1  H15A 9011   1.493   6.494   7.543 -0.5628  1.8069 -2.2083
   89CHL1  H15B 9012   1.318   6.535   7.511  1.2119  2.8642  2.1389
   89CHL1   C16 9013   1.347   6.424   7.699  0.4851  0.2476 -0.3635
   89CHL1  H16A 9014   1.431   6.461   7.761  0.1862 -2.2532  1.7356
   89CHL1  H16B 9015   1.247   6.460   7.731 -0.0278  1.4121 -2.9941
   89CHL1   C17 9016   1.355   6.266   7.703 -0.6359  0.5526 -0.1210
   89CHL1   H17 9017   1.252   6.225   7.699 -1.3298  1.1825  4.9217
   89CHL1   C13 9018   1.424   6.226   7.568  0.6181 -0.2477  0.2274
   89CHL1   C18 9019   1.576   6.218   7.580 -0.1615 -0.0914  0.1261
   89CHL1  H18A 9020   1.612   6.312   7.627 -2.5875  0.9264  0.1203
   89CHL1  H18B 9021   1.604   6.120   7.624 -2.3081 -1.9248 -2.3229
   89CHL1  H18C 9022   1.632   6.213   7.484  1.5030 -0.4012  1.0720
   89CHL1   C12 9023   1.371   6.088   7.510  0.1638 -0.1182  0.8286
   89CHL1  H12A 9024   1.402   6.006   7.579  1.0658 -0.6644 -0.1844
   89CHL1  H12B 9025   1.261   6.099   7.505  0.2609  1.3712  1.4089
   89CHL1   C11 9026   1.432   6.074   7.360 -1.0625  0.4493  0.0668
   89CHL1  H11A 9027   1.537   6.049   7.384 -1.5122 -0.1363  1.5418
   89CHL1  H11B 9028   1.374   5.984   7.330 -0.7274  0.1155  0.4030
   89CHL1    C9 9029   1.409   6.191   7.272  0.2398  0.1442 -0.2354
   89CHL1    H9 9030   1.300   6.186   7.251  0.0671 -0.2197  0.6861
   89CHL1   C10 9031   1.467   6.176   7.128 -0.0394 -0.4218 -0.7219
   89CHL1   C19 9032   1.620   6.147   7.147 -1.2282  0.2295  0.1232
   89CHL1  H19A 9033   1.681   6.215   7.210  1.1820  0.6910 -2.5035
   89CHL1  H19B 9034   1.629   6.041   7.178 -2.1631 -0.1184 -0.7301
   89CHL1  H19C 9035   1.679   6.148   7.053  3.6334 -0.3641  2.8381
   89CHL1    C1 9036   1.382   6.069   7.056 -0.1325 -0.4497  0.0681
   89CHL1   H1A 9037   1.398   5.970   7.104  2.6090 -0.0995  0.0508
   89CHL1   H1B 9038   1.274   6.094   7.062 -0.5146 -2.0112  0.0700
   89CHL1    C2 9039   1.416   6.056   6.910  0.7146  0.7104  0.1835
   89CHL1   H2A 9040   1.342   5.988   6.863  1.6722  0.2948 -0.7723
   89CHL1   H2B 9041   1.510   5.997   6.915  0.5517  0.3878 -0.3802
   89CHL1   C20 9042   1.417   6.210   7.832  0.6011 -0.5442  0.2342
   89CHL1   H20 9043   1.518   6.256   7.845  0.1400  0.7818 -0.6754
   89CHL1   C21 9044   1.422   6.055   7.843  0.0718 -0.0500 -0.1007
   89CHL1  H21A 9045   1.460   6.007   7.936  0.6999 -0.5875 -0.6322
   89CHL1  H21B 9046   1.484   6.007   7.765  1.3332  2.7343 -0.9074
   89CHL1  H21C 9047   1.319   6.016   7.830  0.3025  0.0699 -2.7858
   89CHL1   C22 9048   1.349   6.270   7.954  0.4522 -0.4167 -0.4749
   89CHL1  H22A 9049   1.245   6.300   7.929 -0.5204 -0.9865  2.5052
   89CHL1  H22B 9050   1.350   6.191   8.032  0.4121  1.8441  1.9517
   89CHL1   C23 9051   1.400   6.397   8.025  0.0148  0.1923  0.4185
   89CHL1  H23A 9052   1.511   6.400   8.021  0.0364 -1.1484 -0.6423
   89CHL1  H23B 9053   1.367   6.489   7.972 -2.1872 -1.9186 -2.1421
   89CHL1   C24 9054   1.359   6.401   8.169 -1.0452 -0.1744  0.5697
   89CHL1  H24A 9055   1.252   6.423   8.186 -0.1700  1.9126  4.4827
   89CHL1  H24B 9056   1.381   6.302   8.214 -2.0131 -0.8694 -0.4526
   89CHL1   C25 9057   1.425   6.508   8.259  0.0744  0.5491 -0.1245
   89CHL1   H25 9058   1.534   6.508   8.236 -0.2951 -1.8422 -2.3506
   89CHL1   C26 9059   1.361   6.645   8.247 -0.8484  0.3072 -0.2075
   89CHL1  H26A 9060   1.368   6.680   8.142  0.6301  0.1370 -0.1805
   89CHL1  H26B 9061   1.261   6.655   8.294 -0.2226 -0.2410  1.2962
   89CHL1  H26C 9062   1.433   6.706   8.305 -0.0401 -0.7890 -0.0238
   89CHL1   C27 9063   1.415   6.456   8.408  0.4759 -0.4741 -0.1080
   89CHL1  H27A 9064   1.311   6.420   8.423  0.2715 -0.5513 -1.5713
   89CHL1  H27B 9065   1.488   6.373   8.420  0.3775 -0.3755  1.4028
   89CHL1  H27C 9066   1.433   6.543   8.475  1.8188 -2.6677  2.5785
   90CHL1    C3 9067   1.994   0.859   7.052  0.5846 -0.0973 -0.4861
   90CHL1    H3 9068   1.904   0.805   7.015  0.5511 -0.4622  0.1180
   90CHL1    O3 9069   2.074   0.904   6.944  0.3962 -0.6218 -0.2908
   90CHL1   H3' 9070   2.162   0.902   6.983  0.6800 -3.6959 -0.8256
   90CHL1    C4 9071   1.957   0.982   7.140 -0.3646 -0.1229 -0.1350
   90CHL1   H4A 9072   2.035   1.059   7.158 -1.2818  0.2635  2.5668
   90CHL1   H4B 9073   1.883   1.045   7.085 -0.2374  1.5982  1.5588
   90CHL1    C5 9074   1.896   0.953   7.278  0.0033  0.0085  0.4496
   90CHL1    C6 9075   1.775   1.004   7.317  0.1493 -0.1965  0.2995
   90CHL1    H6 9076   1.719   1.065   7.246  1.7170  0.1383 -0.7068
   90CHL1    C7 9077   1.718   0.983   7.457  0.3563 -0.2960  0.1028
   90CHL1   H7A 9078   1.687   1.079   7.505 -0.6972 -1.4161  1.7624
   90CHL1   H7B 9079   1.624   0.925   7.445 -1.1134  2.2888 -1.9017
   90CHL1    C8 9080   1.828   0.917   7.555 -0.5248  0.2507 -0.3055
   90CHL1    H8 9081   1.887   1.005   7.587 -0.5736  0.7109 -1.4302
   90CHL1   C14 9082   1.762   0.853   7.676  0.3565 -0.3413  0.1358
   90CHL1   H14 9083   1.703   0.771   7.629  0.3488  1.4004 -3.1791
   90CHL1   C15 9084   1.650   0.930   7.755 -0.4720  0.6436 -0.6765
   90CHL1  H15A 9085   1.697   1.030   7.765  1.1839 -0.2874  1.6232
   90CHL1  H15B 9086   1.553   0.935   7.700 -0.9661  0.4933  0.1698
   90CHL1   C16 9087   1.641   0.848   7.893 -0.1443 -0.1270 -0.4280
   90CHL1  H16A 9088   1.647   0.909   7.987  1.8615  0.7242 -1.0645
   90CHL1  H16B 9089   1.548   0.788   7.900 -0.7366  0.9303  2.2863
   90CHL1   C17 9090   1.755   0.743   7.881 -0.2355 -0.3761 -0.3149
   90CHL1   H17 9091   1.709   0.656   7.831 -1.9342 -0.2690  0.9530
   90CHL1   C13 9092   1.855   0.789   7.772 -0.0300  0.5465 -0.0778
   90CHL1   C18 9093   1.941   0.909   7.825  0.9649 -0.0542 -0.7737
   90CHL1  H18A 9094   2.009   0.948   7.746 -0.9537  1.0873 -1.9239
   90CHL1  H18B 9095   1.879   0.997   7.851 -1.1063 -1.2607 -1.3531
   90CHL1  H18C 9096   2.005   0.872   7.907 -0.7415 -0.5047  0.4041
   90CHL1   C12 9097   1.935   0.683   7.708 -0.2499  0.3468 -0.5194
   90CHL1  H12A 9098   2.010   0.645   7.780 -1.0342 -0.0670  0.1015
   90CHL1  H12B 9099   1.876   0.598   7.667  1.9960 -0.0484 -3.2400
   90CHL1   C11 9100   2.010   0.733   7.589  0.3283  0.3399  0.3416
   90CHL1  H11A 9101   2.095   0.796   7.623 -1.1615  2.1903  0.7413
   90CHL1  H11B 9102   2.042   0.637   7.544 -0.7863  1.1340 -2.3188
   90CHL1    C9 9103   1.916   0.811   7.494  0.5657  0.0408  0.7056
   90CHL1    H9 9104   1.849   0.729   7.460 -0.2375  0.7993  0.4423
   90CHL1   C10 9105   1.978   0.858   7.360 -0.4382  0.9087 -0.0927
   90CHL1   C19 9106   2.103   0.938   7.390 -0.1637 -0.9000 -1.0847
   90CHL1  H19A 9107   2.083   1.021   7.462 -0.7476 -1.2555 -0.8355
   90CHL1  H19B 9108   2.177   0.872   7.440 -0.2713 -0.6727 -0.6127
   90CHL1  H19C 9109   2.148   0.986   7.300  0.0145 -2.1578 -1.6883
   90CHL1    C1 9110   2.017   0.730   7.275 -0.0637 -0.3178  0.0623
   90CHL1   H1A 9111   2.094   0.663   7.320  1.6636  0.1018 -2.1112
   90CHL1   H1B 9112   1.924   0.671   7.260 -0.2152 -0.2745  0.7840
   90CHL1    C2 9113   2.083   0.775   7.147 -0.3226 -0.3893  0.2948
   90CHL1   H2A 9114   2.118   0.687   7.088  0.8301 -0.6033  1.2412
   90CHL1   H2B 9115   2.166   0.846   7.168 -0.1630 -0.8810  1.4286
   90CHL1   C20 9116   1.809   0.684   8.014 -0.5117  0.0229 -0.0538
   90CHL1   H20 9117   1.898   0.626   7.982 -0.6916 -0.0341 -0.4530
   90CHL1   C21 9118   1.711   0.582   8.083  1.3963  0.1739 -0.1632
   90CHL1  H21A 9119   1.682   0.500   8.013 -2.1954  2.7311 -2.0304
   90CHL1  H21B 9120   1.628   0.652   8.107  2.4375  1.5869 -0.5866
   90CHL1  H21C 9121   1.742   0.543   8.182  2.0465 -0.8304 -0.7470
   90CHL1   C22 9122   1.865   0.785   8.123 -0.5390 -0.0439 -0.0562
   90CHL1  H22A 9123   1.878   0.882   8.071  1.2019 -0.1387  0.1413
   90CHL1  H22B 9124   1.792   0.809   8.203 -1.2088 -0.0753 -0.6506
   90CHL1   C23 9125   1.994   0.743   8.191 -0.6860  0.6570  0.0475
   90CHL1  H23A 9126   1.978   0.656   8.259 -0.2857 -0.6833 -1.5251
   90CHL1  H23B 9127   2.068   0.714   8.114 -0.4561  0.3788  0.3696
   90CHL1   C24 9128   2.067   0.864   8.253  0.2764 -0.1361 -0.5757
   90CHL1  H24A 9129   2.090   0.939   8.174 -0.7677  0.5919 -0.2259
   90CHL1  H24B 9130   1.994   0.919   8.318 -1.6837  0.0883 -2.8118
   90CHL1   C25 9131   2.193   0.836   8.334 -0.0236 -0.9039  0.2201
   90CHL1   H25 9132   2.235   0.934   8.366  3.5820 -1.2952 -2.5903
   90CHL1   C26 9133   2.142   0.760   8.462 -0.0888  0.2278  0.3147
   90CHL1  H26A 9134   2.126   0.656   8.428  3.0331 -0.1111 -0.4782
   90CHL1  H26B 9135   2.225   0.754   8.536 -1.8765  1.0998  2.5274
   90CHL1  H26C 9136   2.061   0.810   8.519  0.7127  2.6668 -0.5411
   90CHL1   C27 9137   2.308   0.763   8.260 -0.0762 -0.2919  0.2783
   90CHL1  H27A 9138   2.355   0.825   8.181 -1.4708 -0.2034 -0.5227
   90CHL1  H27B 9139   2.388   0.743   8.335  1.4081  0.2100 -1.1154
   90CHL1  H27C 9140   2.269   0.667   8.221  0.2836 -0.2156 -0.2735
   91CHL1    C3 9141   2.293   3.801   7.404 -0.1897 -0.2498 -0.0881
   91CHL1    H3 9142   2.183   3.818   7.392 -0.7071 -2.8465  0.3586
   91CHL1    O3 9143   2.338   3.770   7.273 -0.0061 -0.0173  0.3806
   91CHL1   H3' 9144   2.364   3.851   7.228 -0.7459 -0.0985 -0.2049
   91CHL1    C4 9145   2.367   3.920   7.473  0.1156  0.2798 -0.0854
   91CHL1   H4A 9146   2.473   3.885   7.478  0.2169  0.4625 -0.8072
   91CHL1   H4B 9147   2.369   4.015   7.415 -1.7155  0.2057 -0.3257
   91CHL1    C5 9148   2.334   3.942   7.621 -0.6046  0.1296  0.1207
   91CHL1    C6 9149   2.313   4.068   7.662  0.1087 -0.2434  0.0972
   91CHL1    H6 9150   2.334   4.152   7.594  1.2851 -1.5543 -1.2132
   91CHL1    C7 9151   2.288   4.102   7.803  0.3942  0.2466  0.1331
   91CHL1   H7A 9152   2.346   4.192   7.834  1.8301  0.3032 -2.3885
   91CHL1   H7B 9153   2.179   4.120   7.811  0.3228 -0.6976  1.5916
   91CHL1    C8 9154   2.327   3.986   7.898  0.5304  1.0982  0.0317
   91CHL1    H8 9155   2.438   3.988   7.894  0.5463  1.7786  0.5946
   91CHL1   C14 9156   2.274   4.010   8.038  0.2410 -0.2043  0.5790
   91CHL1   H14 9157   2.163   4.011   8.029  0.0904 -0.5033  2.0754
   91CHL1   C15 9158   2.312   4.144   8.107 -0.1183  0.0729 -0.0248
   91CHL1  H15A 9159   2.421   4.164   8.104 -0.2863  1.5753  1.7237
   91CHL1  H15B 9160   2.256   4.229   8.062  0.4295 -0.9060 -2.6864
   91CHL1   C16 9161   2.282   4.118   8.254  0.5086  0.5337  0.5710
   91CHL1  H16A 9162   2.374   4.143   8.310  1.0126  0.3758 -0.1868
   91CHL1  H16B 9163   2.204   4.190   8.289  1.3429  1.0926  1.3234
   91CHL1   C17 9164   2.241   3.967   8.272 -0.0049 -0.5408  0.0981
   91CHL1   H17 9165   2.132   3.973   8.255 -0.1467  0.5899  1.2461
   91CHL1   C13 9166   2.292   3.892   8.140  0.3864 -0.0642  0.4750
   91CHL1   C18 9167   2.445   3.879   8.160  0.1794 -0.0039 -0.5734
   91CHL1  H18A 9168   2.486   3.863   8.058 -0.6823  0.9314 -1.0862
   91CHL1  H18B 9169   2.489   3.973   8.199  1.7856 -0.5434 -1.0056
   91CHL1  H18C 9170   2.468   3.794   8.227  2.8408  2.0990  1.3818
   91CHL1   C12 9171   2.216   3.773   8.082  0.4149 -0.6422  0.1309
   91CHL1  H12A 9172   2.208   3.689   8.154 -0.9178 -0.3396  0.3742
   91CHL1  H12B 9173   2.113   3.808   8.058  0.1825  0.9085  2.9542
   91CHL1   C11 9174   2.265   3.728   7.940 -0.1773 -0.5851 -0.1482
   91CHL1  H11A 9175   2.373   3.710   7.960 -0.6094  0.2866  3.7982
   91CHL1  H11B 9176   2.205   3.643   7.901 -1.5592 -0.3087  1.2470
   91CHL1    C9 9177   2.260   3.850   7.845 -0.9697  0.6036  0.1181
   91CHL1    H9 9178   2.152   3.869   7.823 -1.5162  0.7329  2.5920
   91CHL1   C10 9179   2.327   3.814   7.709 -0.2499  0.5948 -0.1357
   91CHL1   C19 9180   2.467   3.754   7.729 -0.5186  0.2948 -0.3456
   91CHL1  H19A 9181   2.518   3.805   7.814 -1.8673 -0.1322  0.7741
   91CHL1  H19B 9182   2.465   3.649   7.767  1.1259  0.7163  1.0420
   91CHL1  H19C 9183   2.533   3.754   7.640 -1.1310  0.3053 -0.8083
   91CHL1    C1 9184   2.238   3.708   7.634 -0.5273  0.2063  0.1290
   91CHL1   H1A 9185   2.251   3.617   7.697 -0.2478  1.2922  1.6792
   91CHL1   H1B 9186   2.128   3.716   7.634 -0.6205 -0.5959  1.8034
   91CHL1    C2 9187   2.297   3.673   7.490 -0.1195 -0.8743  0.0672
   91CHL1   H2A 9188   2.228   3.593   7.455  0.2499 -0.4582 -1.7404
   91CHL1   H2B 9189   2.402   3.635   7.490  0.5820  0.9544  1.3205
   91CHL1   C20 9190   2.258   3.912   8.416 -0.5839 -0.8304 -0.2340
   91CHL1   H20 9191   2.367   3.921   8.437 -0.6199  2.4711 -1.0069
   91CHL1   C21 9192   2.207   3.770   8.446 -0.2755  0.5495  0.0319
   91CHL1  H21A 9193   2.252   3.741   8.543 -0.4653 -0.5758 -0.2071
   91CHL1  H21B 9194   2.243   3.701   8.367  2.4195  0.7132  1.0029
   91CHL1  H21C 9195   2.097   3.755   8.456 -0.3749 -0.1595 -1.8746
   91CHL1   C22 9196   2.201   4.008   8.520 -0.3549 -0.5043  0.6535
   91CHL1  H22A 9197   2.252   4.106   8.529 -0.2994 -0.4910  0.1769
   91CHL1  H22B 9198   2.091   4.020   8.506 -0.3933 -0.7666  0.7271
   91CHL1   C23 9199   2.221   3.963   8.658  0.3638 -0.1368 -0.6496
   91CHL1  H23A 9200   2.166   3.870   8.684  1.6171 -1.1436 -1.4423
   91CHL1  H23B 9201   2.328   3.933   8.664  0.2326 -0.3524  1.5568
   91CHL1   C24 9202   2.177   4.074   8.759 -0.2692 -0.0343  0.3417
   91CHL1  H24A 9203   2.237   4.164   8.735 -2.4470  0.7692 -2.5560
   91CHL1  H24B 9204   2.071   4.093   8.733  0.5124 -0.1926 -3.5537
   91CHL1   C25 9205   2.203   4.038   8.903  1.5061  0.8864 -0.6857
   91CHL1   H25 9206   2.264   3.945   8.909  0.2727  0.1419  1.0004
   91CHL1   C26 9207   2.276   4.147   8.979  0.6226  0.0292  0.7345
   91CHL1  H26A 9208   2.215   4.240   8.981 -2.3341 -1.7174 -1.0902
   91CHL1  H26B 9209   2.286   4.128   9.087  1.1636 -0.4650  0.6047
   91CHL1  H26C 9210   2.380   4.160   8.939  0.4358  2.2107  0.8507
   91CHL1   C27 9211   2.081   3.992   8.972  0.2957 -0.3731  0.0201
   91CHL1  H27A 9212   2.035   3.905   8.922  0.9781 -0.1335 -1.0471
   91CHL1  H27B 9213   2.110   3.960   9.075 -1.9372  1.1207  1.2145
   91CHL1  H27C 9214   2.003   4.071   8.982 -0.7663 -1.1409 -1.7497
   92CHL1    C3 9215   3.242   5.885   6.882  0.7290  0.3213 -0.1062
   92CHL1    H3 9216   3.176   5.821   6.819 -0.3873  0.2987  1.0585
   92CHL1    O3 9217   3.307   5.969   6.791  0.7690 -0.3620 -0.3118
   92CHL1   H3' 9218   3.350   6.039   6.842 -0.3211 -0.4664  0.8131
   92CHL1    C4 9219   3.155   5.971   6.974  0.3347 -0.0679 -0.4290
   92CHL1   H4A 9220   3.224   6.042   7.025  1.4000 -1.3580 -0.0131
   92CHL1   H4B 9221   3.097   6.039   6.909  2.2634  3.4421  1.2589
   92CHL1    C5 9222   3.081   5.889   7.075 -0.1584  0.9611  0.5071
   92CHL1    C6 9223   2.948   5.881   7.082  0.5121  0.3380  0.2867
   92CHL1    H6 9224   2.892   5.951   7.018  1.5743 -0.6531 -1.8124
   92CHL1    C7 9225   2.874   5.805   7.192  0.1854  0.2119 -0.1413
   92CHL1   H7A 9226   2.794   5.866   7.239  0.3311 -2.7263  4.6734
   92CHL1   H7B 9227   2.803   5.740   7.136  0.8472 -1.0756  0.4515
   92CHL1    C8 9228   2.964   5.734   7.298  0.0783 -0.0488  0.0113
   92CHL1    H8 9229   2.990   5.811   7.375 -0.2351 -0.2849  0.3540
   92CHL1   C14 9230   2.889   5.618   7.367 -0.2276 -0.4273  0.0729
   92CHL1   H14 9231   2.859   5.538   7.297  2.3058 -1.7586  0.3639
   92CHL1   C15 9232   2.748   5.653   7.419  0.4753  0.1666 -0.6171
   92CHL1  H15A 9233   2.753   5.748   7.477  0.9232  0.1142 -0.5707
   92CHL1  H15B 9234   2.673   5.655   7.337 -1.1619  0.6811  0.8314
   92CHL1   C16 9235   2.723   5.537   7.517 -0.3796 -0.1282 -0.4860
   92CHL1  H16A 9236   2.702   5.589   7.613  0.6117  0.1317 -0.4015
   92CHL1  H16B 9237   2.638   5.471   7.490  0.2479 -1.5349  0.8441
   92CHL1   C17 9238   2.851   5.452   7.532 -0.4401 -0.9764 -0.6823
   92CHL1   H17 9239   2.830   5.377   7.452 -0.6196 -0.3871 -1.1910
   92CHL1   C13 9240   2.962   5.546   7.480 -1.3612  0.2178  0.1648
   92CHL1   C18 9241   3.003   5.650   7.585  0.0771 -0.1415 -0.2170
   92CHL1  H18A 9242   2.922   5.708   7.635 -0.9206 -2.1036  0.5559
   92CHL1  H18B 9243   3.055   5.591   7.663 -0.0757  1.4725  1.1595
   92CHL1  H18C 9244   3.078   5.725   7.553  1.0404 -1.0426 -0.1191
   92CHL1   C12 9245   3.089   5.482   7.419 -0.5073 -0.3057  0.2402
   92CHL1  H12A 9246   3.157   5.433   7.491 -2.1782 -1.2081  1.2791
   92CHL1  H12B 9247   3.054   5.404   7.349 -1.2944 -1.1105  1.4754
   92CHL1   C11 9248   3.171   5.591   7.337 -0.6313 -0.1000  0.5762
   92CHL1  H11A 9249   3.219   5.653   7.416  0.9549 -1.3727  0.6654
   92CHL1  H11B 9250   3.252   5.533   7.289 -0.6802 -0.3160  0.7533
   92CHL1    C9 9251   3.089   5.675   7.241 -0.2709  0.3405  0.1223
   92CHL1    H9 9252   3.055   5.594   7.173  3.1591 -1.0428 -0.1186
   92CHL1   C10 9253   3.168   5.779   7.151  0.9449 -0.0149  0.2307
   92CHL1   C19 9254   3.261   5.862   7.244  0.3944 -0.6741 -0.6805
   92CHL1  H19A 9255   3.310   5.950   7.198 -1.4857  0.6626 -0.2234
   92CHL1  H19B 9256   3.207   5.891   7.336 -1.4251 -3.7486 -0.6280
   92CHL1  H19C 9257   3.340   5.793   7.282  0.2480 -1.2875 -1.4720
   92CHL1    C1 9258   3.252   5.697   7.046  0.1577 -0.0781 -0.3220
   92CHL1   H1A 9259   3.328   5.635   7.098  0.5424  1.0402  0.5012
   92CHL1   H1B 9260   3.191   5.632   6.980  1.2231 -2.0300  0.5558
   92CHL1    C2 9261   3.337   5.795   6.958 -0.0736 -0.5052 -0.6856
   92CHL1   H2A 9262   3.381   5.722   6.887  0.9913 -1.7639  1.1939
   92CHL1   H2B 9263   3.413   5.845   7.022 -0.5964  0.0358 -0.4730
   92CHL1   C20 9264   2.864   5.388   7.671  0.4905  0.0587 -0.4254
   92CHL1   H20 9265   2.889   5.465   7.746  1.8763  0.1389 -0.9311
   92CHL1   C21 9266   2.986   5.288   7.664 -0.2303 -0.0191 -0.2005
   92CHL1  H21A 9267   2.976   5.232   7.569 -0.4424  0.7158 -0.6178
   92CHL1  H21B 9268   2.982   5.215   7.748 -1.0105 -0.5527 -0.6888
   92CHL1  H21C 9269   3.079   5.348   7.661 -0.6365  0.7080  0.9351
   92CHL1   C22 9270   2.735   5.325   7.729  0.5196 -0.8477  0.2584
   92CHL1  H22A 9271   2.655   5.402   7.732 -1.1296 -2.5168  0.9533
   92CHL1  H22B 9272   2.697   5.244   7.663 -0.5659 -1.3486  1.4407
   92CHL1   C23 9273   2.739   5.279   7.877  1.1732 -0.3609  0.7838
   92CHL1  H23A 9274   2.813   5.196   7.882  1.1305 -0.4443  0.1410
   92CHL1  H23B 9275   2.772   5.347   7.958 -0.0105 -0.9057  1.7587
   92CHL1   C24 9276   2.610   5.212   7.928 -0.0921  0.4760  0.0576
   92CHL1  H24A 9277   2.517   5.267   7.905  0.6894  0.9496 -2.3102
   92CHL1  H24B 9278   2.587   5.120   7.871  4.6757 -1.0205  0.1268
   92CHL1   C25 9279   2.624   5.171   8.075  0.0111 -0.2791  0.0339
   92CHL1   H25 9280   2.722   5.120   8.087  0.3761  0.6002  0.9043
   92CHL1   C26 9281   2.614   5.286   8.168  0.7119 -0.6670  0.0638
   92CHL1  H26A 9282   2.698   5.358   8.150 -0.9632  0.6722 -3.1895
   92CHL1  H26B 9283   2.529   5.354   8.148  0.7700 -0.2063  1.2698
   92CHL1  H26C 9284   2.618   5.266   8.277  0.6363  2.5012  0.7482
   92CHL1   C27 9285   2.515   5.067   8.106 -0.2472  0.6376  0.2406
   92CHL1  H27A 9286   2.520   4.972   8.048 -0.1371  1.1871 -0.6670
   92CHL1  H27B 9287   2.523   5.036   8.213  1.3151 -0.9885 -0.3056
   92CHL1  H27C 9288   2.412   5.106   8.087 -0.3906  0.0844 -0.1335
   93CHL1    C3 9289   3.331   4.346   6.710  0.2754  0.1215 -0.4911
   93CHL1    H3 9290   3.347   4.454   6.729  0.3364  0.1588 -0.7509
   93CHL1    O3 9291   3.316   4.328   6.574  0.3788  0.2850  0.8958
   93CHL1   H3' 9292   3.324   4.236   6.545 -0.3358  0.3888  0.3144
   93CHL1    C4 9293   3.459   4.275   6.758 -0.3279 -0.6153 -0.0009
   93CHL1   H4A 9294   3.465   4.173   6.713  0.4414 -0.7906  0.4833
   93CHL1   H4B 9295   3.538   4.336   6.710 -0.5796  0.2553  0.6604
   93CHL1    C5 9296   3.470   4.264   6.908  0.4386  0.5116 -0.9976
   93CHL1    C6 9297   3.584   4.306   6.966 -0.9242  0.4492 -0.3705
   93CHL1    H6 9298   3.675   4.324   6.907  0.7112 -0.5058  1.7347
   93CHL1    C7 9299   3.596   4.303   7.109  0.3631  0.4776 -0.3221
   93CHL1   H7A 9300   3.695   4.281   7.152  0.2618 -2.4121 -1.3508
   93CHL1   H7B 9301   3.589   4.409   7.139 -1.1176  0.4022 -0.3229
   93CHL1    C8 9302   3.496   4.216   7.184  0.6573 -0.1758 -0.2099
   93CHL1    H8 9303   3.509   4.107   7.163 -0.5396 -0.2520 -0.6405
   93CHL1   C14 9304   3.502   4.238   7.333 -0.6083  0.2171 -0.0842
   93CHL1   H14 9305   3.500   4.346   7.359 -0.9641 -0.0845  1.1972
   93CHL1   C15 9306   3.635   4.198   7.401 -0.3468  0.0287 -0.4196
   93CHL1  H15A 9307   3.669   4.105   7.350  1.3332  1.9920 -3.1528
   93CHL1  H15B 9308   3.717   4.271   7.385  1.9035 -1.4640  3.2029
   93CHL1   C16 9309   3.605   4.186   7.543  0.0715  0.0634 -0.1791
   93CHL1  H16A 9310   3.648   4.094   7.588 -1.7401  0.0529  1.7093
   93CHL1  H16B 9311   3.645   4.260   7.616  0.1754 -0.2335  0.0665
   93CHL1   C17 9312   3.447   4.184   7.553 -0.3420 -0.9510 -0.3358
   93CHL1   H17 9313   3.408   4.286   7.573 -1.9084 -1.3543 -1.1688
   93CHL1   C13 9314   3.403   4.161   7.409  0.4154  0.0444 -0.2385
   93CHL1   C18 9315   3.405   4.010   7.375  0.1765  0.0112 -0.3347
   93CHL1  H18A 9316   3.324   3.965   7.437  1.5884 -0.4905  1.2277
   93CHL1  H18B 9317   3.387   3.991   7.267 -0.9662  2.3694 -0.6195
   93CHL1  H18C 9318   3.497   3.960   7.412 -0.7355 -0.8108  0.9053
   93CHL1   C12 9319   3.266   4.218   7.363 -0.2313  0.2755 -0.3623
   93CHL1  H12A 9320   3.192   4.159   7.423 -0.8728 -0.3338 -1.6959
   93CHL1  H12B 9321   3.251   4.323   7.396 -1.1630  0.0226  0.0789
   93CHL1   C11 9322   3.237   4.190   7.217 -0.2205 -0.6109 -0.0295
   93CHL1  H11A 9323   3.214   4.084   7.190 -1.1770 -0.3180 -0.4012
   93CHL1  H11B 9324   3.145   4.248   7.196 -0.0564 -0.1687  0.4629
   93CHL1    C9 9325   3.353   4.246   7.137  0.2886  0.1322 -0.6990
   93CHL1    H9 9326   3.349   4.357   7.140 -2.5374  0.1291 -1.1645
   93CHL1   C10 9327   3.344   4.213   6.990  0.2075  0.1470  0.2370
   93CHL1   C19 9328   3.313   4.064   6.964  1.3078 -0.2677 -0.5940
   93CHL1  H19A 9329   3.333   4.036   6.859  0.6941 -1.5138 -0.4005
   93CHL1  H19B 9330   3.383   4.000   7.023 -0.5872 -0.6311  1.3849
   93CHL1  H19C 9331   3.205   4.051   6.987  0.9915  1.6561 -0.8541
   93CHL1    C1 9332   3.227   4.297   6.929  0.1527 -0.5277 -0.1954
   93CHL1   H1A 9333   3.129   4.280   6.978 -0.0065 -0.1681 -0.3894
   93CHL1   H1B 9334   3.242   4.403   6.957 -2.7439 -0.3443  0.9853
   93CHL1    C2 9335   3.205   4.293   6.779  0.3221  0.5822 -0.6401
   93CHL1   H2A 9336   3.123   4.362   6.747  0.6626  0.1008 -2.6665
   93CHL1   H2B 9337   3.193   4.186   6.753 -2.5915  0.2773  1.5134
   93CHL1   C20 9338   3.397   4.097   7.671 -0.9260 -0.6321  0.4364
   93CHL1   H20 9339   3.414   3.991   7.645  1.2529 -0.0875 -0.5779
   93CHL1   C21 9340   3.242   4.116   7.689  0.3033 -0.3891  0.0160
   93CHL1  H21A 9341   3.187   4.056   7.614  1.3974 -0.0527 -1.0992
   93CHL1  H21B 9342   3.215   4.224   7.687  1.5192 -0.0692 -0.7927
   93CHL1  H21C 9343   3.203   4.059   7.775  2.2403 -1.6304  0.1297
   93CHL1   C22 9344   3.465   4.127   7.814 -0.4206  0.3496  0.6220
   93CHL1  H22A 9345   3.576   4.128   7.808 -0.4784 -0.1599 -2.4025
   93CHL1  H22B 9346   3.431   4.229   7.841 -0.7725  0.2649  0.5077
   93CHL1   C23 9347   3.424   4.039   7.936 -0.5627 -0.0290  0.2605
   93CHL1  H23A 9348   3.320   4.064   7.964  0.7260  1.5907  4.3853
   93CHL1  H23B 9349   3.433   3.931   7.915 -0.5865  0.5271 -3.1231
   93CHL1   C24 9350   3.513   4.074   8.058 -0.1333  0.1278  0.2740
   93CHL1  H24A 9351   3.612   4.044   8.018 -1.3782 -1.8438 -1.5936
   93CHL1  H24B 9352   3.512   4.183   8.079  1.3393 -0.0047  1.1565
   93CHL1   C25 9353   3.492   4.007   8.192  0.5444  0.2371  0.2717
   93CHL1   H25 9354   3.528   3.903   8.176 -1.5453 -0.2180 -2.0952
   93CHL1   C26 9355   3.578   4.073   8.299 -0.1759 -0.1036 -0.4780
   93CHL1  H26A 9356   3.549   4.177   8.327  1.8863  0.5507 -0.6288
   93CHL1  H26B 9357   3.579   4.025   8.400  0.2943  1.9774  0.5592
   93CHL1  H26C 9358   3.682   4.078   8.262 -0.5818  0.9773 -1.5587
   93CHL1   C27 9359   3.345   3.982   8.229 -0.1503 -0.1006 -0.2955
   93CHL1  H27A 9360   3.303   3.927   8.141  0.3058  1.2646 -1.4079
   93CHL1  H27B 9361   3.331   3.927   8.324 -0.6217 -1.1298 -0.9441
   93CHL1  H27C 9362   3.313   4.087   8.246  0.5950 -0.0694  0.9773
   94CHL1    C3 9363   4.250   4.523   6.871 -0.1602  0.5379 -0.5452
   94CHL1    H3 9364   4.346   4.577   6.884  0.3131 -0.2071 -0.8959
   94CHL1    O3 9365   4.226   4.541   6.735  0.0806 -0.1663 -0.2586
   94CHL1   H3' 9366   4.238   4.634   6.719  3.5186 -0.6924 -1.5471
   94CHL1    C4 9367   4.243   4.375   6.917 -0.4558  0.5358  0.5989
   94CHL1   H4A 9368   4.151   4.336   6.868  0.2972  1.3447 -1.5910
   94CHL1   H4B 9369   4.331   4.334   6.864 -0.1582  2.9425 -0.9590
   94CHL1    C5 9370   4.246   4.348   7.066  0.3565 -0.0397 -0.2816
   94CHL1    C6 9371   4.337   4.260   7.122  0.2887  0.0576  0.2345
   94CHL1    H6 9372   4.411   4.217   7.053  1.2139  1.8417  0.0660
   94CHL1    C7 9373   4.333   4.222   7.262 -0.5600  0.0333  0.0367
   94CHL1   H7A 9374   4.351   4.113   7.251 -0.3934  0.1796 -1.2569
   94CHL1   H7B 9375   4.422   4.265   7.313 -1.4621  0.6685  1.1178
   94CHL1    C8 9376   4.206   4.259   7.341 -0.1731 -0.0913 -0.6616
   94CHL1    H8 9377   4.117   4.203   7.306  0.1824  0.1769 -2.0484
   94CHL1   C14 9378   4.230   4.262   7.492  0.3862 -0.2798  0.3046
   94CHL1   H14 9379   4.310   4.338   7.505  0.8972 -0.5244 -1.1923
   94CHL1   C15 9380   4.292   4.137   7.557  0.6945 -0.4066 -0.3451
   94CHL1  H15A 9381   4.240   4.049   7.512  1.9732 -1.1941 -0.3298
   94CHL1  H15B 9382   4.403   4.137   7.555  0.8534  1.2844  2.4784
   94CHL1   C16 9383   4.251   4.146   7.705 -0.4348 -0.3328 -0.2288
   94CHL1  H16A 9384   4.222   4.043   7.733  0.3274 -1.4821 -3.2579
   94CHL1  H16B 9385   4.347   4.176   7.752 -0.3052  0.5090 -0.9924
   94CHL1   C17 9386   4.155   4.264   7.718  0.7147 -0.8580 -0.8257
   94CHL1   H17 9387   4.223   4.349   7.743 -0.9232  0.5483 -0.9602
   94CHL1   C13 9388   4.106   4.297   7.575  0.4680  0.0726 -0.2316
   94CHL1   C18 9389   3.989   4.193   7.541 -0.0987 -0.1795 -1.0326
   94CHL1  H18A 9390   4.020   4.093   7.578  2.5018  1.8457  2.9702
   94CHL1  H18B 9391   3.891   4.223   7.586 -0.4035  0.0759 -1.8462
   94CHL1  H18C 9392   3.960   4.190   7.434  1.2725 -1.0115 -1.3986
   94CHL1   C12 9393   4.086   4.445   7.533  0.2129  0.0028 -0.4286
   94CHL1  H12A 9394   3.998   4.481   7.590  1.0704  0.6999  0.5062
   94CHL1  H12B 9395   4.176   4.503   7.563 -0.3873  1.1654 -0.8239
   94CHL1   C11 9396   4.063   4.463   7.386  0.8066 -0.7475  0.0539
   94CHL1  H11A 9397   3.965   4.413   7.373  0.3687  0.5602 -2.1978
   94CHL1  H11B 9398   4.045   4.570   7.361  0.1392 -1.2895 -1.9840
   94CHL1    C9 9399   4.171   4.407   7.303  0.5572 -0.5740  0.2782
   94CHL1    H9 9400   4.269   4.457   7.317  2.3697 -3.7488  0.0700
   94CHL1   C10 9401   4.145   4.427   7.148 -0.5382 -0.2601  0.0372
   94CHL1   C19 9402   4.008   4.360   7.116  0.1843  0.0787 -0.0303
   94CHL1  H19A 9403   3.923   4.407   7.169  0.1014  1.2231 -1.1206
   94CHL1  H19B 9404   3.989   4.366   7.006 -0.3121 -0.0148  0.0493
   94CHL1  H19C 9405   3.994   4.252   7.139 -1.7598  0.3701  0.3279
   94CHL1    C1 9406   4.147   4.576   7.101 -0.2360 -0.6655 -0.6249
   94CHL1   H1A 9407   4.058   4.627   7.143 -0.1515 -0.9042 -0.1534
   94CHL1   H1B 9408   4.239   4.627   7.137 -0.2046 -1.6196  0.7336
   94CHL1    C2 9409   4.141   4.597   6.946  0.1220 -0.0410 -0.0496
   94CHL1   H2A 9410   4.148   4.703   6.914 -0.9004 -0.9114 -3.6325
   94CHL1   H2B 9411   4.037   4.571   6.915 -0.3367  0.9985  0.5635
   94CHL1   C20 9412   4.056   4.252   7.837  1.2353 -0.6195  0.2433
   94CHL1   H20 9413   3.970   4.185   7.815  0.1357  0.5094  0.9912
   94CHL1   C21 9414   4.006   4.398   7.860 -0.3553  0.1080 -0.5629
   94CHL1  H21A 9415   4.086   4.474   7.875 -2.3088  2.1562  0.0683
   94CHL1  H21B 9416   3.948   4.396   7.955 -1.8117  1.1457 -1.3745
   94CHL1  H21C 9417   3.927   4.424   7.786 -2.6949  1.9803  2.3576
   94CHL1   C22 9418   4.116   4.197   7.969  0.6993  0.3637 -0.3991
   94CHL1  H22A 9419   4.152   4.096   7.938 -3.1633 -1.7005  1.1957
   94CHL1  H22B 9420   4.206   4.254   8.003 -1.2773  4.0341 -0.8666
   94CHL1   C23 9421   4.021   4.176   8.089 -0.6670  0.7629  0.2002
   94CHL1  H23A 9422   3.998   4.274   8.136 -2.0221 -0.9226  3.2999
   94CHL1  H23B 9423   3.930   4.124   8.052 -0.4410  1.1104 -0.8913
   94CHL1   C24 9424   4.076   4.085   8.197  0.2556 -0.8990  0.3433
   94CHL1  H24A 9425   3.999   4.077   8.277  0.0137  1.7126  0.4400
   94CHL1  H24B 9426   4.085   3.981   8.159  2.3291  0.1065 -2.1923
   94CHL1   C25 9427   4.210   4.115   8.265 -0.3102 -0.1771 -0.0003
   94CHL1   H25 9428   4.293   4.101   8.193  0.9052  1.2695  1.0431
   94CHL1   C26 9429   4.228   4.252   8.330 -0.2716 -0.0763 -0.0645
   94CHL1  H26A 9430   4.327   4.259   8.381  0.1260 -1.6402 -0.5639
   94CHL1  H26B 9431   4.225   4.329   8.250  0.3108 -1.3150 -1.3113
   94CHL1  H26C 9432   4.141   4.279   8.393 -1.4245 -1.8702 -0.8038
   94CHL1   C27 9433   4.249   4.001   8.367  0.3856 -0.1501 -0.5798
   94CHL1  H27A 9434   4.345   4.006   8.422  0.0968  0.7782 -0.1431
   94CHL1  H27B 9435   4.177   4.002   8.451 -0.7440  0.1652 -1.5175
   94CHL1  H27C 9436   4.224   3.900   8.329  1.5572 -1.5396  2.0747
   95CHL1    C3 9437   4.683   0.078   6.681 -0.3936 -0.6458  0.3287
   95CHL1    H3 9438   4.597   0.032   6.733 -1.3280 -0.2682 -0.8426
   95CHL1    O3 9439   4.654   0.085   6.540  0.1043  0.0880  0.4326
   95CHL1   H3' 9440   4.741   0.097   6.500  1.4751 -2.0396  2.5021
   95CHL1    C4 9441   4.717   0.217   6.735 -0.1279 -0.2975  0.0578
   95CHL1   H4A 9442   4.807   0.265   6.691  0.0652  1.2565  1.9920
   95CHL1   H4B 9443   4.636   0.291   6.716 -1.3868 -1.7489 -0.3806
   95CHL1    C5 9444   4.733   0.193   6.886 -0.3138 -1.1829 -0.4946
   95CHL1    C6 9445   4.654   0.250   6.984  0.7595 -0.4057  0.3529
   95CHL1    H6 9446   4.571   0.321   6.969 -0.8669 -2.4780 -1.1760
   95CHL1    C7 9447   4.666   0.231   7.133  0.3228  0.6169 -0.6762
   95CHL1   H7A 9448   4.646   0.328   7.184 -0.0392 -0.6857  1.8262
   95CHL1   H7B 9449   4.591   0.160   7.174 -1.8509  3.7072  1.1527
   95CHL1    C8 9450   4.811   0.185   7.174 -0.6700 -0.6578  0.8370
   95CHL1    H8 9451   4.878   0.273   7.159 -1.9621  0.0387 -1.5362
   95CHL1   C14 9452   4.826   0.144   7.324  0.1351 -0.0397  1.0455
   95CHL1   H14 9453   4.756   0.058   7.329 -0.3291  0.1629 -1.1456
   95CHL1   C15 9454   4.776   0.240   7.427 -0.7394  0.3557 -0.6806
   95CHL1  H15A 9455   4.825   0.338   7.405  2.2476 -0.6036  1.1187
   95CHL1  H15B 9456   4.667   0.258   7.412 -1.1035 -0.6863  0.5360
   95CHL1   C16 9457   4.830   0.189   7.556  0.5310  0.0380 -0.4393
   95CHL1  H16A 9458   4.868   0.277   7.611  0.1699  0.5524 -1.0067
   95CHL1  H16B 9459   4.756   0.129   7.612  1.5007  0.1449  1.0123
   95CHL1   C17 9460   4.945   0.089   7.517 -0.7504 -0.4866 -0.0964
   95CHL1   H17 9461   4.895  -0.010   7.527  0.9492 -1.5675 -1.7153
   95CHL1   C13 9462   4.970   0.109   7.362  0.0232 -0.2854  0.4422
   95CHL1   C18 9463   5.076   0.227   7.340  0.0601 -0.1216  0.0936
   95CHL1  H18A 9464   5.180   0.202   7.372  0.2360  1.4378  0.8312
   95CHL1  H18B 9465   5.089   0.247   7.232  2.9154  0.8299  0.5373
   95CHL1  H18C 9466   5.048   0.324   7.386 -0.9047 -0.3410 -0.0054
   95CHL1   C12 9467   5.008  -0.018   7.285  0.6886 -0.1338 -0.6364
   95CHL1  H12A 9468   5.102  -0.067   7.318  0.0535 -0.0699  1.3882
   95CHL1  H12B 9469   4.929  -0.093   7.306 -0.5203  0.4549 -2.7274
   95CHL1   C11 9470   4.997   0.003   7.132 -0.0781 -1.1489 -0.5879
   95CHL1  H11A 9471   5.080   0.068   7.097  0.2154 -1.3589 -0.2875
   95CHL1  H11B 9472   4.988  -0.092   7.074 -1.9232 -1.2873 -0.1569
   95CHL1    C9 9473   4.865   0.075   7.084  0.4675  0.4706  0.0548
   95CHL1    H9 9474   4.786  -0.002   7.101  0.3401  0.6841  0.4562
   95CHL1   C10 9475   4.860   0.101   6.925  0.9417  1.1316  0.6626
   95CHL1   C19 9476   4.985   0.173   6.885  0.6844  0.5718 -0.4517
   95CHL1  H19A 9477   5.076   0.110   6.895 -0.8367 -1.8567 -0.9933
   95CHL1  H19B 9478   4.987   0.214   6.781  3.4448 -0.4242 -0.8613
   95CHL1  H19C 9479   4.998   0.262   6.950 -1.4241 -0.5644  1.6965
   95CHL1    C1 9480   4.842  -0.030   6.849  0.0381 -0.0775 -0.3436
   95CHL1   H1A 9481   4.928  -0.100   6.861  0.4726  0.2176 -1.5383
   95CHL1   H1B 9482   4.755  -0.085   6.891  0.8917 -0.0936  1.5141
   95CHL1    C2 9483   4.809  -0.006   6.701  0.2831  0.3286  0.3029
   95CHL1   H2A 9484   4.789  -0.106   6.656  0.7028  1.5014 -2.7228
   95CHL1   H2B 9485   4.897   0.046   6.660  0.4123  0.6655  1.0013
   95CHL1   C20 9486   5.058   0.097   7.614 -0.0539  0.0112  0.0493
   95CHL1   H20 9487   5.110   0.195   7.607 -1.2367  0.6607  0.0933
   95CHL1   C21 9488   5.170  -0.002   7.581 -0.1794  0.5323  0.2818
   95CHL1  H21A 9489   5.122  -0.103   7.572 -0.9825  0.7861  1.5117
   95CHL1  H21B 9490   5.259   0.007   7.645  1.2189 -0.0307 -1.4965
   95CHL1  H21C 9491   5.222   0.020   7.485 -0.4088 -0.3139 -0.0540
   95CHL1   C22 9492   5.018   0.079   7.763  0.5056 -0.3440  0.7184
   95CHL1  H22A 9493   5.096   0.109   7.836  0.7220 -2.1066  1.2610
   95CHL1  H22B 9494   4.934   0.150   7.781  1.3448  0.8457  0.0867
   95CHL1   C23 9495   4.979  -0.066   7.802 -0.2924  0.6992  0.8472
   95CHL1  H23A 9496   4.924  -0.122   7.724  0.5490 -2.1432  2.1647
   95CHL1  H23B 9497   5.066  -0.133   7.819  0.3774  1.4008  0.2683
   95CHL1   C24 9498   4.898  -0.068   7.930  0.2297  0.6407  0.4005
   95CHL1  H24A 9499   4.963  -0.008   7.997  1.1271  0.6176 -0.4306
   95CHL1  H24B 9500   4.796  -0.028   7.911  0.7402  0.9951 -1.8990
   95CHL1   C25 9501   4.890  -0.213   7.991 -0.1807  0.5066 -0.6845
   95CHL1   H25 9502   4.895  -0.280   7.902  0.2011  0.7941 -0.8845
   95CHL1   C26 9503   5.009  -0.256   8.081 -0.3843 -0.2779  0.8491
   95CHL1  H26A 9504   5.111  -0.253   8.036  0.0708  0.3426  1.8764
   95CHL1  H26B 9505   4.998  -0.200   8.176 -0.3008  0.6656  0.3171
   95CHL1  H26C 9506   4.990  -0.365   8.097 -4.4320  0.2013  0.2999
   95CHL1   C27 9507   4.759  -0.229   8.067  0.1004  0.3894  0.0823
   95CHL1  H27A 9508   4.755  -0.165   8.158  2.1340  0.1333  0.4116
   95CHL1  H27B 9509   4.678  -0.207   7.995 -0.9125  1.2939  1.4444
   95CHL1  H27C 9510   4.741  -0.336   8.089  0.9540  0.4844  1.3962
   96CHL1    C3 9511   3.769   2.471   6.699  0.6174 -0.3256 -1.2771
   96CHL1    H3 9512   3.708   2.407   6.767 -1.1881  1.1761 -1.3984
   96CHL1    O3 9513   3.686   2.487   6.586  0.2314 -0.3078  0.3332
   96CHL1   H3' 9514   3.746   2.527   6.522  0.8275  1.1560  1.7223
   96CHL1    C4 9515   3.787   2.602   6.781 -1.2274  0.1043 -0.1451
   96CHL1   H4A 9516   3.848   2.675   6.722 -1.4874 -1.1877 -2.1174
   96CHL1   H4B 9517   3.689   2.651   6.798  0.6091  2.9358  3.7903
   96CHL1    C5 9518   3.859   2.572   6.909  0.2512  0.8352  0.1453
   96CHL1    C6 9519   3.803   2.605   7.032  0.3257  0.5000 -0.5105
   96CHL1    H6 9520   3.707   2.658   7.025  0.8704  2.5087  3.8173
   96CHL1    C7 9521   3.875   2.585   7.163  0.5747 -0.0916 -0.2060
   96CHL1   H7A 9522   3.878   2.678   7.225  3.2517 -1.3731  1.7907
   96CHL1   H7B 9523   3.830   2.510   7.231  1.2309  1.8862  2.6038
   96CHL1    C8 9524   4.031   2.557   7.137 -0.5058 -0.2240  0.8964
   96CHL1    H8 9525   4.075   2.655   7.107  1.8042 -1.7526 -1.1581
   96CHL1   C14 9526   4.088   2.505   7.259 -0.3976 -0.0658 -0.4956
   96CHL1   H14 9527   4.035   2.410   7.281  0.0367  0.2070  2.1391
   96CHL1   C15 9528   4.052   2.575   7.397  0.2749 -0.5799  0.1532
   96CHL1  H15A 9529   4.027   2.681   7.375 -0.5184 -0.3002  2.1188
   96CHL1  H15B 9530   3.959   2.524   7.430  0.2221 -1.1693 -0.8930
   96CHL1   C16 9531   4.179   2.545   7.481  0.1879 -0.2113 -0.2507
   96CHL1  H16A 9532   4.239   2.636   7.499 -1.5188  0.9928 -0.4035
   96CHL1  H16B 9533   4.149   2.498   7.578 -1.0610 -1.3617 -1.1425
   96CHL1   C17 9534   4.274   2.447   7.404  1.2134  0.4992  0.0209
   96CHL1   H17 9535   4.240   2.345   7.433  0.3720  0.2082 -1.8631
   96CHL1   C13 9536   4.244   2.477   7.263  0.3318 -0.1492  0.3059
   96CHL1   C18 9537   4.323   2.606   7.223 -0.0145  0.7153  0.1582
   96CHL1  H18A 9538   4.314   2.692   7.293 -0.5146  1.2303 -0.5182
   96CHL1  H18B 9539   4.429   2.579   7.206 -0.0817 -1.3599  2.3960
   96CHL1  H18C 9540   4.274   2.653   7.135 -2.7420  2.5418  2.4684
   96CHL1   C12 9541   4.265   2.363   7.158 -0.2348  0.2350 -0.2347
   96CHL1  H12A 9542   4.371   2.333   7.146 -0.4931 -1.1550  0.6694
   96CHL1  H12B 9543   4.218   2.268   7.192  2.1015 -1.5426 -1.6917
   96CHL1   C11 9544   4.206   2.404   7.021  0.0229 -0.0516  0.7406
   96CHL1  H11A 9545   4.276   2.482   6.983  2.2737 -1.3977  1.9183
   96CHL1  H11B 9546   4.223   2.315   6.957 -2.4284  0.2799 -0.4817
   96CHL1    C9 9547   4.057   2.457   7.028 -0.1390  0.5164 -0.4037
   96CHL1    H9 9548   4.005   2.366   7.063 -0.1135  0.2565 -1.0233
   96CHL1   C10 9549   3.990   2.491   6.892  0.7306  0.3009 -0.2671
   96CHL1   C19 9550   4.097   2.570   6.815  0.3838 -0.2919 -0.3087
   96CHL1  H19A 9551   4.129   2.665   6.862 -0.0028  0.0088 -0.6557
   96CHL1  H19B 9552   4.183   2.506   6.784 -0.7615 -0.2007 -4.1801
   96CHL1  H19C 9553   4.050   2.593   6.717  0.0374 -1.8225 -0.5242
   96CHL1    C1 9554   3.963   2.360   6.808 -0.0016 -0.1252  0.3747
   96CHL1   H1A 9555   4.058   2.306   6.784  0.6486  0.3744  1.7145
   96CHL1   H1B 9556   3.905   2.288   6.870  0.7427 -0.7347  0.3855
   96CHL1    C2 9557   3.891   2.387   6.673 -0.6054  0.9173 -0.9633
   96CHL1   H2A 9558   3.857   2.288   6.636 -0.6390  1.0442 -1.2751
   96CHL1   H2B 9559   3.962   2.428   6.597  2.0550  0.7640  1.2824
   96CHL1   C20 9560   4.415   2.453   7.451 -0.0464  0.2584 -0.8592
   96CHL1   H20 9561   4.450   2.557   7.433 -0.3948  0.3711 -0.8824
   96CHL1   C21 9562   4.515   2.357   7.383 -0.4418 -0.5763 -0.7690
   96CHL1  H21A 9563   4.519   2.379   7.274 -1.1160  0.2554 -0.6294
   96CHL1  H21B 9564   4.484   2.252   7.400  1.6637 -1.0045  0.7422
   96CHL1  H21C 9565   4.616   2.377   7.425 -1.9389  2.9170  1.6725
   96CHL1   C22 9566   4.435   2.433   7.611 -0.6473  0.1984  0.3171
   96CHL1  H22A 9567   4.544   2.449   7.628 -0.6541 -0.2664  0.8315
   96CHL1  H22B 9568   4.380   2.508   7.672 -0.2245  1.6376 -0.9965
   96CHL1   C23 9569   4.408   2.290   7.658  0.3506 -0.4092  0.0833
   96CHL1  H23A 9570   4.337   2.288   7.744 -0.5862 -0.2599 -0.6735
   96CHL1  H23B 9571   4.361   2.228   7.579 -2.2626 -0.6105  1.6730
   96CHL1   C24 9572   4.537   2.209   7.694  0.1381 -0.2782 -0.3403
   96CHL1  H24A 9573   4.602   2.226   7.605 -0.1262 -3.5503 -1.2953
   96CHL1  H24B 9574   4.585   2.264   7.777  1.0387  0.0562 -1.0625
   96CHL1   C25 9575   4.532   2.056   7.720  0.3897 -0.1437  0.8326
   96CHL1   H25 9576   4.461   2.014   7.645  0.9179 -1.1447  0.8693
   96CHL1   C26 9577   4.664   1.981   7.698 -0.8350 -0.7736 -0.2684
   96CHL1  H26A 9578   4.696   1.962   7.593 -1.2986 -2.1816 -0.1768
   96CHL1  H26B 9579   4.743   2.038   7.751 -0.5885 -2.5552  1.4177
   96CHL1  H26C 9580   4.655   1.881   7.747 -0.9971  0.3570  2.1361
   96CHL1   C27 9581   4.458   2.011   7.856 -0.1882 -0.4923  0.0119
   96CHL1  H27A 9582   4.464   1.900   7.855 -0.0174 -0.4999  0.8865
   96CHL1  H27B 9583   4.523   2.036   7.943 -0.3113 -1.2068  0.3198
   96CHL1  H27C 9584   4.352   2.043   7.861 -0.6218 -1.1237 -3.0777
   97OSM      N 9585   3.310   0.166  10.857  0.7903  0.7073  0.4297
   97OSM    C15 9586   3.203   0.072  10.902  0.3039  0.1176  0.2629
   97OSM   H15A 9587   3.128   0.122  10.962 -0.3794 -0.9112  0.2975
   97OSM   H15B 9588   3.236  -0.014  10.958 -1.4005  0.8904  2.6478
   97OSM   H15C 9589   3.148   0.032  10.818 -1.3249  2.2369  0.2282
   97OSM    C14 9590   3.387   0.101  10.740 -0.1554  0.5321 -0.0270
   97OSM   H14A 9591   3.443   0.016  10.775 -0.5616  0.4146  0.3461
   97OSM   H14B 9592   3.464   0.166  10.701  0.3814  0.4765  0.9249
   97OSM   H14C 9593   3.332   0.078  10.649  2.1790  1.1910 -1.6965
   97OSM    C13 9594   3.250   0.284  10.804 -1.0308 -0.1150  0.0291
   97OSM   H13A 9595   3.329   0.346  10.766 -0.4751 -0.3428  0.7916
   97OSM   H13B 9596   3.202   0.345  10.879 -1.9828 -2.2458  1.2535
   97OSM   H13C 9597   3.190   0.264  10.717  2.3403  0.5856 -2.6534
   97OSM    C12 9598   3.398   0.188  10.972 -0.2325 -0.4737 -0.6434
   97OSM   H12A 9599   3.333   0.243  11.039  0.0487 -0.4890 -0.3614
   97OSM   H12B 9600   3.482   0.248  10.943  0.4779 -1.5064 -0.7756
   97OSM    C11 9601   3.446   0.069  11.062  0.0269 -0.1815  0.0351
   97OSM   H11A 9602   3.375   0.035  11.140  0.1870  1.2716  0.8545
   97OSM   H11B 9603   3.527   0.105  11.128  1.0372 -1.8260 -0.2420
   97OSM      P 9604   3.454  -0.178  11.016  0.2516 -0.1278  0.0817
   97OSM    O13 9605   3.555  -0.227  11.114 -0.1101  0.9425  0.2192
   97OSM    O14 9606   3.314  -0.183  11.061  0.3430 -0.0686 -0.3332
   97OSM    O11 9607   3.465  -0.254  10.879  0.0322  0.0832  0.1099
   97OSM    O12 9608   3.505  -0.032  10.986  0.1923  0.7771  0.5474
   97OSM    C1S 9609   3.363  -0.245  10.776 -0.3630 -0.1766 -0.7398
   97OSM    H1S 9610   3.319  -0.143  10.763 -1.2166 -0.0611  2.2988
   97OSM    H1T 9611   3.271  -0.302  10.799 -2.0501  2.6158 -0.0295
   97OSM     NF 9612   3.293  -0.290  10.542 -0.3415  0.1793  0.2845
   97OSM    HNF 9613   3.232  -0.363  10.510 -0.4814  0.5837 -0.3905
   97OSM    C2S 9614   3.403  -0.301  10.633  0.4714  0.0170 -0.4827
   97OSM    H2S 9615   3.481  -0.236  10.586 -0.5902  1.1244 -0.7541
   97OSM    C3S 9616   3.469  -0.437  10.651 -0.1167 -0.7106  1.0529
   97OSM    H3S 9617   3.396  -0.511  10.691 -0.3538 -0.4294  1.1504
   97OSM     O3 9618   3.578  -0.438  10.742  0.6735  0.0849  0.1349
   97OSM    HO3 9619   3.560  -0.361  10.795 -1.4047 -0.7423  0.7158
   97OSM    C4S 9620   3.527  -0.481  10.520  0.0703  0.3989  0.9174
   97OSM    H4S 9621   3.462  -0.534  10.449  0.7404 -0.0052  0.5991
   97OSM    C5S 9622   3.655  -0.448  10.476 -0.4980 -0.2515  0.1867
   97OSM    H5S 9623   3.723  -0.375  10.522  0.0953 -0.0705 -0.9316
   97OSM    C6S 9624   3.700  -0.492  10.341 -0.7519 -0.4441  0.1545
   97OSM    H6S 9625   3.795  -0.548  10.354 -0.5766 -0.0400  0.6259
   97OSM    H6T 9626   3.737  -0.407  10.281  0.6909 -0.1481  1.4061
   97OSM    C7S 9627   3.611  -0.563  10.235  0.6367 -0.2109  0.2356
   97OSM    H7S 9628   3.564  -0.656  10.273 -3.4923 -0.4068 -4.3807
   97OSM    H7T 9629   3.672  -0.596  10.148  1.6472 -0.1385  0.8951
   97OSM    C8S 9630   3.488  -0.482  10.184  0.2824 -0.2746 -0.4077
   97OSM    H8S 9631   3.515  -0.375  10.196 -0.4853  0.1377 -2.1076
   97OSM    H8T 9632   3.397  -0.487  10.248  1.1020  0.3072  0.8476
   97OSM    C9S 9633   3.449  -0.521  10.044  0.5110 -1.0722 -0.3665
   97OSM    H9S 9634   3.413  -0.624  10.023 -2.7977  0.4144 -2.8722
   97OSM    H9T 9635   3.546  -0.528   9.990  1.3180  1.7004  0.5529
   97OSM   C10S 9636   3.365  -0.410   9.978  0.4638  0.1741 -0.3397
   97OSM   H10S 9637   3.425  -0.316   9.987 -0.6589  0.8192  0.8011
   97OSM   H10T 9638   3.273  -0.399  10.039  0.0047 -2.9827 -0.3346
   97OSM   C11S 9639   3.326  -0.430   9.825  0.3762  0.0722  0.2657
   97OSM   H11S 9640   3.263  -0.341   9.807  2.8150  1.8079 -0.2507
   97OSM   H11T 9641   3.262  -0.521   9.825 -2.2930  1.8413 -0.7207
   97OSM   C12S 9642   3.446  -0.423   9.731  0.9699 -0.1365  0.2392
   97OSM   H12S 9643   3.527  -0.474   9.788  0.0417 -1.5775  0.3279
   97OSM   H12T 9644   3.475  -0.316   9.725 -0.7909  0.3283 -0.6059
   97OSM   C13S 9645   3.417  -0.480   9.586  0.3383  0.2190 -0.1590
   97OSM   H13S 9646   3.386  -0.586   9.594 -0.4725  0.3708 -1.1844
   97OSM   H13T 9647   3.510  -0.476   9.525  0.3320  1.6371 -0.1290
   97OSM   C14S 9648   3.322  -0.395   9.505 -0.0138 -0.1771 -0.4305
   97OSM   H14S 9649   3.361  -0.292   9.485 -0.5440 -0.3400 -2.6080
   97OSM   H14T 9650   3.227  -0.382   9.560 -1.1650  0.7229 -2.5111
   97OSM   C15S 9651   3.299  -0.452   9.371 -0.1346  0.3846 -0.1888
   97OSM   H15S 9652   3.251  -0.551   9.390  2.0914 -0.5868  0.6685
   97OSM   H15T 9653   3.401  -0.468   9.330 -0.5795  1.5096 -1.8219
   97OSM   C16S 9654   3.207  -0.362   9.286  0.4103  0.4969 -0.7603
   97OSM   H16S 9655   3.220  -0.256   9.316 -0.7100  0.2853  0.5765
   97OSM   H16T 9656   3.101  -0.396   9.295  0.6364 -0.3471 -1.2088
   97OSM   C17S 9657   3.242  -0.368   9.138 -0.6766  0.5346  0.5672
   97OSM   H17S 9658   3.348  -0.338   9.128  0.8728 -4.3378 -0.7533
   97OSM   H17T 9659   3.172  -0.300   9.085  0.0652  2.4127  1.9188
   97OSM   C18S 9660   3.231  -0.513   9.074 -0.0148  0.3540 -0.3980
   97OSM   H18S 9661   3.122  -0.534   9.072  0.0256 -0.0866  0.7602
   97OSM   H18T 9662   3.291  -0.586   9.132  0.9076 -0.2214 -2.0380
   97OSM   H18U 9663   3.271  -0.516   8.971 -0.1716  0.3888 -0.4585
   97OSM    C1F 9664   3.243  -0.171  10.499 -0.3367  0.7192 -0.0548
   97OSM     OF 9665   3.307  -0.069  10.513  0.4826  0.4949  0.0665
   97OSM    C2F 9666   3.125  -0.191  10.407 -0.1097  0.0828  0.1398
   97OSM    H2F 9667   3.028  -0.152  10.443 -0.4337 -0.6411  0.0640
   97OSM    H2G 9668   3.108  -0.300  10.397 -2.4380  0.3087  1.1119
   97OSM    C3F 9669   3.165  -0.138  10.268  0.4010  0.0599 -0.3057
   97OSM    H3F 9670   3.258  -0.188  10.234  0.4324 -0.3516  0.3722
   97OSM    H3G 9671   3.186  -0.029  10.274  1.9477 -0.1415 -1.5239
   97OSM    C4F 9672   3.052  -0.148  10.164  0.0500  0.3348  0.0640
   97OSM    H4F 9673   2.965  -0.082  10.186 -0.1740  0.2020 -0.4134
   97OSM    H4G 9674   3.002  -0.247  10.151  0.3472  0.2611 -0.5513
   97OSM    C5F 9675   3.103  -0.122  10.022  0.6459 -0.4704  0.3929
   97OSM    H5F 9676   3.187  -0.186   9.988  0.6368 -0.6673  0.7281
   97OSM    H5G 9677   3.137  -0.017  10.033 -0.1708 -0.1389 -0.1897
   97OSM    C6F 9678   2.995  -0.121   9.909 -0.1961  0.0637 -0.2703
   97OSM    H6F 9679   3.014  -0.026   9.854 -0.0904 -0.2278 -0.7446
   97OSM    H6G 9680   2.892  -0.116   9.949 -0.5592 -1.0626 -1.0263
   97OSM    C7F 9681   2.994  -0.237   9.809  0.4945  0.1502 -0.4869
   97OSM    H7F 9682   2.957  -0.330   9.857 -1.2382  0.7825 -0.5479
   97OSM    H7G 9683   3.088  -0.256   9.753  0.7512 -0.3134  0.0852
   97OSM    C8F 9684   2.881  -0.209   9.697 -0.1933  0.2779 -0.8488
   97OSM    H8F 9685   2.900  -0.108   9.653  1.1009  2.0925  3.3274
   97OSM    H8G 9686   2.778  -0.215   9.737  0.4814 -0.7873  0.8313
   97OSM    C9F 9687   2.888  -0.314   9.586  0.6617 -0.7364  0.3311
   97OSM    H9F 9688   2.871  -0.420   9.612  0.3171 -0.7456  0.0674
   97OSM   C10F 9689   2.916  -0.287   9.455 -0.4228 -0.3491 -0.8471
   97OSM   H10F 9690   2.905  -0.374   9.389 -0.9506 -2.2886  1.6371
   97OSM   C11F 9691   2.945  -0.152   9.388  0.1380  0.3348 -0.2894
   97OSM   H11F 9692   3.055  -0.150   9.369 -0.0268  0.0623 -1.3179
   97OSM   H11G 9693   2.922  -0.068   9.458 -0.1297 -1.1999  1.5437
   97OSM   C12F 9694   2.858  -0.132   9.260  0.2127  0.0572  0.1827
   97OSM   H12F 9695   2.855  -0.022   9.250  1.3741 -0.0215 -1.4118
   97OSM   H12G 9696   2.756  -0.168   9.283  0.6058 -2.1237 -1.2025
   97OSM   C13F 9697   2.914  -0.197   9.134 -0.4661 -0.0149 -0.0591
   97OSM   H13F 9698   2.929  -0.306   9.144 -1.2588 -0.2179 -0.9152
   97OSM   H13G 9699   3.010  -0.143   9.120 -1.3301  1.6995  0.2311
   97OSM   C14F 9700   2.824  -0.163   9.019 -0.2589 -0.2072  0.3111
   97OSM   H14F 9701   2.875  -0.141   8.923  1.1150 -0.8394  0.8671
   97OSM   H14G 9702   2.779  -0.066   9.049 -1.7480 -0.7201 -0.1719
   97OSM   C15F 9703   2.709  -0.267   9.002  0.2036 -0.2305  0.7229
   97OSM   H15F 9704   2.642  -0.254   9.090 -0.3934  2.8023 -0.0768
   97OSM   H15G 9705   2.755  -0.368   8.994 -1.5478 -0.9681 -0.6563
   97OSM   C16F 9706   2.619  -0.247   8.878  0.0417  0.8729 -0.1921
   97OSM   H16F 9707   2.672  -0.264   8.782  1.3014 -0.5291  0.6975
   97OSM   H16G 9708   2.593  -0.139   8.879 -0.4320  0.7718 -0.9259
   97OSM   C17F 9709   2.492  -0.339   8.884  0.1335  0.0033  0.1817
   97OSM   H17F 9710   2.418  -0.299   8.811  0.5723  0.0648 -0.2314
   97OSM   H17G 9711   2.453  -0.334   8.988  1.5384  4.2419  0.6847
   97OSM   C18F 9712   2.530  -0.485   8.841  0.2450  0.0784  0.0598
   97OSM   H18F 9713   2.624  -0.517   8.891  1.2043 -0.9079 -2.2071
   97OSM   H18G 9714   2.547  -0.504   8.733 -0.1071  1.4790 -0.2668
   97OSM   H18H 9715   2.451  -0.558   8.869 -0.5797  0.2747 -1.5945
   98OSM      N 9716   2.225   5.058  11.038 -0.9294  0.0610  0.1840
   98OSM    C15 9717   2.102   4.975  11.051 -0.1722  0.5248 -0.2020
   98OSM   H15A 9718   2.090   4.908  11.134 -3.2564  0.1196 -0.8319
   98OSM   H15B 9719   2.080   4.918  10.962 -0.6645  1.4919 -0.7237
   98OSM   H15C 9720   2.028   5.053  11.062  1.2143  1.6873  1.3579
   98OSM    C14 9721   2.266   5.099  11.177 -0.5997  0.0206 -0.9109
   98OSM   H14A 9722   2.191   5.162  11.222 -1.5148 -1.3663 -0.4429
   98OSM   H14B 9723   2.363   5.144  11.191 -0.2024 -0.6313 -1.4960
   98OSM   H14C 9724   2.277   5.008  11.234  0.5813 -0.2346 -1.4986
   98OSM    C13 9725   2.338   4.972  10.977  0.1847  0.1997 -0.3974
   98OSM   H13A 9726   2.374   4.894  11.042  1.0591  0.1298 -0.9480
   98OSM   H13B 9727   2.415   5.039  10.941 -1.5708  2.8545  0.4821
   98OSM   H13C 9728   2.307   4.912  10.892  0.5046 -1.2359  0.4687
   98OSM    C12 9729   2.204   5.176  10.944  0.4096 -0.0632  0.6843
   98OSM   H12A 9730   2.290   5.239  10.930  0.1268 -0.0059 -1.1558
   98OSM   H12B 9731   2.124   5.229  10.993 -0.9060  0.0512 -1.4275
   98OSM    C11 9732   2.157   5.154  10.795 -0.4452  0.3177  0.6450
   98OSM   H11A 9733   2.233   5.084  10.753 -1.4428 -0.8019  0.6581
   98OSM   H11B 9734   2.164   5.250  10.741 -2.2508  1.7302  2.7681
   98OSM      P 9735   1.900   5.154  10.832 -0.2781 -0.6277 -0.0748
   98OSM    O13 9736   1.914   5.177  10.975 -0.0678 -0.1088  1.1160
   98OSM    O14 9737   1.868   5.278  10.752 -0.6040 -0.7110  0.0034
   98OSM    O11 9738   1.800   5.038  10.820  0.0762 -0.2537 -0.5714
   98OSM    O12 9739   2.036   5.085  10.785 -0.0360  0.1441  0.1739
   98OSM    C1S 9740   1.742   5.010  10.691  0.5891 -0.1461 -0.0467
   98OSM    H1S 9741   1.714   5.105  10.642 -1.2188 -1.0218 -0.8078
   98OSM    H1T 9742   1.658   4.937  10.695  0.4217  0.0916  1.8260
   98OSM     NF 9743   1.777   4.911  10.464  0.5722 -0.5928 -0.1293
   98OSM    HNF 9744   1.759   4.819  10.431 -0.0711 -0.2914 -0.6487
   98OSM    C2S 9745   1.836   4.927  10.599 -0.3019  0.0121  0.1030
   98OSM    H2S 9746   1.927   4.987  10.578 -0.2342 -0.4651 -1.0332
   98OSM    C3S 9747   1.877   4.793  10.664  0.0131 -0.2209  0.3013
   98OSM    H3S 9748   1.781   4.739  10.680 -1.5528  2.1999 -0.4594
   98OSM     O3 9749   1.944   4.799  10.790  0.5100 -0.2151  0.5763
   98OSM    HO3 9750   1.907   4.879  10.828  0.1371  0.6641 -1.4880
   98OSM    C4S 9751   1.974   4.730  10.562  0.1228 -0.4098 -0.4260
   98OSM    H4S 9752   1.927   4.654  10.498 -2.1039  1.5107 -1.2154
   98OSM    C5S 9753   2.113   4.745  10.560  0.4205 -0.7745  0.4198
   98OSM    H5S 9754   2.150   4.827  10.624 -0.9359  0.2827 -0.1064
   98OSM    C6S 9755   2.204   4.681  10.465 -0.2009  0.4922 -0.0538
   98OSM    H6S 9756   2.151   4.592  10.423  1.0075 -0.1510 -0.2750
   98OSM    H6T 9757   2.298   4.647  10.513 -0.7349 -0.8780  0.0769
   98OSM    C7S 9758   2.235   4.774  10.345  0.1408  0.0509 -1.0166
   98OSM    H7S 9759   2.299   4.854  10.387 -0.7100  1.9861 -3.2089
   98OSM    H7T 9760   2.140   4.817  10.308  0.4633  0.6849 -1.1189
   98OSM    C8S 9761   2.309   4.710  10.222 -0.0207 -0.6210  0.0845
   98OSM    H8S 9762   2.246   4.641  10.162 -0.7658  1.4190 -1.6266
   98OSM    H8T 9763   2.390   4.647  10.264  1.1189  0.5580 -0.2914
   98OSM    C9S 9764   2.367   4.812  10.125 -0.0132 -0.2273 -0.0286
   98OSM    H9S 9765   2.403   4.901  10.181 -1.4953  0.3630  0.0278
   98OSM    H9T 9766   2.294   4.837  10.045  0.7362 -1.0697 -1.0039
   98OSM   C10S 9767   2.488   4.752  10.034 -0.1307 -0.3499 -0.7755
   98OSM   H10S 9768   2.472   4.642  10.026  0.8018 -0.8633  2.8148
   98OSM   H10T 9769   2.574   4.777  10.098 -0.1469 -1.4633 -0.2927
   98OSM   C11S 9770   2.493   4.817   9.892 -0.5080  0.6112  0.1605
   98OSM   H11S 9771   2.501   4.928   9.898  0.9682  0.5356 -0.1690
   98OSM   H11T 9772   2.397   4.794   9.840  0.4047 -2.7702 -0.2842
   98OSM   C12S 9773   2.597   4.757   9.802 -0.1261 -0.3258  0.2785
   98OSM   H12S 9774   2.568   4.656   9.766  0.6341  0.2612 -2.2081
   98OSM   H12T 9775   2.688   4.734   9.861  1.0214  0.1573 -1.2227
   98OSM   C13S 9776   2.621   4.844   9.672 -0.1135  0.3881 -0.6320
   98OSM   H13S 9777   2.706   4.794   9.621  0.3135  0.9484 -0.4901
   98OSM   H13T 9778   2.647   4.948   9.703 -3.2427  1.2198 -0.5455
   98OSM   C14S 9779   2.494   4.833   9.587 -0.0210  0.3061 -0.6974
   98OSM   H14S 9780   2.432   4.921   9.617 -0.2002 -0.6934  2.1494
   98OSM   H14T 9781   2.431   4.745   9.614 -1.0024  1.2729  0.2799
   98OSM   C15S 9782   2.531   4.836   9.437  0.0455  0.1727  0.0830
   98OSM   H15S 9783   2.434   4.813   9.388  0.1833 -0.1679 -0.0264
   98OSM   H15T 9784   2.614   4.770   9.405 -1.2477 -1.1887 -0.5636
   98OSM   C16S 9785   2.571   4.971   9.378 -1.2836 -0.0868 -0.2507
   98OSM   H16S 9786   2.657   5.016   9.434 -2.4557 -1.1772  2.6028
   98OSM   H16T 9787   2.489   5.044   9.395 -0.0620  1.3252 -0.1486
   98OSM   C17S 9788   2.606   4.962   9.229 -0.2161  0.0451  0.0892
   98OSM   H17S 9789   2.677   4.879   9.207 -0.2314  0.1048 -0.1908
   98OSM   H17T 9790   2.665   5.054   9.208 -0.4795  0.0703 -0.5616
   98OSM   C18S 9791   2.481   4.962   9.134 -0.3187 -0.1139 -0.4354
   98OSM   H18S 9792   2.436   5.063   9.143 -2.0208 -0.7667 -1.1828
   98OSM   H18T 9793   2.409   4.891   9.180 -0.7911  1.6683  1.7583
   98OSM   H18U 9794   2.506   4.944   9.027 -1.3750 -0.3379 -0.6543
   98OSM    C1F 9795   1.752   5.020  10.385 -0.0599  0.4708  0.8503
   98OSM     OF 9796   1.803   5.129  10.409  0.7560  0.2357 -0.1433
   98OSM    C2F 9797   1.683   4.991  10.262 -0.0869  0.2932 -0.4051
   98OSM    H2F 9798   1.635   5.085  10.229  2.0649  0.7369 -2.5438
   98OSM    H2G 9799   1.606   4.912  10.276 -2.4836  2.5683 -0.0111
   98OSM    C3F 9800   1.770   4.952  10.135  0.6353  0.3068  1.0059
   98OSM    H3F 9801   1.841   5.038  10.136  0.0163  0.8300  0.7135
   98OSM    H3G 9802   1.691   4.956  10.057 -1.0155  1.9112  2.6561
   98OSM    C4F 9803   1.860   4.830  10.146 -0.5058  0.3466 -0.2647
   98OSM    H4F 9804   1.791   4.744  10.132 -0.7445  0.3751  0.6975
   98OSM    H4G 9805   1.893   4.811  10.250  0.5048 -1.1739 -0.8460
   98OSM    C5F 9806   1.984   4.834  10.057 -0.4732  0.3895  0.6352
   98OSM    H5F 9807   2.054   4.754  10.089  1.2946  1.5935 -0.0962
   98OSM    H5G 9808   2.036   4.930  10.076  0.6277  0.3915 -1.9688
   98OSM    C6F 9809   1.952   4.834   9.905  0.5361 -0.0718  0.1708
   98OSM    H6F 9810   1.887   4.922   9.883  0.3546 -0.2749 -0.1004
   98OSM    H6G 9811   1.894   4.743   9.879 -0.8978  1.1224 -1.0362
   98OSM    C7F 9812   2.078   4.829   9.834 -0.4295  0.1405  0.0337
   98OSM    H7F 9813   2.142   4.746   9.873 -0.1787  0.0070 -0.6452
   98OSM    H7G 9814   2.144   4.914   9.861  0.8235  0.0362 -2.3408
   98OSM    C8F 9815   2.082   4.833   9.675 -0.0040  0.5285 -0.4358
   98OSM    H8F 9816   2.014   4.748   9.652 -1.2935  0.2713  3.4915
   98OSM    H8G 9817   2.184   4.816   9.634 -0.8873 -0.4680 -2.3602
   98OSM    C9F 9818   2.029   4.970   9.626 -0.3453  0.1147  0.4553
   98OSM    H9F 9819   2.001   5.037   9.708 -0.4850 -1.5560  1.8108
   98OSM   C10F 9820   2.024   4.999   9.495 -0.2008 -1.3455  0.1911
   98OSM   H10F 9821   1.977   5.094   9.468  0.5436 -1.2213 -0.7442
   98OSM   C11F 9822   2.067   4.909   9.384 -0.6865 -0.2475 -0.2070
   98OSM   H11F 9823   2.132   4.823   9.412  0.1369 -0.3597 -2.2607
   98OSM   H11G 9824   2.127   4.976   9.320 -1.0020  1.7346  1.4775
   98OSM   C12F 9825   1.965   4.836   9.300  0.8342 -0.0812  0.1398
   98OSM   H12F 9826   1.897   4.901   9.240  0.2268  0.3083  1.2234
   98OSM   H12G 9827   1.913   4.764   9.366 -0.0829 -0.4275 -0.9216
   98OSM   C13F 9828   2.033   4.749   9.188 -0.2236  0.3262  0.0821
   98OSM   H13F 9829   2.096   4.672   9.237 -0.1645  0.4551  0.2125
   98OSM   H13G 9830   2.111   4.813   9.142  1.6539 -2.4795 -0.8536
   98OSM   C14F 9831   1.935   4.695   9.078 -0.4428  0.6742 -0.3559
   98OSM   H14F 9832   1.855   4.771   9.071 -1.1697 -0.1183 -0.8608
   98OSM   H14G 9833   1.886   4.598   9.099 -0.7507  1.0155  0.5116
   98OSM   C15F 9834   1.997   4.676   8.932 -0.2089  0.2717  0.2137
   98OSM   H15F 9835   2.042   4.766   8.886  0.4165  0.0235  0.3247
   98OSM   H15G 9836   1.914   4.636   8.871 -0.6031 -0.9474  1.4929
   98OSM   C16F 9837   2.104   4.568   8.938  0.2183 -0.8830 -0.3598
   98OSM   H16F 9838   2.075   4.483   9.003  2.0638 -0.7322  0.7332
   98OSM   H16G 9839   2.196   4.610   8.983 -0.3248  0.8626 -0.7970
   98OSM   C17F 9840   2.146   4.525   8.798 -0.2250 -0.1848  0.2661
   98OSM   H17F 9841   2.245   4.474   8.798 -0.5986 -0.9286 -0.3443
   98OSM   H17G 9842   2.167   4.612   8.732 -1.0825 -0.6788 -0.6890
   98OSM   C18F 9843   2.052   4.421   8.733 -0.5026 -0.0691  0.5510
   98OSM   H18F 9844   2.095   4.402   8.632  2.9219 -1.1591  2.0351
   98OSM   H18G 9845   1.944   4.444   8.727 -0.7970 -1.2434  1.0709
   98OSM   H18H 9846   2.068   4.334   8.800 -2.1749 -1.5512 -0.8790
   99OSM      N 9847   4.913   0.039  10.547 -0.4718  0.5307  0.5826
   99OSM    C15 9848   4.995   0.032  10.422  0.0601 -0.0760  0.2584
   99OSM   H15A 9849   5.101   0.030  10.442  0.3331  1.7337 -0.8643
   99OSM   H15B 9850   4.979   0.119  10.360  1.6705  0.9793  1.2636
   99OSM   H15C 9851   4.970  -0.060  10.371  0.6845 -0.6283  0.9239
   99OSM    C14 9852   4.960  -0.072  10.640  0.2991  0.4907 -0.2979
   99OSM   H14A 9853   4.903  -0.083  10.730  3.4180  2.6465  2.1903
   99OSM   H14B 9854   5.050  -0.030  10.683 -0.1591  1.8401 -0.6102
   99OSM   H14C 9855   4.997  -0.160  10.589 -0.3585  0.5627 -0.9106
   99OSM    C13 9856   4.935   0.163  10.624 -0.5118  0.2957  0.0277
   99OSM   H13A 9857   4.873   0.241  10.582 -0.8926 -0.7144 -1.3773
   99OSM   H13B 9858   5.038   0.193  10.616  0.4640 -3.0171 -1.6745
   99OSM   H13C 9859   4.904   0.162  10.727  1.0267  1.2724  0.5322
   99OSM    C12 9860   4.767   0.012  10.511 -0.3944 -0.0204 -0.0521
   99OSM   H12A 9861   4.716   0.005  10.606 -0.1382  1.8085  0.2688
   99OSM   H12B 9862   4.753  -0.078  10.453 -0.0414  0.8099 -1.4914
   99OSM    C11 9863   4.699   0.132  10.433 -0.6393  0.1649  0.0804
   99OSM   H11A 9864   4.611   0.080  10.389 -0.4361  0.6268 -0.9149
   99OSM   H11B 9865   4.768   0.166  10.353 -1.7190  1.5540 -0.3035
   99OSM      P 9866   4.533   0.213  10.609 -0.0107 -0.2204 -0.3922
   99OSM    O13 9867   4.579   0.136  10.725 -0.0824 -0.0636 -0.2313
   99OSM    O14 9868   4.470   0.347  10.637  0.1309 -0.5219  0.0387
   99OSM    O11 9869   4.434   0.130  10.519 -0.4113  0.3437 -0.4660
   99OSM    O12 9870   4.656   0.242  10.518 -0.2989 -0.2517  0.4926
   99OSM    C1S 9871   4.363   0.209  10.422  0.0560 -0.0925  0.0610
   99OSM    H1S 9872   4.425   0.279  10.362 -0.7011  0.9568  0.4670
   99OSM    H1T 9873   4.279   0.256  10.478 -1.7718  0.0684 -2.6725
   99OSM     NF 9874   4.226   0.207  10.219 -0.1824  0.0764 -0.0700
   99OSM    HNF 9875   4.133   0.242  10.231 -0.1106 -0.6405  4.1973
   99OSM    C2S 9876   4.282   0.117  10.321 -0.2331  0.0852 -0.1201
   99OSM    H2S 9877   4.358   0.048  10.279  0.0619 -0.3308  1.0752
   99OSM    C3S 9878   4.171   0.042  10.403  0.2967 -0.0398 -0.3594
   99OSM    H3S 9879   4.099   0.116  10.446 -1.4009 -1.5460 -0.5000
   99OSM     O3 9880   4.212  -0.038  10.517 -0.2199 -0.0152 -0.2607
   99OSM    HO3 9881   4.298  -0.003  10.542  1.0409 -2.2460 -1.1372
   99OSM    C4S 9882   4.090  -0.041  10.298 -0.1009  0.3580 -0.0838
   99OSM    H4S 9883   4.015   0.018  10.243  0.0638  2.2251  1.5347
   99OSM    C5S 9884   4.091  -0.177  10.285  0.1086  0.4995  0.6868
   99OSM    H5S 9885   4.147  -0.240  10.355 -2.5752 -0.1066  2.4498
   99OSM    C6S 9886   4.009  -0.256  10.190  0.4333  0.5455 -0.3587
   99OSM    H6S 9887   3.997  -0.214  10.088  1.1104 -0.0121 -0.6753
   99OSM    H6T 9888   3.911  -0.280  10.236  1.0657 -0.2994  0.5892
   99OSM    C7S 9889   4.067  -0.391  10.148 -0.5670 -0.4825  0.8420
   99OSM    H7S 9890   4.082  -0.453  10.239  3.6618 -0.1162  0.5858
   99OSM    H7T 9891   4.162  -0.387  10.092 -1.6731  0.5114 -1.0554
   99OSM    C8S 9892   3.983  -0.471  10.054  0.1014 -0.3601  0.0552
   99OSM    H8S 9893   3.885  -0.487  10.103  1.7147 -0.5248  3.6012
   99OSM    H8T 9894   4.007  -0.579  10.057 -0.8664 -0.5745  0.7840
   99OSM    C9S 9895   3.996  -0.420   9.908 -0.5218  0.3120 -0.4340
   99OSM    H9S 9896   4.101  -0.413   9.874 -0.1253  1.6330  0.9391
   99OSM    H9T 9897   3.958  -0.316   9.899 -1.6203 -0.1713 -1.5868
   99OSM   C10S 9898   3.929  -0.510   9.804  0.4911 -0.3877  0.1140
   99OSM   H10S 9899   3.826  -0.510   9.845 -0.8078  0.0377 -2.8576
   99OSM   H10T 9900   3.987  -0.604   9.803  2.9154  0.9718 -1.9182
   99OSM   C11S 9901   3.912  -0.448   9.664  0.0113  0.2886 -0.4717
   99OSM   H11S 9902   4.009  -0.407   9.629  1.3391 -1.6346  0.7418
   99OSM   H11T 9903   3.852  -0.358   9.687  0.3772  0.6222 -0.7953
   99OSM   C12S 9904   3.868  -0.538   9.554 -0.3171  0.1537 -0.4066
   99OSM   H12S 9905   3.936  -0.625   9.549  1.1726  1.1977  0.6597
   99OSM   H12T 9906   3.767  -0.577   9.580 -1.4225  3.0609  0.1286
   99OSM   C13S 9907   3.860  -0.463   9.420  0.2145 -0.1943 -0.2284
   99OSM   H13S 9908   3.962  -0.434   9.389 -0.5236  1.4801 -1.2373
   99OSM   H13T 9909   3.801  -0.369   9.423  1.5017  0.7198 -1.8169
   99OSM   C14S 9910   3.807  -0.554   9.308 -0.5052  1.0700 -0.1441
   99OSM   H14S 9911   3.708  -0.604   9.322  0.2667 -0.7469 -0.8334
   99OSM   H14T 9912   3.874  -0.642   9.299 -1.6487  0.3545 -2.5965
   99OSM   C15S 9913   3.810  -0.479   9.178 -0.7897 -0.4172 -0.0547
   99OSM   H15S 9914   3.912  -0.452   9.144 -1.1953  0.8345 -0.3383
   99OSM   H15T 9915   3.758  -0.381   9.189  0.9514  0.7051 -1.3851
   99OSM   C16S 9916   3.733  -0.547   9.065  0.1753  0.2922  0.1424
   99OSM   H16S 9917   3.626  -0.552   9.094 -0.2263  1.1329 -1.0908
   99OSM   H16T 9918   3.757  -0.655   9.053  3.9092  0.6359  2.7450
   99OSM   C17S 9919   3.738  -0.483   8.924  0.0227 -0.0732 -0.0980
   99OSM   H17S 9920   3.842  -0.498   8.886  0.7223  0.2474  1.5708
   99OSM   H17T 9921   3.715  -0.374   8.930  1.0627  0.0911  1.7543
   99OSM   C18S 9922   3.635  -0.539   8.836  0.5509  0.9205  0.1435
   99OSM   H18S 9923   3.630  -0.649   8.827 -0.6038  1.0536 -1.0888
   99OSM   H18T 9924   3.635  -0.500   8.732 -4.5493 -0.3998 -0.6124
   99OSM   H18U 9925   3.530  -0.525   8.867  0.9189  0.0377  1.8835
   99OSM    C1F 9926   4.310   0.252  10.123 -0.2985 -0.0065 -0.4834
   99OSM     OF 9927   4.428   0.215  10.125 -0.0962  0.0655 -0.4020
   99OSM    C2F 9928   4.251   0.343  10.020  0.1560  0.2060 -0.1969
   99OSM    H2F 9929   4.319   0.427   9.993  0.3364 -0.4414 -1.8588
   99OSM    H2G 9930   4.152   0.380  10.055 -0.4317 -1.4208 -0.0832
   99OSM    C3F 9931   4.227   0.254   9.895 -0.0406 -0.1779  1.3155
   99OSM    H3F 9932   4.327   0.234   9.852 -0.4788  0.4789 -0.0564
   99OSM    H3G 9933   4.184   0.156   9.923 -0.5256 -0.2406  0.3788
   99OSM    C4F 9934   4.153   0.323   9.778  0.7103  0.1009 -0.7881
   99OSM    H4F 9935   4.212   0.410   9.742  0.6014 -0.0331 -1.3012
   99OSM    H4G 9936   4.059   0.360   9.826  1.1489 -0.3207  0.4126
   99OSM    C5F 9937   4.109   0.239   9.664  0.5681  0.5171  0.4402
   99OSM    H5F 9938   4.044   0.157   9.702  0.6350  0.2818  0.0480
   99OSM    H5G 9939   4.192   0.197   9.605  1.3245  1.0004  1.1441
   99OSM    C6F 9940   4.035   0.327   9.562 -0.6013 -0.5894 -0.3951
   99OSM    H6F 9941   4.108   0.404   9.530  0.0428  0.3177  2.8657
   99OSM    H6G 9942   3.950   0.377   9.615 -1.4115 -0.5580 -1.6720
   99OSM    C7F 9943   3.979   0.249   9.447  0.2206  0.1658  0.4348
   99OSM    H7F 9944   3.895   0.180   9.472 -0.2591  0.4012 -0.4975
   99OSM    H7G 9945   4.059   0.191   9.397  0.6799  1.4921 -0.4314
   99OSM    C8F 9946   3.921   0.343   9.347 -0.2268 -0.7414 -0.0427
   99OSM    H8F 9947   3.995   0.412   9.301 -1.4862 -0.4780 -1.7677
   99OSM    H8G 9948   3.846   0.412   9.390 -0.7218 -1.6309  0.5388
   99OSM    C9F 9949   3.864   0.256   9.235 -0.4753 -0.2519 -0.6143
   99OSM    H9F 9950   3.782   0.193   9.273  0.0555 -0.7137 -0.2233
   99OSM   C10F 9951   3.885   0.241   9.105 -0.4110  0.4773  0.2826
   99OSM   H10F 9952   3.813   0.182   9.046  1.4543 -2.9855  1.2315
   99OSM   C11F 9953   3.981   0.321   9.025 -0.1908  0.5887 -0.0620
   99OSM   H11F 9954   4.080   0.334   9.074 -0.2808  0.0505  0.2767
   99OSM   H11G 9955   3.940   0.424   9.021  0.2328  0.7644  0.0247
   99OSM   C12F 9956   4.004   0.270   8.883  0.4816  0.0629  0.2972
   99OSM   H12F 9957   4.067   0.179   8.881  2.0630  1.0937 -1.9462
   99OSM   H12G 9958   4.063   0.340   8.820 -0.5771 -0.5521 -1.4506
   99OSM   C13F 9959   3.887   0.245   8.788 -0.2519 -0.0114 -0.0802
   99OSM   H13F 9960   3.797   0.233   8.852 -0.8440 -1.4379 -1.1161
   99OSM   H13G 9961   3.890   0.149   8.732 -2.7233 -1.8003  2.6152
   99OSM   C14F 9962   3.855   0.363   8.696 -0.3282 -0.1282  0.0831
   99OSM   H14F 9963   3.777   0.323   8.628 -1.2815  1.0274  0.4567
   99OSM   H14G 9964   3.948   0.383   8.639  0.8714 -1.4767  1.4686
   99OSM   C15F 9965   3.806   0.490   8.767  0.3504  0.2602  0.4571
   99OSM   H15F 9966   3.792   0.470   8.875 -1.1679 -0.4569  0.1518
   99OSM   H15G 9967   3.717   0.524   8.711 -0.1569 -0.3269  0.9013
   99OSM   C16F 9968   3.897   0.609   8.755 -0.9575 -0.0511  0.2423
   99OSM   H16F 9969   3.910   0.618   8.645  1.0555 -1.4458  0.3094
   99OSM   H16G 9970   3.997   0.586   8.797  0.4810  2.3057 -1.6185
   99OSM   C17F 9971   3.842   0.739   8.814  0.6002  0.1171  0.3752
   99OSM   H17F 9972   3.922   0.816   8.816 -0.4446  1.2120  1.5364
   99OSM   H17G 9973   3.818   0.736   8.923  0.5581  0.9362  0.3941
   99OSM   C18F 9974   3.719   0.799   8.746 -0.8417  0.5159 -0.4170
   99OSM   H18F 9975   3.624   0.746   8.770  0.2111 -3.5426 -3.8341
   99OSM   H18G 9976   3.726   0.791   8.635  0.8080 -1.7243 -0.2207
   99OSM   H18H 9977   3.707   0.907   8.766 -0.4490  0.5363 -0.2848
  100OSM      N 9978   5.830   1.746  10.923  0.3955 -0.3539  0.7168
  100OSM    C15 9979   5.674   1.723  10.928 -0.7739  0.1274  0.0133
  100OSM   H15A 9980   5.631   1.800  10.991 -1.1963 -0.0326 -0.0802
  100OSM   H15B 9981   5.660   1.626  10.973  0.3331  0.1412  0.4211
  100OSM   H15C 9982   5.634   1.739  10.829 -1.6396  0.4021  0.4004
  100OSM    C14 9983   5.845   1.861  10.832  0.5204 -0.5039  0.0829
  100OSM   H14A 9984   5.811   1.828  10.735  0.8198 -3.4206  0.8921
  100OSM   H14B 9985   5.947   1.897  10.828  0.8101 -1.2805  0.2858
  100OSM   H14C 9986   5.793   1.953  10.856  1.2924  0.2865 -1.1359
  100OSM    C13 9987   5.887   1.776  11.056  0.4147  0.3981  0.5108
  100OSM   H13A 9988   5.832   1.857  11.100  1.9731  1.4656  0.5448
  100OSM   H13B 9989   5.994   1.787  11.052  0.4806 -0.2927  0.1436
  100OSM   H13C 9990   5.872   1.691  11.120 -1.3458  1.4093  1.4944
  100OSM    C12 9991   5.905   1.635  10.859 -0.0889  0.5944  0.1884
  100OSM   H12A 9992   5.884   1.543  10.911 -1.7835  0.3063 -0.9324
  100OSM   H12B 9993   6.013   1.648  10.859 -0.1452  1.2131  1.2925
  100OSM    C11 9994   5.871   1.606  10.715 -0.5490  0.7630 -0.1361
  100OSM   H11A 9995   5.913   1.669  10.634 -0.3363  0.7477 -0.0391
  100OSM   H11B 9996   5.762   1.604  10.696 -0.5284  1.7257 -0.4171
  100OSM      P 9997   5.841   1.357  10.649 -0.3788  0.0531  0.2119
  100OSM    O13 9998   5.941   1.249  10.629 -0.0911 -0.1459 -0.0411
  100OSM    O14 9999   5.731   1.333  10.748 -0.2324  0.0965  0.0771
  100OSM    O1110000   5.781   1.409  10.510 -0.2163  0.5746  0.0827
  100OSM    O1210001   5.930   1.481  10.696 -0.3784 -0.2431  0.5203
  100OSM    C1S10002   5.880   1.427  10.412  0.1939 -0.5068 -0.1649
  100OSM    H1S10003   5.919   1.327  10.382  0.5164 -0.8913  1.4177
  100OSM    H1T10004   5.971   1.480  10.447 -1.8317  1.4053  2.7157
  100OSM     NF10005   5.951   1.502  10.195  0.0042 -0.2667  0.0016
  100OSM    HNF10006   5.987   1.595  10.190 -1.9721  0.4997 -1.0935
  100OSM    C2S10007   5.832   1.496  10.284 -0.4729  0.7101  0.5256
  100OSM    H2S10008   5.758   1.427  10.238  0.8421 -0.0405 -0.5226
  100OSM    C3S10009   5.759   1.631  10.314  0.1074  0.1223  0.8880
  100OSM    H3S10010   5.827   1.706  10.359 -1.4714  1.4047  1.2355
  100OSM     O310011   5.658   1.620  10.407 -0.1292  0.0338 -1.0577
  100OSM    HO310012   5.679   1.541  10.457 -0.5932 -0.2785 -1.3486
  100OSM    C4S10013   5.698   1.692  10.189 -0.0909  0.6662 -0.8408
  100OSM    H4S10014   5.635   1.625  10.128 -3.9024  1.7410  1.5349
  100OSM    C5S10015   5.713   1.815  10.151 -0.4192 -0.4374  0.8449
  100OSM    H5S10016   5.770   1.880  10.219  0.0598 -0.4288  0.4421
  100OSM    C6S10017   5.668   1.862  10.011  0.2209 -0.5242  0.2566
  100OSM    H6S10018   5.648   1.971  10.006  1.4440 -0.3236 -0.5881
  100OSM    H6T10019   5.562   1.833   9.993 -0.0426  0.1188  0.7382
  100OSM    C7S10020   5.764   1.831   9.901  0.5816  0.1051  0.1033
  100OSM    H7S10021   5.750   1.722   9.883  0.1542  0.2181 -0.2876
  100OSM    H7T10022   5.865   1.848   9.942 -0.2134 -0.0796  2.2868
  100OSM    C8S10023   5.731   1.900   9.772 -0.2576 -0.7146  0.0001
  100OSM    H8S10024   5.765   2.005   9.758 -0.5823 -0.8506 -2.1881
  100OSM    H8T10025   5.621   1.910   9.758 -0.1098  0.4849 -0.3704
  100OSM    C9S10026   5.803   1.830   9.658 -0.0682 -0.5935  0.5810
  100OSM    H9S10027   5.788   1.720   9.661 -0.5971 -0.5154  1.2681
  100OSM    H9T10028   5.911   1.850   9.672 -0.2998  0.3382  1.1732
  100OSM   C10S10029   5.763   1.888   9.525 -0.8166 -0.2152  0.4942
  100OSM   H10S10030   5.783   1.997   9.520 -0.4291 -0.1598  2.2723
  100OSM   H10T10031   5.653   1.889   9.514 -0.7061 -0.9260 -0.8498
  100OSM   C11S10032   5.816   1.807   9.407  0.2282  0.7318  0.1270
  100OSM   H11S10033   5.789   1.700   9.416 -1.8389  1.1006 -0.9435
  100OSM   H11T10034   5.926   1.793   9.418 -0.0604 -2.4319 -0.2366
  100OSM   C12S10035   5.766   1.859   9.272 -0.5344  0.0331 -0.3774
  100OSM   H12S10036   5.803   1.964   9.268  1.0084 -0.3701  1.7430
  100OSM   H12T10037   5.656   1.845   9.266 -0.2918 -1.4463 -3.0062
  100OSM   C13S10038   5.814   1.796   9.145 -0.3965  0.4126 -0.7084
  100OSM   H13S10039   5.810   1.686   9.154 -1.7061  0.5807  2.0162
  100OSM   H13T10040   5.921   1.821   9.132 -0.9082  2.6676 -1.0556
  100OSM   C14S10041   5.748   1.845   9.017  0.2708  0.2250  0.7134
  100OSM   H14S10042   5.740   1.956   9.014  3.2159  0.5127 -1.6038
  100OSM   H14T10043   5.643   1.811   9.033 -0.4418  1.0989 -1.5660
  100OSM   C15S10044   5.817   1.790   8.891 -0.3620 -0.2035 -0.0979
  100OSM   H15S10045   5.828   1.680   8.899 -0.1437 -0.1766 -0.0186
  100OSM   H15T10046   5.923   1.821   8.901 -1.0483  1.7935  1.8279
  100OSM   C16S10047   5.756   1.843   8.762 -0.2634  0.4936  0.2831
  100OSM   H16S10048   5.772   1.767   8.682  0.4481  0.5402  0.3722
  100OSM   H16T10049   5.815   1.931   8.728  1.5050 -1.2995 -1.5742
  100OSM   C17S10050   5.597   1.863   8.756 -0.1664 -0.4597  0.3886
  100OSM   H17S10051   5.572   1.944   8.827 -2.1213 -0.1635 -0.5773
  100OSM   H17T10052   5.549   1.770   8.793 -1.5319 -0.4157 -1.1746
  100OSM   C18S10053   5.543   1.890   8.619 -0.3566 -0.3244 -0.6181
  100OSM   H18S10054   5.440   1.931   8.621  0.0053  0.6383 -0.7800
  100OSM   H18T10055   5.545   1.806   8.547  1.0755 -0.8764  0.0213
  100OSM   H18U10056   5.603   1.963   8.559  2.7327 -2.6786 -0.6796
  100OSM    C1F10057   6.007   1.393  10.148 -0.9351  0.2357  0.3415
  100OSM     OF10058   5.939   1.288  10.138 -0.3734  0.3670  0.6038
  100OSM    C2F10059   6.140   1.400  10.092 -0.4537 -0.6759 -0.3650
  100OSM    H2F10060   6.225   1.402  10.164  0.5771 -0.7492 -1.5257
  100OSM    H2G10061   6.165   1.496  10.043  3.0540 -1.6582 -0.8003
  100OSM    C3F10062   6.170   1.285   9.995 -0.3664  0.0485  0.7561
  100OSM    H3F10063   6.095   1.287   9.913  0.2708  4.8342 -0.0480
  100OSM    H3G10064   6.152   1.189  10.047 -1.4964 -0.0741  0.1844
  100OSM    C4F10065   6.312   1.274   9.948 -0.6335 -0.4859  0.6598
  100OSM    H4F10066   6.374   1.296  10.038 -2.3173  0.7552  1.5733
  100OSM    H4G10067   6.334   1.359   9.879 -0.0537 -1.8346 -0.9018
  100OSM    C5F10068   6.345   1.133   9.892  0.0584 -0.8868 -0.6288
  100OSM    H5F10069   6.299   1.068   9.969  0.9040 -1.1544 -0.3408
  100OSM    H5G10070   6.455   1.118   9.901  0.0049 -0.6171  0.6465
  100OSM    C6F10071   6.280   1.116   9.755  0.0607 -0.2492  0.4128
  100OSM    H6F10072   6.270   1.219   9.716 -1.5831  0.5335  2.7007
  100OSM    H6G10073   6.176   1.078   9.763 -0.0016 -0.0370  0.6226
  100OSM    C7F10074   6.374   1.034   9.663 -0.5019 -0.0333 -0.1015
  100OSM    H7F10075   6.357   0.926   9.687 -2.8000  0.8303  2.7017
  100OSM    H7G10076   6.483   1.051   9.676 -0.0912 -2.3368  0.0377
  100OSM    C8F10077   6.353   1.061   9.516  0.5927  0.7401 -0.5028
  100OSM    H8F10078   6.370   1.171   9.508 -1.0271  1.0364 -0.0611
  100OSM    H8G10079   6.252   1.046   9.474  1.0333  0.8341 -1.6441
  100OSM    C9F10080   6.438   0.970   9.429 -0.2184  0.0864  0.5851
  100OSM    H9F10081   6.490   0.892   9.487 -1.0357 -0.9924 -0.0884
  100OSM   C10F10082   6.440   0.966   9.298 -0.1503  0.4355  1.1068
  100OSM   H10F10083   6.496   0.886   9.247 -2.2854 -1.0920  1.0496
  100OSM   C11F10084   6.358   1.055   9.211 -0.3775 -0.7259 -0.2178
  100OSM   H11F10085   6.309   1.142   9.261 -0.6752 -0.2896 -1.2342
  100OSM   H11G10086   6.273   0.993   9.175  0.6607 -3.0355  1.1180
  100OSM   C12F10087   6.448   1.108   9.093 -0.0552 -0.4644 -0.2742
  100OSM   H12F10088   6.481   1.014   9.044 -2.4119 -3.4996  3.4203
  100OSM   H12G10089   6.549   1.144   9.125 -1.1484  1.5594  1.1468
  100OSM   C13F10090   6.371   1.201   9.007 -0.1739 -0.8080 -0.5809
  100OSM   H13F10091   6.349   1.294   9.064  1.2115  2.4457 -4.8629
  100OSM   H13G10092   6.272   1.166   8.970 -0.6504 -0.7164  0.5543
  100OSM   C14F10093   6.453   1.260   8.896  0.7471 -0.0947  1.0123
  100OSM   H14F10094   6.544   1.314   8.932  0.6322  0.2850  0.7301
  100OSM   H14G10095   6.391   1.344   8.859  1.5598  0.1693  0.2208
  100OSM   C15F10096   6.490   1.158   8.784 -0.0330  0.3930 -0.3790
  100OSM   H15F10097   6.401   1.100   8.752  1.0167  0.0470 -3.0046
  100OSM   H15G10098   6.554   1.083   8.836 -0.9450 -0.3846 -0.3400
  100OSM   C16F10099   6.555   1.224   8.662 -0.2918  0.1029  0.4130
  100OSM   H16F10100   6.596   1.143   8.598  0.2100  1.1274 -0.5986
  100OSM   H16G10101   6.642   1.288   8.689 -0.2526  0.3105 -0.2032
  100OSM   C17F10102   6.451   1.311   8.573  0.1469  0.6305 -0.3384
  100OSM   H17F10103   6.424   1.399   8.635 -2.6256  0.8072 -1.6255
  100OSM   H17G10104   6.353   1.259   8.580  0.3040  0.4389  0.5388
  100OSM   C18F10105   6.496   1.340   8.435  0.1585  0.0446 -0.1466
  100OSM   H18F10106   6.595   1.392   8.439  0.4317 -0.2110 -2.3064
  100OSM   H18G10107   6.432   1.421   8.395  0.4546  0.9619  1.1626
  100OSM   H18H10108   6.501   1.251   8.369 -2.5048 -0.1730 -0.1609
  101OSM      N10109   2.416   6.720  11.169  0.0678  0.5516 -0.7132
  101OSM    C1510110   2.382   6.579  11.214 -0.0511 -0.3554 -0.3835
  101OSM   H15A10111   2.469   6.516  11.202  0.3558  0.5757 -2.7215
  101OSM   H15B10112   2.300   6.540  11.155 -1.5743  0.2301  1.2633
  101OSM   H15C10113   2.352   6.569  11.317 -0.3950  2.3894 -0.1533
  101OSM    C1410114   2.302   6.810  11.201  0.0158  0.1315  0.2736
  101OSM   H14A10115   2.345   6.909  11.203  0.6677 -0.1096 -0.9933
  101OSM   H14B10116   2.253   6.788  11.295  0.0287 -0.4447  0.1503
  101OSM   H14C10117   2.230   6.807  11.120 -0.1056  1.0805  0.3297
  101OSM    C1310118   2.530   6.752  11.256  1.0206  0.0534  0.2852
  101OSM   H13A10119   2.619   6.696  11.231  1.4095  0.3259  1.0356
  101OSM   H13B10120   2.488   6.731  11.353 -1.3942 -1.5315 -0.9925
  101OSM   H13C10121   2.559   6.856  11.253  0.2248  0.2914  0.8282
  101OSM    C1210122   2.463   6.719  11.019  0.1796  0.0991  0.5790
  101OSM   H12A10123   2.544   6.649  11.034  0.7193  0.4158 -0.7154
  101OSM   H12B10124   2.512   6.813  10.998 -0.7706  0.1086 -1.9991
  101OSM    C1110125   2.375   6.684  10.895  0.1536 -0.2753  0.3545
  101OSM   H11A10126   2.441   6.654  10.810  0.8935  1.5331  0.2350
  101OSM   H11B10127   2.345   6.786  10.862  0.1492 -0.2295  0.5018
  101OSM      P10128   2.125   6.596  10.913  0.1179 -0.0418 -0.5563
  101OSM    O1310129   2.055   6.473  10.962  0.0312 -0.0808  0.1101
  101OSM    O1410130   2.088   6.722  10.982 -0.2380  0.3805  0.1226
  101OSM    O1110131   2.095   6.610  10.763  0.4060  0.1622  0.8937
  101OSM    O1210132   2.281   6.582  10.927 -0.1972 -0.1611  0.6481
  101OSM    C1S10133   2.142   6.525  10.659  0.1948  0.5220 -0.2760
  101OSM    H1S10134   2.077   6.436  10.671  0.4903  0.3052 -0.2688
  101OSM    H1T10135   2.247   6.493  10.674  0.2838  1.8964  2.9024
  101OSM     NF10136   2.128   6.495  10.429 -0.0677 -0.7011 -0.0801
  101OSM    HNF10137   2.212   6.485  10.375 -0.6196 -1.1949 -0.8803
  101OSM    C2S10138   2.111   6.592  10.529  0.5481 -0.3546  0.3604
  101OSM    H2S10139   2.006   6.629  10.530  0.9123  0.9616 -2.0491
  101OSM    C3S10140   2.204   6.715  10.517  0.2830  0.5010  0.4662
  101OSM    H3S10141   2.308   6.676  10.513  1.1555  2.7575 -1.0418
  101OSM     O310142   2.207   6.802  10.630  0.2642  0.3729  0.3921
  101OSM    HO310143   2.173   6.746  10.700 -2.1520  0.2082 -0.8188
  101OSM    C4S10144   2.180   6.789  10.390 -0.4305  0.2670  0.2031
  101OSM    H4S10145   2.078   6.805  10.352 -1.6642 -0.5875  2.9100
  101OSM    C5S10146   2.276   6.826  10.303  0.6678  0.0470  0.0278
  101OSM    H5S10147   2.382   6.802  10.321  1.1398  0.7119 -1.6930
  101OSM    C6S10148   2.248   6.892  10.168 -0.4736 -0.0527  0.0800
  101OSM    H6S10149   2.196   6.826  10.095  0.1285  0.9541 -1.3341
  101OSM    H6T10150   2.345   6.921  10.122  0.7534 -1.6215  1.6101
  101OSM    C7S10151   2.175   7.026  10.160  0.2681  0.1620 -0.0478
  101OSM    H7S10152   2.215   7.093  10.240  0.3969 -1.3336  1.1977
  101OSM    H7T10153   2.065   7.022  10.168  0.3222  0.3438  1.0944
  101OSM    C8S10154   2.217   7.113  10.036  0.2229 -1.3039 -0.9628
  101OSM    H8S10155   2.325   7.133  10.052  0.2936 -2.1521 -0.2765
  101OSM    H8T10156   2.169   7.212  10.045 -1.0414 -2.1063  3.3126
  101OSM    C9S10157   2.192   7.045   9.906 -0.8695 -0.0485  0.1088
  101OSM    H9S10158   2.134   6.952   9.923 -0.3871 -0.5817 -1.0827
  101OSM    H9T10159   2.287   7.018   9.854 -0.3207  0.1802  0.9688
  101OSM   C10S10160   2.107   7.138   9.805 -0.5812 -0.2177  0.2156
  101OSM   H10S10161   2.167   7.230   9.786 -0.8912  0.2342  1.2910
  101OSM   H10T10162   2.012   7.169   9.855 -1.5000 -1.2569 -0.8570
  101OSM   C11S10163   2.080   7.066   9.677  0.1323  0.0060 -0.3389
  101OSM   H11S10164   1.990   7.001   9.688 -0.7441  1.2580  0.1633
  101OSM   H11T10165   2.165   6.996   9.658  0.7916  0.2635  1.4542
  101OSM   C12S10166   2.048   7.168   9.561 -0.9586 -0.2753  0.4140
  101OSM   H12S10167   2.141   7.226   9.551 -0.8609 -0.7362 -1.8188
  101OSM   H12T10168   1.965   7.237   9.590 -0.1647  0.4028  1.1060
  101OSM   C13S10169   2.022   7.104   9.429  0.6235  0.6784  0.2258
  101OSM   H13S10170   2.082   7.012   9.413 -2.1227 -1.5277  1.7325
  101OSM   H13T10171   2.059   7.176   9.352  1.2207 -2.1394 -2.3162
  101OSM   C14S10172   1.872   7.076   9.401 -0.6260 -0.3715 -0.1139
  101OSM   H14S10173   1.812   7.170   9.413 -0.2357 -0.0027 -0.9656
  101OSM   H14T10174   1.831   7.005   9.476  0.4773 -2.6838 -1.5872
  101OSM   C15S10175   1.841   7.014   9.264 -0.2233 -0.3155  0.4671
  101OSM   H15S10176   1.741   6.967   9.277 -0.6293  0.3451 -0.1960
  101OSM   H15T10177   1.919   6.940   9.237 -0.4790 -0.1261 -0.8208
  101OSM   C16S10178   1.826   7.126   9.163  0.2635 -0.2453 -0.5421
  101OSM   H16S10179   1.921   7.184   9.163 -0.2355  0.6387  1.4627
  101OSM   H16T10180   1.738   7.186   9.191  0.8406  0.8042 -0.9162
  101OSM   C17S10181   1.792   7.084   9.023 -0.3380  0.3769  0.4755
  101OSM   H17S10182   1.786   7.165   8.947  0.0400 -0.4106 -0.4174
  101OSM   H17T10183   1.683   7.064   9.019 -0.6731  1.2584  3.2570
  101OSM   C18S10184   1.880   6.970   8.962  0.6928 -1.4592  0.2374
  101OSM   H18S10185   1.987   6.999   8.955  0.4205 -0.1861  1.0711
  101OSM   H18T10186   1.843   6.951   8.859 -0.8221 -0.5437  0.5946
  101OSM   H18U10187   1.858   6.875   9.014 -2.4192  0.0291  1.8821
  101OSM    C1F10188   2.031   6.404  10.408 -0.9280  0.4150 -0.4308
  101OSM     OF10189   1.926   6.414  10.468 -0.8161 -0.2375 -0.1402
  101OSM    C2F10190   2.065   6.287  10.320  0.2624 -0.3181 -0.5873
  101OSM    H2F10191   2.028   6.196  10.373 -2.0431  0.6879 -0.4083
  101OSM    H2G10192   2.176   6.281  10.308  0.2292 -1.3091 -0.5278
  101OSM    C3F10193   1.992   6.314  10.185  0.3107 -0.7264  0.1882
  101OSM    H3F10194   2.012   6.413  10.140 -0.3919 -1.0128 -0.7915
  101OSM    H3G10195   1.883   6.316  10.204  0.2090  0.8343 -0.4534
  101OSM    C4F10196   2.046   6.212  10.077 -0.2694 -0.0608 -0.1169
  101OSM    H4F10197   2.006   6.109  10.092 -0.8211  0.0591 -0.7449
  101OSM    H4G10198   2.154   6.191  10.088 -0.2002  0.2514 -0.1888
  101OSM    C5F10199   2.008   6.262   9.935 -0.1923 -0.0827 -0.0803
  101OSM    H5F10200   2.047   6.364   9.916 -0.3920 -0.0419 -0.2707
  101OSM    H5G10201   1.899   6.274   9.919 -0.0189  1.0703 -0.5177
  101OSM    C6F10202   2.055   6.166   9.830 -0.5544 -0.5277  1.0533
  101OSM    H6F10203   2.166   6.159   9.839 -0.2496  3.0746  1.6270
  101OSM    H6G10204   2.008   6.066   9.841 -0.2127 -0.6588  1.3712
  101OSM    C7F10205   2.020   6.227   9.695  0.5930  0.7780 -0.0534
  101OSM    H7F10206   2.016   6.338   9.691 -0.5457  0.7077 -1.7975
  101OSM    H7G10207   1.923   6.192   9.652  1.5315 -1.1636 -0.6975
  101OSM    C8F10208   2.125   6.191   9.590 -0.2170  0.2117 -0.5398
  101OSM    H8F10209   2.231   6.199   9.622 -0.5208  0.9397  0.3285
  101OSM    H8G10210   2.100   6.269   9.514 -0.5463  0.4860 -0.1545
  101OSM    C9F10211   2.109   6.051   9.537  0.0541 -0.3586  0.5966
  101OSM    H9F10212   2.128   5.969   9.608  1.0728 -0.9530 -0.3378
  101OSM   C10F10213   2.090   6.020   9.407 -0.0454  0.4996  0.3569
  101OSM   H10F10214   2.101   5.912   9.387 -3.5551  0.2460 -1.0471
  101OSM   C11F10215   2.081   6.107   9.285 -0.0543 -0.1526 -0.1345
  101OSM   H11F10216   2.123   6.045   9.203  1.8158 -0.1400  0.7514
  101OSM   H11G10217   2.141   6.201   9.291 -3.2051  2.1236 -1.5024
  101OSM   C12F10218   1.935   6.139   9.231  0.1057 -0.3902 -0.2143
  101OSM   H12F10219   1.881   6.208   9.300  0.0410 -1.4782  0.8670
  101OSM   H12G10220   1.868   6.051   9.225 -1.5772  0.8044  0.1394
  101OSM   C13F10221   1.943   6.190   9.087 -0.0306 -0.0863  0.7560
  101OSM   H13F10222   1.843   6.227   9.056 -0.5673 -2.2994 -0.3908
  101OSM   H13G10223   1.958   6.104   9.017 -1.4291 -1.1520  1.7037
  101OSM   C14F10224   2.035   6.305   9.070 -0.1418 -0.6858  0.1790
  101OSM   H14F10225   2.144   6.285   9.077  0.0076 -1.0670 -2.3050
  101OSM   H14G10226   2.015   6.376   9.154 -1.2930 -0.8490  0.0642
  101OSM   C15F10227   2.019   6.388   8.939 -0.2372  0.8366  0.5439
  101OSM   H15F10228   1.941   6.465   8.957  1.8097  2.8959  1.1272
  101OSM   H15G10229   1.999   6.315   8.858  3.5202  0.3752 -0.1757
  101OSM   C16F10230   2.153   6.463   8.903  0.1959  0.0272 -0.0646
  101OSM   H16F10231   2.231   6.393   8.866  3.3926  3.2636 -0.0360
  101OSM   H16G10232   2.186   6.502   9.001  0.8132 -2.2575  0.6919
  101OSM   C17F10233   2.136   6.592   8.811  0.3137 -0.1056 -0.2956
  101OSM   H17F10234   2.234   6.644   8.802 -0.1617  0.9370  0.3463
  101OSM   H17G10235   2.068   6.663   8.864 -0.2975 -0.1343 -1.0194
  101OSM   C18F10236   2.077   6.561   8.675 -0.5396  0.2249 -0.3265
  101OSM   H18F10237   2.150   6.497   8.621 -0.1149  0.2870  0.1606
  101OSM   H18G10238   2.078   6.650   8.608  0.2050  0.3561 -0.1519
  101OSM   H18H10239   1.975   6.518   8.682 -0.3714  0.0289  1.1272
  102OSM      N10240   4.243   2.322  11.282  0.2199  0.1065  0.1928
  102OSM    C1510241   4.201   2.466  11.284  0.4144 -0.0411 -0.3702
  102OSM   H15A10242   4.260   2.529  11.349  1.0004  0.8619 -1.7406
  102OSM   H15B10243   4.094   2.476  11.294  0.2802 -1.3808 -0.2531
  102OSM   H15C10244   4.212   2.505  11.184  0.9609  1.3271  0.2064
  102OSM    C1410245   4.386   2.318  11.241 -0.1642  0.3536  0.0853
  102OSM   H14A10246   4.427   2.219  11.230  2.2072  0.9948  2.3208
  102OSM   H14B10247   4.453   2.368  11.309 -0.0753  1.5282 -0.8291
  102OSM   H14C10248   4.392   2.359  11.141 -1.2047 -0.5097 -0.3428
  102OSM    C1310249   4.235   2.273  11.419 -0.7287  0.2430 -0.1734
  102OSM   H13A10250   4.264   2.169  11.432  2.7184  1.2735  1.3798
  102OSM   H13B10251   4.138   2.286  11.464  0.0874 -1.2452  2.2445
  102OSM   H13C10252   4.304   2.332  11.477 -1.4388 -0.2173  1.1823
  102OSM    C1210253   4.159   2.234  11.186  0.1793 -0.5699  0.2839
  102OSM   H12A10254   4.060   2.229  11.228  0.0411 -0.2680  0.0029
  102OSM   H12B10255   4.206   2.137  11.194  1.1860 -0.0639  0.7949
  102OSM    C1110256   4.129   2.288  11.040 -0.2027 -0.3232 -0.2693
  102OSM   H11A10257   4.074   2.208  10.985 -2.2437  0.3961  0.6190
  102OSM   H11B10258   4.222   2.307  10.982  1.0139 -1.1594  1.3301
  102OSM      P10259   4.027   2.499  10.942  0.0522 -0.1500 -0.1134
  102OSM    O1310260   3.891   2.558  10.945 -0.2049 -0.0843  0.0116
  102OSM    O1410261   4.149   2.576  10.941 -0.3663  0.0247  0.2273
  102OSM    O1110262   4.024   2.408  10.814 -0.6141  0.5580  0.4790
  102OSM    O1210263   4.043   2.400  11.063  0.0124 -0.4153 -0.0484
  102OSM    C1S10264   4.009   2.466  10.676 -0.2504  0.2611  0.2351
  102OSM    H1S10265   4.018   2.576  10.667 -1.8004  0.3555 -0.3564
  102OSM    H1T10266   3.909   2.437  10.637  0.3347 -2.7387  0.7517
  102OSM     NF10267   4.120   2.495  10.465 -0.0596 -0.2037 -0.1757
  102OSM    HNF10268   4.070   2.474  10.382 -0.5951 -0.4511  0.2113
  102OSM    C2S10269   4.110   2.400  10.577 -0.3119 -0.4389 -0.6771
  102OSM    H2S10270   4.211   2.398  10.623 -0.8290 -1.2830  0.4566
  102OSM    C3S10271   4.064   2.264  10.536 -0.0084  0.1663  0.8546
  102OSM    H3S10272   3.958   2.265  10.503 -0.0570 -0.1013  0.9995
  102OSM     O310273   4.056   2.167  10.639  0.4066 -0.0798  0.6022
  102OSM    HO310274   4.066   2.219  10.719 -0.6292  1.1680 -0.0538
  102OSM    C4S10275   4.154   2.214  10.431  0.4268  0.2472 -0.1380
  102OSM    H4S10276   4.108   2.193  10.333  0.5621  0.0739 -0.1654
  102OSM    C5S10277   4.280   2.166  10.452 -0.0206 -0.5050  0.3471
  102OSM    H5S10278   4.335   2.172  10.547  0.3341  1.0077  0.0654
  102OSM    C6S10279   4.359   2.105  10.331  0.6557  0.5606  0.0353
  102OSM    H6S10280   4.298   2.116  10.239  1.3789 -0.5878 -0.6115
  102OSM    H6T10281   4.372   1.996  10.349 -2.9637 -0.3739 -2.0414
  102OSM    C7S10282   4.489   2.178  10.296 -0.6895 -0.1257 -0.3242
  102OSM    H7S10283   4.555   2.181  10.385 -2.2211  1.3430  0.8322
  102OSM    H7T10284   4.463   2.285  10.283  2.1043  0.8453  1.1598
  102OSM    C8S10285   4.558   2.129  10.167 -0.3281 -0.2204  0.1617
  102OSM    H8S10286   4.486   2.122  10.083  1.9239  1.0095 -2.0267
  102OSM    H8T10287   4.583   2.023  10.187 -1.9851 -0.7270 -0.2772
  102OSM    C9S10288   4.678   2.215  10.125 -0.5210  0.3332 -0.6923
  102OSM    H9S10289   4.746   2.200  10.211 -0.5901 -0.3382 -0.7516
  102OSM    H9T10290   4.653   2.323  10.118  1.6804  0.8741 -0.7808
  102OSM   C10S10291   4.757   2.162   9.998  0.0043 -0.0145 -0.6747
  102OSM   H10S10292   4.754   2.051   9.987  0.5573  0.0073 -1.0925
  102OSM   H10T10293   4.858   2.208  10.006 -0.5199  0.9805  0.5662
  102OSM   C11S10294   4.691   2.213   9.868 -0.5656 -0.3533 -0.6505
  102OSM   H11S10295   4.691   2.323   9.882  1.1118 -0.4468  0.4024
  102OSM   H11T10296   4.584   2.185   9.856 -0.2903 -0.7579 -2.3360
  102OSM   C12S10297   4.778   2.182   9.748  0.1463 -0.2687 -0.2960
  102OSM   H12S10298   4.791   2.072   9.744 -0.1241 -0.2690 -1.4230
  102OSM   H12T10299   4.875   2.231   9.770  1.3353 -2.0660 -1.3376
  102OSM   C13S10300   4.713   2.228   9.613  0.1672  0.1719 -0.2806
  102OSM   H13S10301   4.708   2.339   9.619 -0.4991  0.0801  1.3670
  102OSM   H13T10302   4.612   2.181   9.608  0.6509 -0.9469  0.1207
  102OSM   C14S10303   4.806   2.196   9.492 -0.0623  0.1018  0.5739
  102OSM   H14S10304   4.809   2.091   9.455 -0.0785 -0.0520  0.9995
  102OSM   H14T10305   4.912   2.215   9.521 -0.1373 -0.6335  1.3680
  102OSM   C15S10306   4.762   2.269   9.362 -0.6792 -0.1407  0.2250
  102OSM   H15S10307   4.808   2.370   9.364  1.0445 -0.8980  0.1914
  102OSM   H15T10308   4.652   2.287   9.356 -0.3190  1.8682 -2.3857
  102OSM   C16S10309   4.811   2.202   9.231 -1.2522 -0.2023  0.2949
  102OSM   H16S10310   4.777   2.097   9.215 -0.8933 -0.1652 -0.7636
  102OSM   H16T10311   4.922   2.200   9.231 -1.2008 -1.1055 -2.1328
  102OSM   C17S10312   4.789   2.292   9.103  0.7975  0.0245 -0.1880
  102OSM   H17S10313   4.776   2.401   9.119  1.8539  0.1934 -0.4335
  102OSM   H17T10314   4.693   2.245   9.073  0.9950 -1.2842  1.0662
  102OSM   C18S10315   4.892   2.288   8.991  0.5364  0.2154 -0.2270
  102OSM   H18S10316   4.993   2.313   9.030  0.5454 -0.9802  0.6017
  102OSM   H18T10317   4.863   2.366   8.918  0.3496  0.2518 -0.1144
  102OSM   H18U10318   4.878   2.194   8.933  1.7258 -1.2897  1.7819
  102OSM    C1F10319   4.185   2.615  10.485 -0.0186  0.1898 -0.0019
  102OSM     OF10320   4.232   2.644  10.593 -0.0191  0.0537 -0.0354
  102OSM    C2F10321   4.209   2.698  10.363 -0.0026 -0.5467  0.0448
  102OSM    H2F10322   4.260   2.792  10.395 -0.9477 -0.0338  0.0708
  102OSM    H2G10323   4.112   2.725  10.316 -0.6396 -0.7534  1.1995
  102OSM    C3F10324   4.292   2.640  10.246 -0.4340  0.3744  0.4268
  102OSM    H3F10325   4.383   2.603  10.298 -1.8573 -2.3123  1.2110
  102OSM    H3G10326   4.322   2.722  10.177 -0.8515 -0.1702 -0.4163
  102OSM    C4F10327   4.214   2.525  10.173  0.4918 -0.9388  0.5700
  102OSM    H4F10328   4.104   2.542  10.169  0.9222  2.3331 -0.9351
  102OSM    H4G10329   4.226   2.432  10.232 -1.6666 -0.9012  1.1587
  102OSM    C5F10330   4.266   2.494  10.036 -0.1764 -0.1749  0.5232
  102OSM    H5F10331   4.376   2.510  10.036 -0.0403 -0.8896 -1.1352
  102OSM    H5G10332   4.216   2.554   9.957  0.5899  1.1600  1.0296
  102OSM    C6F10333   4.243   2.347  10.002  0.1233  0.6131 -0.2175
  102OSM    H6F10334   4.133   2.336  10.015  0.1338  1.5655  0.8650
  102OSM    H6G10335   4.274   2.275  10.081 -0.4696 -1.1083 -1.4737
  102OSM    C7F10336   4.305   2.298   9.869 -0.3136  0.3923 -0.0394
  102OSM    H7F10337   4.269   2.194   9.859  0.4160  0.3172 -2.7171
  102OSM    H7G10338   4.416   2.301   9.874 -0.1763 -1.8836 -0.8759
  102OSM    C8F10339   4.255   2.377   9.745  0.3001  0.1439  0.1219
  102OSM    H8F10340   4.303   2.477   9.746 -0.1776  0.4222  3.2337
  102OSM    H8G10341   4.149   2.410   9.757  0.1586  0.1782 -1.0373
  102OSM    C9F10342   4.255   2.306   9.612 -0.0600 -0.0092 -0.3418
  102OSM    H9F10343   4.196   2.213   9.604 -2.0922  1.0308  1.4279
  102OSM   C10F10344   4.331   2.343   9.506  0.6749 -0.0438 -0.1224
  102OSM   H10F10345   4.319   2.280   9.416 -0.0811 -1.9339  1.2528
  102OSM   C11F10346   4.418   2.465   9.496 -0.2341  0.2131 -0.1423
  102OSM   H11F10347   4.510   2.441   9.437 -0.2282  1.5728 -0.7314
  102OSM   H11G10348   4.461   2.493   9.594  1.6241  2.0874 -1.3954
  102OSM   C12F10349   4.338   2.579   9.428  0.5085 -0.6324  0.2288
  102OSM   H12F10350   4.384   2.673   9.466  0.4749 -0.6284  0.2578
  102OSM   H12G10351   4.235   2.591   9.466  0.7184  0.9720  0.3900
  102OSM   C13F10352   4.349   2.577   9.277  0.3157  0.4185 -0.1965
  102OSM   H13F10353   4.258   2.626   9.236  0.1650 -1.6045 -2.4894
  102OSM   H13G10354   4.351   2.476   9.230  1.3511  0.9779 -1.4134
  102OSM   C14F10355   4.470   2.657   9.226  0.2683  0.4513  0.4473
  102OSM   H14F10356   4.569   2.610   9.244 -0.3117 -1.3498 -0.7627
  102OSM   H14G10357   4.473   2.753   9.282  0.2605  2.1358 -2.2148
  102OSM   C15F10358   4.460   2.717   9.083 -0.5210  0.3160  0.0282
  102OSM   H15F10359   4.520   2.810   9.069 -1.4815  1.0684  0.6687
  102OSM   H15G10360   4.354   2.749   9.071 -0.3263  0.9099 -0.1342
  102OSM   C16F10361   4.494   2.606   8.976 -0.1983 -0.2061  0.0781
  102OSM   H16F10362   4.430   2.518   8.998 -0.4992  0.3677  1.6082
  102OSM   H16G10363   4.600   2.574   8.984 -0.2386 -1.1591 -2.3756
  102OSM   C17F10364   4.474   2.652   8.832  0.2319 -1.1148  0.9209
  102OSM   H17F10365   4.372   2.696   8.822  0.7655 -0.1988 -1.1790
  102OSM   H17G10366   4.471   2.565   8.763  2.3830 -0.2909 -0.3122
  102OSM   C18F10367   4.586   2.756   8.781 -0.5317  0.4431  0.2849
  102OSM   H18F10368   4.611   2.819   8.869  0.0544 -0.6581  0.9389
  102OSM   H18G10369   4.571   2.802   8.681  1.3991 -1.2872 -0.8851
  102OSM   H18H10370   4.675   2.694   8.756 -1.2678 -0.0883 -1.0984
  103OSM      N10371   3.742   5.517  10.718 -0.4760 -0.3461  0.6518
  103OSM    C1510372   3.831   5.451  10.613  0.3311 -0.2093 -0.0643
  103OSM   H15A10373   3.859   5.359  10.663 -0.7595 -0.4199  0.1879
  103OSM   H15B10374   3.915   5.509  10.580  0.3904 -0.2798 -0.0372
  103OSM   H15C10375   3.767   5.429  10.529 -0.2601 -0.8712  0.5458
  103OSM    C1410376   3.607   5.446  10.732 -0.2702  0.0379  0.0741
  103OSM   H14A10377   3.623   5.348  10.777  2.2849  0.7122  0.7948
  103OSM   H14B10378   3.554   5.429  10.640 -0.6668 -1.8994  0.5935
  103OSM   H14C10379   3.541   5.496  10.801 -0.6475  1.0836 -1.0346
  103OSM    C1310380   3.819   5.510  10.847 -0.0591 -0.4990 -0.3752
  103OSM   H13A10381   3.820   5.415  10.899  0.5975  0.0158  0.5820
  103OSM   H13B10382   3.787   5.581  10.922  2.2182  1.1280 -0.8325
  103OSM   H13C10383   3.920   5.538  10.820 -0.5348  0.1584 -1.5616
  103OSM    C1210384   3.712   5.661  10.682  0.5201 -0.5481 -0.3834
  103OSM   H12A10385   3.661   5.696  10.771  1.1387 -4.1130  1.5564
  103OSM   H12B10386   3.636   5.650  10.607  0.4498 -0.8750 -0.2655
  103OSM    C1110387   3.824   5.751  10.626 -0.2435  0.6132 -0.0686
  103OSM   H11A10388   3.792   5.854  10.602  0.4642  1.0724  0.8636
  103OSM   H11B10389   3.852   5.699  10.532  2.7148  1.0093  0.4774
  103OSM      P10390   3.938   5.868  10.829 -0.1466  0.1037  0.0827
  103OSM    O1310391   3.807   5.924  10.852  0.5122 -0.2600 -0.1310
  103OSM    O1410392   4.014   5.811  10.942  0.2051 -0.2355  0.0133
  103OSM    O1110393   4.025   5.978  10.770 -0.4124 -0.7151  0.1213
  103OSM    O1210394   3.938   5.752  10.721  0.1252  0.1588  0.8256
  103OSM    C1S10395   4.153   5.972  10.698  0.3811 -0.1182  0.0066
  103OSM    H1S10396   4.221   5.896  10.740  0.3338  0.7032  1.6728
  103OSM    H1T10397   4.197   6.074  10.706 -2.7008  1.3619 -0.4714
  103OSM     NF10398   4.249   5.941  10.474  0.1143  0.1282  0.2672
  103OSM    HNF10399   4.293   6.021  10.434  1.7199  0.2454  2.1053
  103OSM    C2S10400   4.127   5.949  10.548  0.6788 -0.2304  0.4074
  103OSM    H2S10401   4.071   5.853  10.545 -1.0508  0.7316  0.4985
  103OSM    C3S10402   4.021   6.056  10.483 -0.0748 -0.2750 -0.7465
  103OSM    H3S10403   4.062   6.159  10.478 -1.8150  0.4128 -1.6651
  103OSM     O310404   3.903   6.076  10.565  0.3451  0.2644 -0.3002
  103OSM    HO310405   3.909   6.028  10.648 -1.4267  0.3744 -0.0754
  103OSM    C4S10406   3.976   6.011  10.342  0.9536 -0.2852 -0.1548
  103OSM    H4S10407   4.055   6.018  10.265  0.8847  1.4621 -0.1194
  103OSM    C5S10408   3.851   5.981  10.306  0.3971 -0.8130 -0.4193
  103OSM    H5S10409   3.772   5.978  10.382  1.6643  3.4655  1.3845
  103OSM    C6S10410   3.808   5.944  10.168 -0.5878 -0.0188 -0.1284
  103OSM    H6S10411   3.719   6.005  10.140 -1.7557 -2.6631 -2.7521
  103OSM    H6T10412   3.757   5.845  10.179 -0.4400  0.1493  3.0703
  103OSM    C7S10413   3.910   5.945  10.052  0.8974  0.6074  0.7326
  103OSM    H7S10414   3.977   5.860  10.075  0.4012 -0.2362 -0.7954
  103OSM    H7T10415   3.962   6.042  10.035 -0.0207  0.9646 -0.2127
  103OSM    C8S10416   3.835   5.908   9.918 -0.6392  0.4101  0.2962
  103OSM    H8S10417   3.770   5.997   9.911 -0.8894  0.3670  1.7833
  103OSM    H8T10418   3.776   5.819   9.951  2.3213 -1.4113  1.0983
  103OSM    C9S10419   3.928   5.879   9.790 -0.7245 -0.4770  0.7152
  103OSM    H9S10420   3.980   5.781   9.795  1.2410  0.4831 -0.0677
  103OSM    H9T10421   4.012   5.951   9.805 -0.2208 -0.8882 -0.0859
  103OSM   C10S10422   3.866   5.870   9.646  0.3620 -0.2781 -0.3602
  103OSM   H10S10423   3.828   5.974   9.634 -0.4167 -0.3838  0.9263
  103OSM   H10T10424   3.781   5.799   9.655  0.4207 -0.4845 -1.3360
  103OSM   C11S10425   3.959   5.838   9.528 -0.2654  0.5227 -0.0328
  103OSM   H11S10426   4.019   5.748   9.554  0.4587  1.5892  2.3259
  103OSM   H11T10427   4.020   5.927   9.506  0.1641  0.1291 -0.4380
  103OSM   C12S10428   3.874   5.823   9.402 -0.3828 -0.3194  0.0102
  103OSM   H12S10429   3.829   5.920   9.371 -0.2449  1.1558  3.9210
  103OSM   H12T10430   3.781   5.763   9.414 -0.7211  0.5492  2.2216
  103OSM   C13S10431   3.963   5.761   9.292  0.5864 -1.1270 -1.3818
  103OSM   H13S10432   3.947   5.651   9.293 -2.9557 -0.7216 -0.5518
  103OSM   H13T10433   4.070   5.785   9.313  0.2768 -2.0572  1.7722
  103OSM   C14S10434   3.927   5.805   9.150 -0.5341 -0.0171 -0.5120
  103OSM   H14S10435   3.966   5.909   9.142 -0.1589 -0.1576 -0.5191
  103OSM   H14T10436   3.817   5.796   9.137 -0.7693 -5.9337  2.3670
  103OSM   C15S10437   4.006   5.721   9.045 -0.6843  0.4799 -0.3175
  103OSM   H15S10438   4.100   5.696   9.098 -0.8963 -1.3881 -0.7575
  103OSM   H15T10439   4.036   5.785   8.959 -0.1256  1.7301  0.7627
  103OSM   C16S10440   3.929   5.585   9.015  0.2608 -0.7090  0.2961
  103OSM   H16S10441   3.845   5.614   8.949  1.1963  0.9585 -0.2292
  103OSM   H16T10442   3.900   5.544   9.114  0.9797  0.5364  1.0423
  103OSM   C17S10443   4.024   5.479   8.952  0.1001  0.3309 -0.3271
  103OSM   H17S10444   4.117   5.457   9.009  0.6508  2.8378 -0.1522
  103OSM   H17T10445   4.068   5.506   8.853  0.2599 -2.2059 -1.0367
  103OSM   C18S10446   3.954   5.350   8.907 -0.5782  0.7755  0.3628
  103OSM   H18S10447   4.032   5.272   8.894 -2.1679 -1.1123  1.7336
  103OSM   H18T10448   3.887   5.368   8.820 -0.5445 -1.1317 -0.0864
  103OSM   H18U10449   3.881   5.315   8.982 -1.0893  1.2024  0.0745
  103OSM    C1F10450   4.336   5.844  10.482 -0.2563  0.3713 -0.6699
  103OSM     OF10451   4.317   5.753  10.561  0.2828  0.0117 -0.0675
  103OSM    C2F10452   4.452   5.846  10.392 -0.2479  1.1334 -0.6554
  103OSM    H2F10453   4.545   5.800  10.432  0.9963  2.5563 -1.7665
  103OSM    H2G10454   4.482   5.950  10.365 -3.4598  1.5885 -3.1024
  103OSM    C3F10455   4.434   5.775  10.262  0.0146 -0.2768  0.2071
  103OSM    H3F10456   4.352   5.814  10.198 -1.9123 -2.1298  1.3936
  103OSM    H3G10457   4.395   5.675  10.288  0.2956 -0.2818  0.6177
  103OSM    C4F10458   4.560   5.748  10.188  0.5889 -0.2590 -0.3286
  103OSM    H4F10459   4.634   5.703  10.256 -1.5592 -1.3192  1.4505
  103OSM    H4G10460   4.607   5.833  10.133 -0.5200 -0.4750 -1.6881
  103OSM    C5F10461   4.558   5.627  10.081  0.4784  0.1409 -0.3455
  103OSM    H5F10462   4.537   5.529  10.129 -0.6959  0.7935  0.5696
  103OSM    H5G10463   4.660   5.624  10.037  1.1702  1.6299  1.0474
  103OSM    C6F10464   4.457   5.652   9.967  0.0832  0.2908  0.5746
  103OSM    H6F10465   4.353   5.675   9.997  0.2908  3.1913 -0.5498
  103OSM    H6G10466   4.469   5.555   9.913 -0.3740  0.8195 -0.5029
  103OSM    C7F10467   4.513   5.765   9.871 -0.2193 -0.8919  0.0154
  103OSM    H7F10468   4.616   5.729   9.851  0.5438  0.6457  0.9734
  103OSM    H7G10469   4.529   5.854   9.936  0.5485 -1.8059  1.1096
  103OSM    C8F10470   4.413   5.810   9.759 -0.2252  1.0036  0.2012
  103OSM    H8F10471   4.450   5.903   9.711 -1.0512  2.7216  2.7013
  103OSM    H8G10472   4.313   5.829   9.803 -0.9108 -1.3968 -0.2204
  103OSM    C9F10473   4.396   5.695   9.650  0.6054 -0.2339 -0.6662
  103OSM    H9F10474   4.410   5.595   9.694 -1.3444 -0.5253 -0.6265
  103OSM   C10F10475   4.359   5.707   9.525  0.2809 -0.3469  0.0527
  103OSM   H10F10476   4.366   5.618   9.460  1.6637 -0.5087  0.3899
  103OSM   C11F10477   4.336   5.839   9.445  0.2632  0.0396 -0.1989
  103OSM   H11F10478   4.354   5.924   9.515 -1.5511 -0.5452  1.0327
  103OSM   H11G10479   4.234   5.851   9.403  0.2187 -0.7252 -0.3230
  103OSM   C12F10480   4.443   5.866   9.337 -0.2830  0.8159 -0.6662
  103OSM   H12F10481   4.542   5.865   9.387 -0.3095  0.2316 -0.6109
  103OSM   H12G10482   4.433   5.970   9.299 -0.8863  0.4311 -1.6090
  103OSM   C13F10483   4.428   5.762   9.226 -0.7853 -0.2257  0.3155
  103OSM   H13F10484   4.319   5.749   9.210 -0.8679  1.5958 -0.8369
  103OSM   H13G10485   4.476   5.669   9.261  0.2037  0.3455  0.5227
  103OSM   C14F10486   4.501   5.795   9.092  0.6605 -0.2308  0.2592
  103OSM   H14F10487   4.609   5.815   9.109  0.3639  0.5642  1.3160
  103OSM   H14G10488   4.470   5.888   9.040  0.2013  0.5055  1.7847
  103OSM   C15F10489   4.502   5.670   8.999  0.6534  0.2713 -0.0155
  103OSM   H15F10490   4.399   5.643   8.970  0.7081  1.1668 -1.1174
  103OSM   H15G10491   4.543   5.590   9.065 -0.8076 -0.9392 -0.5128
  103OSM   C16F10492   4.577   5.688   8.869  0.2306 -0.2515 -0.4151
  103OSM   H16F10493   4.680   5.712   8.904 -0.7403  2.1949  1.0066
  103OSM   H16G10494   4.547   5.774   8.805  0.5738 -0.7391 -1.2535
  103OSM   C17F10495   4.568   5.568   8.780 -0.2954  0.7300  0.8150
  103OSM   H17F10496   4.460   5.543   8.772  0.0623 -0.8587  0.5353
  103OSM   H17G10497   4.624   5.480   8.820 -2.7047 -1.6923 -0.8067
  103OSM   C18F10498   4.631   5.591   8.636  0.3090 -0.1160  0.0070
  103OSM   H18F10499   4.586   5.514   8.569 -2.8311  0.9549  0.7533
  103OSM   H18G10500   4.740   5.579   8.655  0.0031 -2.0614  0.7787
  103OSM   H18H10501   4.598   5.692   8.605 -3.5935 -0.9327  0.9885
  104OSM      N10502   3.000   3.562  10.701 -0.2018  0.2605  0.3790
  104OSM    C1510503   3.034   3.497  10.832 -0.2412 -0.5055  0.0532
  104OSM   H15A10504   2.990   3.399  10.823  0.4532 -0.7959 -0.2319
  104OSM   H15B10505   3.002   3.556  10.917  0.1804 -0.2987  0.0731
  104OSM   H15C10506   3.141   3.492  10.848 -0.2528 -1.5504 -0.1310
  104OSM    C1410507   2.853   3.555  10.679 -0.2457 -0.5747 -0.4555
  104OSM   H14A10508   2.818   3.453  10.682 -1.1967 -0.2545 -0.5443
  104OSM   H14B10509   2.829   3.587  10.579 -0.4548  1.6636  0.2468
  104OSM   H14C10510   2.785   3.600  10.750 -1.2487 -1.6897 -0.6781
  104OSM    C1310511   3.043   3.706  10.697  0.3039 -0.4994 -0.0938
  104OSM   H13A10512   2.999   3.764  10.777  1.5140 -0.1077  0.3074
  104OSM   H13B10513   3.013   3.744  10.601 -0.3175 -0.9734 -0.0989
  104OSM   H13C10514   3.151   3.709  10.701  0.3268 -1.0504 -0.2154
  104OSM    C1210515   3.066   3.485  10.583  0.2573  0.3908 -0.1022
  104OSM   H12A10516   3.015   3.508  10.490 -0.2517 -1.7045 -0.3790
  104OSM   H12B10517   3.033   3.385  10.606  0.3574  0.7906  1.9027
  104OSM    C1110518   3.220   3.505  10.566  0.2424 -0.0872 -0.3856
  104OSM   H11A10519   3.235   3.608  10.527 -1.4860  0.4621  0.3220
  104OSM   H11B10520   3.256   3.436  10.486  1.0076  2.6815 -2.5836
  104OSM      P10521   3.400   3.571  10.750  0.2619  0.0702 -0.1739
  104OSM    O1310522   3.363   3.711  10.732  0.3816 -0.1130  0.2397
  104OSM    O1410523   3.432   3.520  10.885  0.6631  0.1146  0.1739
  104OSM    O1110524   3.513   3.544  10.650  0.3569  0.5904  0.4752
  104OSM    O1210525   3.296   3.468  10.686 -0.1657  0.0834  0.0208
  104OSM    C1S10526   3.567   3.409  10.634 -0.3159 -0.4207  0.7045
  104OSM    H1S10527   3.485   3.334  10.641 -0.4042 -0.5055 -0.9076
  104OSM    H1T10528   3.642   3.382  10.711 -2.0657 -2.0634  1.9374
  104OSM     NF10529   3.649   3.268  10.461 -0.9916  0.8366 -0.5233
  104OSM    HNF10530   3.748   3.256  10.458 -0.9138  1.5197 -0.8842
  104OSM    C2S10531   3.627   3.404  10.495 -0.1384 -0.0147 -0.0289
  104OSM    H2S10532   3.549   3.438  10.422 -1.2411 -0.1564  1.0468
  104OSM    C3S10533   3.751   3.494  10.478 -0.4967  0.1339  0.6588
  104OSM    H3S10534   3.837   3.433  10.512  0.0282  0.3985 -0.1733
  104OSM     O310535   3.760   3.616  10.561 -0.1179 -0.4685  0.1992
  104OSM    HO310536   3.679   3.612  10.612 -0.1972 -0.7802  0.0523
  104OSM    C4S10537   3.772   3.528  10.332  0.4840 -0.0972  0.1006
  104OSM    H4S10538   3.832   3.451  10.281 -1.0825 -1.8344  0.7307
  104OSM    C5S10539   3.723   3.631  10.262 -0.1258  0.0655 -0.0718
  104OSM    H5S10540   3.663   3.706  10.317 -0.8105 -1.0092  0.6786
  104OSM    C6S10541   3.747   3.665  10.121 -0.8831 -0.1406  0.6642
  104OSM    H6S10542   3.773   3.772  10.118  0.1391 -0.3735 -2.1326
  104OSM    H6T10543   3.649   3.639  10.074 -0.0976 -0.8292 -0.6743
  104OSM    C7S10544   3.858   3.591  10.046 -0.5535 -0.4258 -0.3318
  104OSM    H7S10545   3.843   3.481  10.045 -1.5587 -0.2926 -1.0470
  104OSM    H7T10546   3.957   3.608  10.094 -0.7412  0.0132 -0.0932
  104OSM    C8S10547   3.875   3.648   9.902  0.0705  0.0087 -0.3769
  104OSM    H8S10548   3.897   3.757   9.905  1.9385 -0.2431 -2.5238
  104OSM    H8T10549   3.777   3.640   9.849 -0.7342 -0.2292  1.0816
  104OSM    C9S10550   3.980   3.578   9.824  0.5368  0.0699 -0.5265
  104OSM    H9S10551   3.968   3.468   9.834  1.0775  0.0552 -0.0337
  104OSM    H9T10552   4.082   3.604   9.859  0.1446 -0.2107  0.8994
  104OSM   C10S10553   3.967   3.605   9.674 -0.6769  0.0508 -0.1112
  104OSM   H10S10554   3.989   3.712   9.656 -1.1091  0.0676 -0.5493
  104OSM   H10T10555   3.864   3.574   9.646 -0.5216 -0.7388  0.1584
  104OSM   C11S10556   4.069   3.520   9.594  0.1233 -0.3836 -0.5509
  104OSM   H11S10557   4.083   3.417   9.635 -2.4887  0.1293  1.9211
  104OSM   H11T10558   4.165   3.563   9.630 -0.1567 -0.6941  0.6284
  104OSM   C12S10559   4.064   3.523   9.440  0.1589 -0.2005 -0.4193
  104OSM   H12S10560   4.164   3.509   9.394  1.3167  1.6047  1.3940
  104OSM   H12T10561   4.018   3.620   9.413 -0.6099 -0.2636  0.6227
  104OSM   C13S10562   3.989   3.401   9.389 -0.2006 -0.0013 -0.1300
  104OSM   H13S10563   3.901   3.389   9.457 -0.6287  0.5351 -0.5755
  104OSM   H13T10564   4.043   3.304   9.392 -1.2397 -0.5997 -0.1557
  104OSM   C14S10565   3.942   3.418   9.250 -0.2838 -0.7718  0.3831
  104OSM   H14S10566   3.861   3.494   9.257 -0.3032 -0.9401  2.7345
  104OSM   H14T10567   3.903   3.321   9.212  1.6924 -0.4704 -2.8151
  104OSM   C15S10568   4.053   3.461   9.147 -0.8929 -0.3144  0.5778
  104OSM   H15S10569   4.137   3.389   9.146 -0.3367  0.3146  1.0662
  104OSM   H15T10570   4.091   3.562   9.175 -0.2791 -0.3159 -0.2103
  104OSM   C16S10571   4.006   3.479   9.006  0.3167 -0.0426 -0.2019
  104OSM   H16S10572   3.946   3.390   8.977 -0.9909  0.0361  1.9619
  104OSM   H16T10573   4.090   3.491   8.935 -1.8704  2.1754 -2.6375
  104OSM   C17S10574   3.927   3.607   8.989  0.0623  0.2570 -0.0549
  104OSM   H17S10575   3.984   3.701   9.005  0.1456 -0.1039  2.0155
  104OSM   H17T10576   3.851   3.614   9.070 -0.0518  0.0588 -0.1431
  104OSM   C18S10577   3.846   3.624   8.856  0.1789 -0.5441  0.9284
  104OSM   H18S10578   3.798   3.527   8.829 -0.8512  0.2471 -0.2007
  104OSM   H18T10579   3.906   3.653   8.767 -0.0809  0.0755  0.9510
  104OSM   H18U10580   3.764   3.698   8.869 -1.1199 -1.6706 -0.4010
  104OSM    C1F10581   3.564   3.173  10.421  0.2049 -0.1298  0.3255
  104OSM     OF10582   3.444   3.199  10.417  0.6196  0.3710 -0.5610
  104OSM    C2F10583   3.622   3.044  10.377 -0.6794  0.5945 -0.0564
  104OSM    H2F10584   3.626   2.979  10.467 -2.1738  3.3579  2.2012
  104OSM    H2G10585   3.713   3.054  10.315 -0.9064 -1.7405 -0.8653
  104OSM    C3F10586   3.537   2.975  10.269 -0.1045 -0.2805 -0.2134
  104OSM    H3F10587   3.432   2.974  10.305  0.1079  0.3115  0.4322
  104OSM    H3G10588   3.588   2.877  10.257  1.7647  0.6645 -0.3530
  104OSM    C4F10589   3.549   3.042  10.134 -0.4431  0.2671  0.6794
  104OSM    H4F10590   3.655   3.067  10.113 -0.0711 -1.6823  0.1269
  104OSM    H4G10591   3.477   3.127  10.126 -0.3671  0.2613 -0.0829
  104OSM    C5F10592   3.519   2.945  10.021  0.6073 -0.3385  0.0756
  104OSM    H5F10593   3.422   2.896  10.043 -1.9142  4.6892  1.8641
  104OSM    H5G10594   3.598   2.868  10.007 -0.1382 -0.9292 -1.0079
  104OSM    C6F10595   3.506   3.021   9.891  0.0880  0.2136 -0.0261
  104OSM    H6F10596   3.603   3.075   9.880 -0.0673  0.8759  1.5327
  104OSM    H6G10597   3.419   3.090   9.896 -0.6208 -0.7278  2.3370
  104OSM    C7F10598   3.463   2.924   9.780  0.0892 -0.1610 -0.0093
  104OSM    H7F10599   3.355   2.901   9.787  0.2509 -0.6288  1.0959
  104OSM    H7G10600   3.522   2.829   9.779 -0.7536 -0.7430  1.8941
  104OSM    C8F10601   3.503   2.991   9.642  0.6178  0.5966  0.4157
  104OSM    H8F10602   3.458   3.092   9.644 -0.7818  0.0762  4.2020
  104OSM    H8G10603   3.457   2.927   9.563  1.7034 -0.6786  0.7664
  104OSM    C9F10604   3.643   3.007   9.614 -0.4658  0.1226 -0.5193
  104OSM    H9F10605   3.717   2.990   9.694  1.9212 -0.1805 -2.6608
  104OSM   C10F10606   3.697   3.049   9.492  0.6583 -0.7415  0.1775
  104OSM   H10F10607   3.803   3.056   9.464  0.7735  0.4607  0.8372
  104OSM   C11F10608   3.604   3.060   9.375 -0.0651 -0.0302  0.4923
  104OSM   H11F10609   3.505   3.107   9.395  1.1337  2.0017  2.0648
  104OSM   H11G10610   3.576   2.957   9.347 -0.0811 -0.1352  0.9006
  104OSM   C12F10611   3.683   3.131   9.260 -0.0543 -0.0995  0.3297
  104OSM   H12F10612   3.782   3.084   9.242  0.5133  1.7503 -1.9897
  104OSM   H12G10613   3.707   3.236   9.289 -0.9044 -0.0455  0.8566
  104OSM   C13F10614   3.611   3.103   9.130  0.4128  0.0217  0.4934
  104OSM   H13F10615   3.506   3.136   9.140  0.3748 -0.4280  1.7414
  104OSM   H13G10616   3.585   2.997   9.109 -1.4531  0.7390 -1.0712
  104OSM   C14F10617   3.654   3.173   9.001 -0.0169  0.1749 -0.1194
  104OSM   H14F10618   3.764   3.161   9.000  0.2843  1.8736  2.3756
  104OSM   H14G10619   3.622   3.280   9.007  1.7378  0.8115 -1.2498
  104OSM   C15F10620   3.595   3.112   8.876 -0.0842  0.1886  0.1543
  104OSM   H15F10621   3.486   3.095   8.886  0.0169 -0.7633 -0.2151
  104OSM   H15G10622   3.637   3.010   8.858 -2.0141 -0.7822  0.8171
  104OSM   C16F10623   3.631   3.214   8.762 -1.1415  0.4680  0.0993
  104OSM   H16F10624   3.742   3.225   8.761 -1.1311  0.3594  0.0552
  104OSM   H16G10625   3.594   3.313   8.797  0.2998  0.3529  2.1333
  104OSM   C17F10626   3.581   3.169   8.620 -0.2402 -1.1595 -0.4266
  104OSM   H17F10627   3.620   3.067   8.603  1.5581 -0.5769 -0.0480
  104OSM   H17G10628   3.623   3.235   8.541  0.0591  0.3912  0.9656
  104OSM   C18F10629   3.430   3.171   8.607 -0.1608  0.5669 -0.8261
  104OSM   H18F10630   3.400   3.164   8.501 -1.8986 -2.9051 -0.2468
  104OSM   H18G10631   3.382   3.257   8.659 -1.0767 -1.3596  1.7457
  104OSM   H18H10632   3.387   3.081   8.657 -1.6718  2.3059  1.1988
  105OSM      N10633   0.170   0.198  10.934  0.5719  0.2652 -0.0852
  105OSM    C1510634   0.038   0.136  10.921 -0.6876  0.0672  0.4174
  105OSM   H15A10635   0.007   0.086  11.012 -0.2836  0.6113  0.8552
  105OSM   H15B10636   0.039   0.060  10.843  1.3488 -1.3095  1.6809
  105OSM   H15C10637  -0.040   0.210  10.912 -0.6631  0.5128  3.1527
  105OSM    C1410638   0.165   0.307  11.042  0.7690  0.4439  0.2284
  105OSM   H14A10639   0.067   0.351  11.033  0.3893 -0.7699 -3.0823
  105OSM   H14B10640   0.232   0.387  11.017  1.4667 -0.4708 -0.9108
  105OSM   H14C10641   0.174   0.273  11.144 -1.3740 -2.5277 -0.4244
  105OSM    C1310642   0.270   0.097  10.977 -0.0248 -0.5498 -0.2462
  105OSM   H13A10643   0.248   0.060  11.076  0.9613 -0.6077 -0.0409
  105OSM   H13B10644   0.369   0.139  10.985  0.5942 -1.7557 -1.4328
  105OSM   H13C10645   0.281   0.014  10.910 -0.3392  1.4969 -2.9983
  105OSM    C1210646   0.211   0.263  10.799 -0.2501 -0.5970  0.2580
  105OSM   H12A10647   0.142   0.342  10.776 -1.0520 -1.1901  0.5515
  105OSM   H12B10648   0.217   0.186  10.724  0.4307 -1.7719  1.4729
  105OSM    C1110649   0.356   0.314  10.792  0.7397 -0.1402 -0.1550
  105OSM   H11A10650   0.430   0.245  10.839  0.9906  0.6286  0.6052
  105OSM   H11B10651   0.385   0.399  10.857  3.1237 -1.4363  0.6151
  105OSM      P10652   0.408   0.245  10.554  0.2316  0.2923  0.3923
  105OSM    O1310653   0.557   0.234  10.546  0.0187 -0.1291  0.1116
  105OSM    O1410654   0.346   0.123  10.597 -0.0436 -0.1560  0.4287
  105OSM    O1110655   0.338   0.291  10.420 -0.0322  0.3045 -0.1326
  105OSM    O1210656   0.367   0.359  10.656  0.4976 -0.2437  0.1955
  105OSM    C1S10657   0.406   0.391  10.341 -0.0041  0.2096  0.1937
  105OSM    H1S10658   0.516   0.399  10.358  0.0554  0.2503 -0.1967
  105OSM    H1T10659   0.359   0.489  10.362  1.1134  1.4763 -2.6032
  105OSM     NF10660   0.471   0.437  10.114 -0.0187  0.1335 -0.3298
  105OSM    HNF10661   0.439   0.516  10.062 -0.1739  0.0785 -0.3173
  105OSM    C2S10662   0.374   0.372  10.192  0.2892  0.1772 -0.3107
  105OSM    H2S10663   0.378   0.266  10.158  0.5960  0.4974 -1.3163
  105OSM    C3S10664   0.224   0.414  10.170  0.7818  0.8340  0.3993
  105OSM    H3S10665   0.210   0.520  10.198 -1.5816  0.5246  0.6037
  105OSM     O310666   0.131   0.344  10.251  0.1928 -0.5342 -0.3139
  105OSM    HO310667   0.185   0.294  10.312 -1.1563 -1.0283  0.4989
  105OSM    C4S10668   0.187   0.396  10.026 -0.2405  0.0083  0.3429
  105OSM    H4S10669   0.238   0.312   9.977 -0.0307  1.3355 -1.8823
  105OSM    C5S10670   0.102   0.468   9.946 -1.2844  0.2497 -0.0537
  105OSM    H5S10671   0.047   0.556   9.983 -1.2280  0.0872  0.4206
  105OSM    C6S10672   0.056   0.433   9.806 -0.3564  1.0417  0.0131
  105OSM    H6S10673  -0.055   0.423   9.797 -0.4011  1.5141  0.0086
  105OSM    H6T10674   0.089   0.329   9.785 -1.7930  0.5927 -0.1532
  105OSM    C7S10675   0.106   0.522   9.693  0.4314 -0.3036  0.1983
  105OSM    H7S10676   0.215   0.499   9.690  0.1232 -1.7878 -1.1180
  105OSM    H7T10677   0.099   0.630   9.717 -1.9784 -0.1069 -1.0870
  105OSM    C8S10678   0.047   0.499   9.554  0.0095  0.7184  0.2643
  105OSM    H8S10679  -0.048   0.556   9.550 -0.4772 -0.1214 -0.4929
  105OSM    H8T10680   0.034   0.389   9.546  4.5110 -0.0235  0.1888
  105OSM    C9S10681   0.145   0.559   9.446 -0.4817  0.5563 -0.2355
  105OSM    H9S10682   0.245   0.515   9.468 -0.7332  0.5523  0.9570
  105OSM    H9T10683   0.155   0.668   9.460  0.1117  0.3850  0.7391
  105OSM   C10S10684   0.089   0.539   9.299  0.7567 -0.2296 -0.3129
  105OSM   H10S10685   0.009   0.612   9.278  1.6432  1.2286  1.1840
  105OSM   H10T10686   0.035   0.442   9.297  2.5038 -1.2476 -1.0978
  105OSM   C11S10687   0.196   0.550   9.195 -0.2258  0.0688 -0.4869
  105OSM   H11S10688   0.282   0.481   9.208 -0.3138 -0.1277 -0.9188
  105OSM   H11T10689   0.251   0.647   9.194  0.9566 -0.4148  3.3048
  105OSM   C12S10690   0.143   0.513   9.056  0.4172 -0.3447  0.9088
  105OSM   H12S10691   0.216   0.548   8.980 -0.1810 -0.8622  0.0807
  105OSM   H12T10692   0.046   0.563   9.034  1.0440  0.6173  0.2826
  105OSM   C13S10693   0.130   0.365   9.041 -0.2178 -0.3985  0.6620
  105OSM   H13S10694   0.067   0.324   9.123  0.7151  0.4718  1.8514
  105OSM   H13T10695   0.231   0.318   9.049  0.4375  0.9718  0.6885
  105OSM   C14S10696   0.065   0.342   8.900  0.2006 -0.6709  1.1259
  105OSM   H14S10697   0.106   0.423   8.836  0.0225 -2.1984 -1.0434
  105OSM   H14T10698  -0.041   0.356   8.929  0.2580 -1.3745  1.6885
  105OSM   C15S10699   0.088   0.208   8.820  0.1186  0.3032  0.2772
  105OSM   H15S10700   0.032   0.193   8.725  0.3594  0.8330  0.0482
  105OSM   H15T10701   0.052   0.118   8.876 -0.2754 -1.6283 -2.8385
  105OSM   C16S10702   0.236   0.190   8.786 -0.7212  0.3764 -0.7133
  105OSM   H16S10703   0.289   0.202   8.883 -2.5058 -0.7998  0.4702
  105OSM   H16T10704   0.277   0.268   8.718  0.1558 -0.5812 -1.3155
  105OSM   C17S10705   0.267   0.049   8.736  0.7868 -0.4087 -0.1507
  105OSM   H17S10706   0.217   0.026   8.640  2.4368 -0.1495 -1.0994
  105OSM   H17T10707   0.225  -0.025   8.808 -0.3040  0.7392  0.4573
  105OSM   C18S10708   0.419   0.020   8.722  0.4286 -0.3534  0.0605
  105OSM   H18S10709   0.425  -0.089   8.701  1.8203 -0.3477  0.3443
  105OSM   H18T10710   0.472   0.048   8.815  1.4776 -2.0411  0.0157
  105OSM   H18U10711   0.462   0.080   8.639 -0.1507  1.1389  0.7989
  105OSM    C1F10712   0.595   0.397  10.116  0.4528  0.4093  0.4477
  105OSM     OF10713   0.629   0.291  10.169 -0.6995 -0.2479 -0.3500
  105OSM    C2F10714   0.695   0.487  10.051  0.3768  0.0933  0.0746
  105OSM    H2F10715   0.773   0.522  10.123 -1.6597  2.6314  1.1979
  105OSM    H2G10716   0.641   0.582  10.034  1.7513  0.9257  0.1432
  105OSM    C3F10717   0.772   0.435   9.931 -0.9811 -0.0481  1.1154
  105OSM    H3F10718   0.805   0.515   9.861 -0.6342 -1.0570  0.1137
  105OSM    H3G10719   0.696   0.373   9.879 -0.1932 -3.2434  3.5011
  105OSM    C4F10720   0.891   0.347   9.970  0.5609 -0.1265 -0.1862
  105OSM    H4F10721   0.854   0.281  10.051  2.0196  0.3327  0.9082
  105OSM    H4G10722   0.962   0.415  10.024 -0.1767 -1.5656  2.8142
  105OSM    C5F10723   0.963   0.278   9.852 -0.1112 -0.4222 -0.0327
  105OSM    H5F10724   0.902   0.192   9.818  1.3747 -0.3991 -3.0526
  105OSM    H5G10725   1.063   0.236   9.878  0.9519  2.0889  0.3179
  105OSM    C6F10726   0.983   0.373   9.729 -0.5475 -0.0818 -0.2585
  105OSM    H6F10727   1.037   0.466   9.761 -0.1578 -1.0695  2.2015
  105OSM    H6G10728   0.884   0.407   9.691 -0.7892  0.3791  0.7280
  105OSM    C7F10729   1.060   0.302   9.616  0.3166  0.0966  0.3913
  105OSM    H7F10730   1.016   0.203   9.592  2.7720 -1.0154  0.1086
  105OSM    H7G10731   1.160   0.268   9.650 -0.2219 -2.9750 -0.8362
  105OSM    C8F10732   1.086   0.389   9.492  0.0549 -0.0663  0.2759
  105OSM    H8F10733   1.171   0.340   9.440 -1.0262 -0.6430 -0.9960
  105OSM    H8G10734   1.123   0.479   9.547 -2.3886 -0.1053  2.1299
  105OSM    C9F10735   0.976   0.417   9.398  0.5812  0.6886 -0.3798
  105OSM    H9F10736   0.892   0.476   9.437  0.1353 -0.8097  1.0280
  105OSM   C10F10737   0.979   0.395   9.268  0.0872 -0.3131 -0.3977
  105OSM   H10F10738   0.896   0.442   9.214 -0.2755 -0.0234  0.3924
  105OSM   C11F10739   1.084   0.332   9.184  0.4657 -0.3363 -0.2787
  105OSM   H11F10740   1.077   0.222   9.202  0.9642 -0.2124  0.7800
  105OSM   H11G10741   1.187   0.361   9.212  0.7635 -0.0965 -1.5874
  105OSM   C12F10742   1.055   0.351   9.034 -0.8199  0.3073 -0.0715
  105OSM   H12F10743   1.146   0.343   8.971 -1.1829 -0.5080 -0.5052
  105OSM   H12G10744   1.012   0.451   9.013 -2.0357 -0.2630 -0.4410
  105OSM   C13F10745   0.963   0.237   8.983  0.0091  0.9484  0.1312
  105OSM   H13F10746   0.863   0.242   9.032  0.3851  3.0738  0.7619
  105OSM   H13G10747   1.012   0.140   9.004  1.6580  1.4670 -1.1187
  105OSM   C14F10748   0.943   0.257   8.834  0.4140 -0.0077 -0.0445
  105OSM   H14F10749   1.034   0.284   8.777  0.1762  0.0159 -0.4173
  105OSM   H14G10750   0.874   0.342   8.814  0.6560  0.2126  0.0520
  105OSM   C15F10751   0.881   0.119   8.776 -0.5131 -0.5035 -0.4780
  105OSM   H15F10752   0.797   0.141   8.706  0.4087  1.3865 -1.0479
  105OSM   H15G10753   0.835   0.062   8.859  0.1786 -1.1073 -0.4999
  105OSM   C16F10754   0.980   0.024   8.713 -0.7031  0.4364  0.1415
  105OSM   H16F10755   0.948  -0.081   8.727  1.4585 -0.3571 -0.4389
  105OSM   H16G10756   1.087   0.041   8.740 -0.8325  0.7204  0.4711
  105OSM   C17F10757   0.985   0.042   8.563  0.0360 -0.0044 -0.0786
  105OSM   H17F10758   1.008   0.145   8.527  2.0379 -0.8540 -1.3791
  105OSM   H17G10759   0.878   0.023   8.538  0.4922 -1.9822 -0.6781
  105OSM   C18F10760   1.074  -0.046   8.479 -0.3391  0.5847 -0.0317
  105OSM   H18F10761   1.082  -0.155   8.497 -0.4654  0.2133 -2.0010
  105OSM   H18G10762   1.178  -0.009   8.492 -0.9031  1.1628  4.1930
  105OSM   H18H10763   1.042  -0.035   8.373 -0.5184  3.2598  0.2204
  106OSM      N10764   6.438   0.526  11.014 -0.6643  0.0452  0.2257
  106OSM    C1510765   6.368   0.600  11.132  0.4501  0.3287  0.0966
  106OSM   H15A10766   6.393   0.704  11.146 -1.4326  0.8393 -0.0368
  106OSM   H15B10767   6.377   0.544  11.223  0.4468 -1.8092 -1.1537
  106OSM   H15C10768   6.261   0.613  11.123  0.4069 -0.2839 -0.3281
  106OSM    C1410769   6.582   0.516  11.047 -0.5433 -0.7262  0.0715
  106OSM   H14A10770   6.633   0.478  10.960 -1.4539  0.6128 -1.0926
  106OSM   H14B10771   6.606   0.449  11.128 -2.5286 -2.6428 -0.7985
  106OSM   H14C10772   6.618   0.616  11.063  0.3180 -0.8638 -0.8518
  106OSM    C1310773   6.373   0.389  11.022  0.1056 -0.8727 -0.2190
  106OSM   H13A10774   6.266   0.393  11.023  0.1565  1.3491 -0.0184
  106OSM   H13B10775   6.404   0.334  11.110  0.2555 -0.3124  0.0795
  106OSM   H13C10776   6.411   0.333  10.938  4.3466  1.6428 -0.2886
  106OSM    C1210777   6.401   0.602  10.889 -0.7688  0.0797  0.1476
  106OSM   H12A10778   6.435   0.703  10.904 -0.5753 -0.0286  0.4411
  106OSM   H12B10779   6.295   0.621  10.882 -0.7464 -0.2283 -1.4984
  106OSM    C1110780   6.460   0.553  10.754 -0.8863  1.2578  0.1931
  106OSM   H11A10781   6.571   0.561  10.753 -0.8266  0.4786  0.0240
  106OSM   H11B10782   6.418   0.625  10.681 -2.9082  0.9682  1.0043
  106OSM      P10783   6.328   0.373  10.620  0.1047 -0.3025  0.2694
  106OSM    O1310784   6.309   0.227  10.624  0.5521  0.0862 -0.2654
  106OSM    O1410785   6.203   0.455  10.638 -0.1697 -0.3736  0.2755
  106OSM    O1110786   6.403   0.423  10.493 -0.6001 -0.1721 -0.1229
  106OSM    O1210787   6.427   0.417  10.736  0.1665 -0.0073  0.4859
  106OSM    C1S10788   6.524   0.350  10.447  0.6822  0.2666  0.0051
  106OSM    H1S10789   6.487   0.247  10.425  0.9849 -0.0314  0.8405
  106OSM    H1T10790   6.605   0.337  10.522  1.4714 -1.2812 -1.0525
  106OSM     NF10791   6.671   0.304  10.251 -0.0913  0.6330 -0.1320
  106OSM    HNF10792   6.769   0.322  10.254  0.3079 -1.3593  0.4636
  106OSM    C2S10793   6.589   0.406  10.314  0.0623 -0.1219  0.2460
  106OSM    H2S10794   6.509   0.428  10.239  0.3122 -0.6715 -0.1935
  106OSM    C3S10795   6.660   0.542  10.354  0.8979  0.7795  0.0847
  106OSM    H3S10796   6.756   0.517  10.405  0.2998 -0.0540  0.8251
  106OSM     O310797   6.586   0.616  10.454  0.4495 -0.3915 -0.1031
  106OSM    HO310798   6.515   0.552  10.464 -0.9333  0.2874 -3.9854
  106OSM    C4S10799   6.687   0.623  10.235 -0.2381  1.1793  0.5114
  106OSM    H4S10800   6.789   0.663  10.243  0.6963 -0.8207 -0.6384
  106OSM    C5S10801   6.598   0.675  10.146  0.1259 -0.0199 -0.1925
  106OSM    H5S10802   6.491   0.651  10.151  0.2030 -0.2506  0.5333
  106OSM    C6S10803   6.632   0.773  10.032  0.2222  0.1133  0.2997
  106OSM    H6S10804   6.548   0.845  10.020  0.9058  0.6365 -1.9032
  106OSM    H6T10805   6.630   0.716   9.936 -0.0291  0.9462 -0.1988
  106OSM    C7S10806   6.771   0.846  10.047 -0.4709  0.3143 -0.5218
  106OSM    H7S10807   6.860   0.780  10.036 -0.6081 -0.1292  0.8285
  106OSM    H7T10808   6.776   0.893  10.147  1.8961  0.8112 -0.8236
  106OSM    C8S10809   6.785   0.968   9.954 -0.5751 -0.3432  0.9536
  106OSM    H8S10810   6.865   1.038   9.987 -0.1496  0.2902 -1.2796
  106OSM    H8T10811   6.686   1.019   9.956  0.5005  1.8253  1.7259
  106OSM    C9S10812   6.812   0.918   9.815  0.1918  0.2206  0.8710
  106OSM    H9S10813   6.733   0.843   9.797  0.3706  0.3143 -0.4027
  106OSM    H9T10814   6.903   0.853   9.812  0.2615  0.3491 -0.4296
  106OSM   C10S10815   6.811   1.027   9.707  0.6400  0.1886 -0.2415
  106OSM   H10S10816   6.907   1.084   9.710  0.3888  0.6205 -0.3005
  106OSM   H10T10817   6.727   1.100   9.711 -0.3497 -0.9591  0.5706
  106OSM   C11S10818   6.807   0.965   9.565 -0.7542  0.2782  0.0182
  106OSM   H11S10819   6.707   0.920   9.543 -0.4920 -0.6183  0.5955
  106OSM   H11T10820   6.880   0.881   9.564 -0.4229  0.5504  0.6837
  106OSM   C12S10821   6.849   1.054   9.448  0.7777  0.3091 -0.4276
  106OSM   H12S10822   6.946   1.108   9.458 -1.2538  4.2177  0.1181
  106OSM   H12T10823   6.773   1.135   9.452  0.4506 -0.0355  0.7592
  106OSM   C13S10824   6.838   0.991   9.308  0.1886  0.2514  0.3981
  106OSM   H13S10825   6.738   0.952   9.281  1.1457 -1.4376 -0.9391
  106OSM   H13T10826   6.911   0.911   9.282  0.5654  0.1448  1.7234
  106OSM   C14S10827   6.860   1.100   9.196 -0.1390  0.7003  0.3514
  106OSM   H14S10828   6.964   1.136   9.207 -0.0157  0.1908  0.8921
  106OSM   H14T10829   6.792   1.185   9.217 -3.1019 -1.7866  1.6962
  106OSM   C15S10830   6.837   1.044   9.053  0.0815 -0.1302  0.2913
  106OSM   H15S10831   6.841   1.136   8.991 -0.4763  0.4040  1.0374
  106OSM   H15T10832   6.730   1.015   9.040 -0.3526  0.6982  1.7686
  106OSM   C16S10833   6.927   0.932   9.003 -0.2735 -0.1813  0.5665
  106OSM   H16S10834   6.877   0.834   9.012  2.2948 -1.4190  3.0684
  106OSM   H16T10835   7.013   0.912   9.072  0.5030 -1.4792 -0.7264
  106OSM   C17S10836   6.958   0.948   8.855  0.0456 -0.4179 -0.2431
  106OSM   H17S10837   7.010   1.047   8.853  0.9474 -0.8700  0.3991
  106OSM   H17T10838   6.869   0.952   8.789  1.2955  1.0116 -1.9457
  106OSM   C18S10839   7.052   0.834   8.799 -0.6288  0.7193 -0.2734
  106OSM   H18S10840   7.148   0.824   8.855  0.7391 -1.9227 -2.7870
  106OSM   H18T10841   7.088   0.854   8.696  1.3989 -2.0865 -0.2263
  106OSM   H18U10842   7.010   0.731   8.801 -0.3935  0.6281  1.0840
  106OSM    C1F10843   6.629   0.197  10.187  0.6312  0.4042 -0.3049
  106OSM     OF10844   6.507   0.181  10.167 -1.0356  0.0748  0.0977
  106OSM    C2F10845   6.733   0.102  10.141  0.0227  0.1663 -0.7759
  106OSM    H2F10846   6.717   0.006  10.195  1.4308  0.4802  0.2503
  106OSM    H2G10847   6.834   0.124  10.182  0.1573 -0.7474 -0.5999
  106OSM    C3F10848   6.734   0.086   9.991  0.4031 -0.5491  0.4995
  106OSM    H3F10849   6.744   0.182   9.935 -1.1746 -1.4043 -1.3465
  106OSM    H3G10850   6.643   0.044   9.945  0.2005 -0.4462  0.8045
  106OSM    C4F10851   6.855  -0.008   9.946  0.1901  0.0288 -1.0235
  106OSM    H4F10852   6.817  -0.113   9.946 -2.4117  0.8722  1.0881
  106OSM    H4G10853   6.930   0.004  10.027 -0.8166 -0.5066  0.0214
  106OSM    C5F10854   6.926   0.019   9.811  0.0112  0.0633  0.1532
  106OSM    H5F10855   7.022  -0.038   9.810 -1.3254 -2.3194  0.7408
  106OSM    H5G10856   6.951   0.127   9.814 -0.3340  0.1611 -0.4360
  106OSM    C6F10857   6.844   0.004   9.684  0.0460  0.4637  0.2402
  106OSM    H6F10858   6.750   0.063   9.688 -0.3568  0.1271 -2.1779
  106OSM    H6G10859   6.823  -0.105   9.677 -0.9216  0.6723 -0.3309
  106OSM    C7F10860   6.929   0.067   9.562  0.7415 -0.4696 -0.0641
  106OSM    H7F10861   7.025   0.012   9.551  0.1843 -1.3874 -0.4025
  106OSM    H7G10862   6.940   0.175   9.587  0.4507 -0.6950  1.0967
  106OSM    C8F10863   6.845   0.062   9.429  0.1546  0.7440  0.4246
  106OSM    H8F10864   6.755   0.127   9.432 -0.4198  0.1455 -1.7595
  106OSM    H8G10865   6.811  -0.043   9.427 -0.3556  0.8803  1.3362
  106OSM    C9F10866   6.929   0.099   9.301  0.6046  0.2796 -0.7540
  106OSM    H9F10867   6.966   0.202   9.309 -0.8650  0.7034  2.9632
  106OSM   C10F10868   6.974   0.007   9.211  0.3170 -0.3505 -0.2963
  106OSM   H10F10869   7.054   0.044   9.146  0.6450 -0.2125  0.1851
  106OSM   C11F10870   6.939  -0.134   9.216 -0.3887 -0.0699 -0.0251
  106OSM   H11F10871   6.833  -0.155   9.240 -0.5349 -1.4312 -1.6797
  106OSM   H11G10872   7.004  -0.191   9.286  0.6644 -0.7539 -1.4952
  106OSM   C12F10873   6.980  -0.189   9.079  0.2306  0.2835  0.6802
  106OSM   H12F10874   6.930  -0.146   8.989  1.3167 -0.2239 -0.1934
  106OSM   H12G10875   6.941  -0.293   9.083  0.8808 -0.0438 -0.6774
  106OSM   C13F10876   7.130  -0.201   9.049 -0.6702 -0.7669 -0.0226
  106OSM   H13F10877   7.183  -0.209   9.146  0.5946 -2.1602 -0.7992
  106OSM   H13G10878   7.159  -0.101   9.010 -1.6798  0.0752  1.2955
  106OSM   C14F10879   7.169  -0.321   8.967  0.3679 -0.2971 -0.6592
  106OSM   H14F10880   7.105  -0.324   8.876 -0.3865  0.8333 -0.1924
  106OSM   H14G10881   7.162  -0.420   9.018  2.4854  0.4019  1.0986
  106OSM   C15F10882   7.315  -0.331   8.928  0.7867 -0.4137 -0.0874
  106OSM   H15F10883   7.386  -0.320   9.013 -0.1684  0.6819  0.6077
  106OSM   H15G10884   7.339  -0.255   8.851  0.4890 -0.8420 -0.6042
  106OSM   C16F10885   7.343  -0.470   8.862  0.3473 -0.6098 -0.6085
  106OSM   H16F10886   7.417  -0.459   8.781  0.3749  1.4086 -0.3615
  106OSM   H16G10887   7.247  -0.505   8.819 -0.8483 -0.5956  1.8582
  106OSM   C17F10888   7.372  -0.580   8.968  0.5651 -0.6988  0.9288
  106OSM   H17F10889   7.337  -0.547   9.069 -2.5807 -3.1837  0.7871
  106OSM   H17G10890   7.481  -0.602   8.965  0.4663 -1.0948  0.2065
  106OSM   C18F10891   7.293  -0.713   8.936 -0.5544 -0.3364 -0.3074
  106OSM   H18F10892   7.183  -0.705   8.953 -0.5464 -1.1676  0.1746
  106OSM   H18G10893   7.330  -0.784   9.013 -1.3736 -0.3978  0.0435
  106OSM   H18H10894   7.313  -0.739   8.830 -0.5334 -1.6383  0.0079
  107OSM      N10895   3.552   4.934  11.076  0.4422 -0.0035 -0.3129
  107OSM    C1510896   3.405   4.941  11.113 -0.7016 -0.0475  0.7033
  107OSM   H15A10897   3.377   5.044  11.093  0.0328  0.4195  1.9779
  107OSM   H15B10898   3.377   4.918  11.215  1.8822 -1.0217  1.2798
  107OSM   H15C10899   3.359   4.869  11.048  1.5719 -0.9111 -0.0336
  107OSM    C1410900   3.626   5.026  11.165  0.2904 -0.1471 -0.2077
  107OSM   H14A10901   3.610   5.010  11.271  1.1736  1.9254  0.2810
  107OSM   H14B10902   3.593   5.127  11.147 -2.5276 -1.1650 -1.3341
  107OSM   H14C10903   3.731   5.028  11.141  0.3434  0.8193  0.0735
  107OSM    C1310904   3.591   4.796  11.111 -0.1621 -0.4106  0.4481
  107OSM   H13A10905   3.507   4.732  11.091  1.3883 -2.8478  1.2486
  107OSM   H13B10906   3.607   4.775  11.216 -3.2610 -1.6823  0.7723
  107OSM   H13C10907   3.671   4.766  11.045  0.1230  2.1680 -0.5071
  107OSM    C1210908   3.580   4.972  10.920 -0.4453  0.5672 -0.0984
  107OSM   H12A10909   3.532   4.899  10.855  1.5094 -1.0281  0.1374
  107OSM   H12B10910   3.685   4.955  10.905 -0.6046 -1.7587  0.9468
  107OSM    C1110911   3.538   5.107  10.863 -0.0486 -0.0418 -0.3838
  107OSM   H11A10912   3.565   5.122  10.756 -0.6984 -1.4599 -0.7760
  107OSM   H11B10913   3.591   5.185  10.921 -0.6748 -1.2192  1.9128
  107OSM      P10914   3.293   5.060  10.765  0.2327 -0.4435  0.0385
  107OSM    O1310915   3.179   5.013  10.837  0.3683 -1.0646  0.1420
  107OSM    O1410916   3.277   5.166  10.665 -0.1291  0.8237 -0.4857
  107OSM    O1110917   3.366   4.938  10.695  0.0973 -0.5924  0.3866
  107OSM    O1210918   3.394   5.113  10.884  0.2787 -0.0485  0.1227
  107OSM    C1S10919   3.287   4.860  10.595 -1.0681  0.8342 -0.2441
  107OSM    H1S10920   3.179   4.848  10.617 -1.0504 -1.3690 -1.1224
  107OSM    H1T10921   3.322   4.756  10.608  2.8766  2.0394  0.1171
  107OSM     NF10922   3.192   4.841  10.364  0.5877 -0.2501  0.6541
  107OSM    HNF10923   3.226   4.779  10.294  1.7696 -1.4828  2.2397
  107OSM    C2S10924   3.289   4.916  10.451  0.6448  0.4038 -0.0650
  107OSM    H2S10925   3.250   5.020  10.456 -0.2310  0.0841  4.4322
  107OSM    C3S10926   3.433   4.919  10.401  0.3590 -0.1020 -0.5546
  107OSM    H3S10927   3.472   4.816  10.410 -0.7783 -0.3237  4.3886
  107OSM     O310928   3.514   5.000  10.486 -0.5911  0.3399  0.5474
  107OSM    HO310929   3.469   5.013  10.570 -2.4001  1.1159 -0.4912
  107OSM    C4S10930   3.431   4.970  10.260  0.1875 -0.4598 -1.0885
  107OSM    H4S10931   3.429   5.080  10.263 -0.3360 -0.4737 -0.7853
  107OSM    C5S10932   3.450   4.896  10.148  0.4641  0.0339 -0.0709
  107OSM    H5S10933   3.471   4.788  10.156 -2.5128 -0.7142 -1.2782
  107OSM    C6S10934   3.451   4.948  10.005 -0.0137 -0.1641  0.0857
  107OSM    H6S10935   3.554   4.948   9.962 -0.4881  0.7060 -1.1091
  107OSM    H6T10936   3.423   5.056  10.008 -3.1109 -0.7156 -2.9539
  107OSM    C7S10937   3.337   4.877   9.932  0.0306  0.0456 -0.5330
  107OSM    H7S10938   3.235   4.896   9.971 -0.2074 -1.4858 -0.3334
  107OSM    H7T10939   3.357   4.768   9.938 -1.6551 -0.2153  1.0605
  107OSM    C8S10940   3.327   4.912   9.785 -0.6994  0.4896 -0.0344
  107OSM    H8S10941   3.427   4.887   9.744 -0.5008  0.2458  0.5848
  107OSM    H8T10942   3.306   5.019   9.762 -2.1922 -0.1790 -2.0044
  107OSM    C9S10943   3.226   4.834   9.704  0.2727 -0.2569  0.6752
  107OSM    H9S10944   3.126   4.842   9.751 -0.8277  3.1659 -1.7924
  107OSM    H9T10945   3.260   4.728   9.709  1.9053  0.0883 -1.3300
  107OSM   C10S10946   3.210   4.890   9.565 -0.3090 -0.7797  0.2699
  107OSM   H10S10947   3.153   4.983   9.586 -0.1422 -0.7588  0.6578
  107OSM   H10T10948   3.140   4.823   9.512 -0.6146 -0.8442  0.7525
  107OSM   C11S10949   3.332   4.918   9.475 -0.9933 -0.1093  0.0716
  107OSM   H11S10950   3.391   4.824   9.464  0.8126  0.7665  1.5935
  107OSM   H11T10951   3.401   4.994   9.517  0.3801 -0.0599 -2.1147
  107OSM   C12S10952   3.305   4.963   9.338  0.4125 -0.3202  0.9586
  107OSM   H12S10953   3.274   5.069   9.347  0.1454 -0.2684 -0.4507
  107OSM   H12T10954   3.228   4.896   9.295  0.5458 -1.2355  2.1076
  107OSM   C13S10955   3.432   4.979   9.249 -1.2843 -0.1606  0.1366
  107OSM   H13S10956   3.526   4.924   9.270 -0.2639  1.0150 -1.1522
  107OSM   H13T10957   3.458   5.086   9.264  3.0073 -0.7457 -1.6926
  107OSM   C14S10958   3.402   4.962   9.102  0.2703 -0.3157  0.2531
  107OSM   H14S10959   3.303   5.004   9.075 -0.4014 -2.7442 -1.3858
  107OSM   H14T10960   3.386   4.854   9.080  1.1054 -0.1657 -1.2268
  107OSM   C15S10961   3.512   5.016   9.005  0.8223 -0.4273  0.4433
  107OSM   H15S10962   3.607   4.972   9.043  1.3601 -1.6688 -2.0998
  107OSM   H15T10963   3.524   5.126   9.013 -1.1079 -0.2924  2.4862
  107OSM   C16S10964   3.503   4.972   8.859 -0.0898  0.1937  0.1915
  107OSM   H16S10965   3.413   5.011   8.808 -1.3805 -4.7169 -1.8732
  107OSM   H16T10966   3.487   4.863   8.869  3.4346 -0.5084 -0.3672
  107OSM   C17S10967   3.645   4.993   8.779  0.4700  0.8597 -0.4796
  107OSM   H17S10968   3.622   4.941   8.683  0.8309  1.0327 -0.6614
  107OSM   H17T10969   3.729   4.946   8.835 -0.9088 -0.7942  0.2741
  107OSM   C18S10970   3.689   5.135   8.744  0.1411  0.1945 -0.1102
  107OSM   H18S10971   3.730   5.121   8.642  0.5113  0.9115 -0.0605
  107OSM   H18T10972   3.756   5.180   8.821  0.8183 -2.5032  1.0067
  107OSM   H18U10973   3.597   5.195   8.731  0.2187  0.0112 -1.6267
  107OSM    C1F10974   3.061   4.851  10.379  0.2399 -0.3586 -0.1538
  107OSM     OF10975   3.016   4.935  10.457  0.1598  0.1271 -0.2068
  107OSM    C2F10976   2.970   4.762  10.306  0.3611 -0.2442  0.4787
  107OSM    H2F10977   2.927   4.686  10.375 -3.6877  0.5760 -0.8973
  107OSM    H2G10978   3.028   4.726  10.218 -0.0214  2.5425 -1.0285
  107OSM    C3F10979   2.846   4.831  10.246 -0.0254 -0.5244  0.3402
  107OSM    H3F10980   2.803   4.905  10.318  1.8674 -0.1057  1.0970
  107OSM    H3G10981   2.769   4.754  10.223 -0.1299 -0.6486  1.0705
  107OSM    C4F10982   2.891   4.899  10.112  1.1351  0.3356 -0.6497
  107OSM    H4F10983   2.863   4.816  10.044 -2.3344 -0.0969  1.0840
  107OSM    H4G10984   3.002   4.907  10.114  1.3716 -1.9794 -1.5500
  107OSM    C5F10985   2.813   5.025  10.073 -0.3622 -0.0908 -0.1383
  107OSM    H5F10986   2.834   5.100  10.153 -2.7556 -1.0243  1.4762
  107OSM    H5G10987   2.703   5.012  10.073 -0.3540 -0.1553 -0.2069
  107OSM    C6F10988   2.841   5.079   9.937 -0.0450 -0.6169  0.4395
  107OSM    H6F10989   2.828   5.002   9.857 -2.6546 -0.2753  0.4594
  107OSM    H6G10990   2.950   5.099   9.926  0.5881 -2.2237  3.0004
  107OSM    C7F10991   2.760   5.205   9.923  0.0856 -0.2147  0.2549
  107OSM    H7F10992   2.776   5.269  10.012 -1.6699  0.9120 -0.1931
  107OSM    H7G10993   2.654   5.173   9.927  0.4972 -1.5100  1.9894
  107OSM    C8F10994   2.777   5.296   9.796  0.3596 -0.3864 -0.0073
  107OSM    H8F10995   2.878   5.341   9.780  0.0766 -0.1981 -1.3578
  107OSM    H8G10996   2.725   5.394   9.808  0.4744 -0.5103  1.7357
  107OSM    C9F10997   2.723   5.230   9.671  0.8364  0.2334 -0.4696
  107OSM    H9F10998   2.667   5.136   9.684  1.5681 -0.1204  0.2148
  107OSM   C10F10999   2.751   5.274   9.543 -0.2038 -0.9389 -0.2127
  107OSM   H10F11000   2.718   5.213   9.457  1.7721  1.4500 -2.8431
  107OSM   C11F11001   2.843   5.385   9.507 -0.4588  0.8557  0.5442
  107OSM   H11F11002   2.901   5.416   9.596 -0.2249  0.0438  0.6775
  107OSM   H11G11003   2.800   5.476   9.460  0.5632  1.1031  0.0559
  107OSM   C12F11004   2.954   5.325   9.402  0.7343 -0.2069  0.1439
  107OSM   H12F11005   3.001   5.228   9.428 -1.2170 -0.7865  1.7917
  107OSM   H12G11006   3.040   5.396   9.401  2.1612 -1.8577 -0.6323
  107OSM   C13F11007   2.906   5.310   9.256  0.0902 -0.5788 -0.0085
  107OSM   H13F11008   2.848   5.401   9.228 -0.4745 -1.6336 -2.6440
  107OSM   H13G11009   2.833   5.226   9.254 -1.4327  0.7143  0.0614
  107OSM   C14F11010   3.024   5.294   9.155 -0.1100  0.0578  0.4232
  107OSM   H14F11011   3.115   5.335   9.202  0.0995  2.1386 -1.6102
  107OSM   H14G11012   3.003   5.357   9.066 -2.2814  2.1883  2.2974
  107OSM   C15F11013   3.048   5.143   9.117 -0.7136 -0.3386  0.3631
  107OSM   H15F11014   3.045   5.093   9.216 -1.4182  0.7124  0.8949
  107OSM   H15G11015   3.151   5.146   9.074 -0.7437 -2.2241  0.1088
  107OSM   C16F11016   2.938   5.089   9.026 -0.5788 -0.7671  0.5194
  107OSM   H16F11017   2.912   5.164   8.948 -0.9399 -1.1303  0.2852
  107OSM   H16G11018   2.851   5.085   9.095  0.9918  2.4829  2.9764
  107OSM   C17F11019   2.958   4.950   8.969 -0.0159  0.4168 -0.1854
  107OSM   H17F11020   2.949   4.877   9.052  0.3732 -1.9329 -2.0914
  107OSM   H17G11021   3.063   4.946   8.932  0.1743 -0.7024  0.4310
  107OSM   C18F11022   2.857   4.900   8.869  0.4044 -0.3366  0.1048
  107OSM   H18F11023   2.863   4.962   8.777 -1.2384 -2.3896 -1.4632
  107OSM   H18G11024   2.755   4.917   8.908  0.3095 -1.9580  0.6437
  107OSM   H18H11025   2.877   4.792   8.852  1.1195 -1.0336  4.1741
  108OSM      N11026   0.404   5.220  10.929  0.2877  0.4525 -0.0754
  108OSM    C1511027   0.402   5.174  11.074 -0.7070  1.1403  0.3428
  108OSM   H15A11028   0.299   5.141  11.083 -0.4674  0.2490 -0.0730
  108OSM   H15B11029   0.415   5.251  11.148  1.1258  1.9585 -0.7575
  108OSM   H15C11030   0.462   5.087  11.098 -5.0008 -1.7565  1.8615
  108OSM    C1411031   0.319   5.337  10.929  0.5065  0.1403 -0.3592
  108OSM   H14A11032   0.351   5.402  11.010  0.8004  1.3887 -1.4309
  108OSM   H14B11033   0.217   5.305  10.941 -0.2102  1.3963 -2.5620
  108OSM   H14C11034   0.318   5.389  10.834  0.9172 -1.4913 -1.2771
  108OSM    C1311035   0.539   5.266  10.898  0.7188 -1.0686 -0.3494
  108OSM   H13A11036   0.562   5.310  10.802  1.6902 -0.3737  0.1905
  108OSM   H13B11037   0.613   5.192  10.922 -0.0039 -1.4793  0.6982
  108OSM   H13C11038   0.557   5.357  10.954  3.6424 -1.3067 -0.7675
  108OSM    C1211039   0.357   5.115  10.833  0.2091 -0.8009  0.1237
  108OSM   H12A11040   0.426   5.032  10.827  0.5735 -0.6006  1.3765
  108OSM   H12B11041   0.339   5.159  10.736  1.6243  0.4110  0.3838
  108OSM    C1111042   0.222   5.051  10.870 -0.0571  0.0694 -0.2431
  108OSM   H11A11043   0.213   5.005  10.971  0.3190  1.1671  0.3079
  108OSM   H11B11044   0.220   4.971  10.794  0.9180 -0.9348  0.7633
  108OSM      P11045   0.063   5.204  10.717  0.0478 -0.2434  0.1280
  108OSM    O1311046  -0.077   5.188  10.711  0.0911  0.0546  0.0814
  108OSM    O1411047   0.108   5.340  10.707 -0.3919 -0.7137  0.1837
  108OSM    O1111048   0.127   5.119  10.603  0.3176 -0.0227  0.7352
  108OSM    O1211049   0.116   5.140  10.853 -0.2443  0.2997 -0.3488
  108OSM    C1S11050   0.088   4.995  10.552 -0.3860  0.4825  1.6260
  108OSM    H1S11051  -0.023   4.997  10.551 -0.4292 -0.7515  0.4939
  108OSM    H1T11052   0.117   4.909  10.616 -0.6216 -2.0628 -1.4186
  108OSM     NF11053   0.099   4.832  10.354 -0.4414 -0.1709  0.4884
  108OSM    HNF11054   0.176   4.770  10.343 -0.0824  0.7231 -3.3865
  108OSM    C2S11055   0.151   4.962  10.409 -0.3161  0.6472 -0.2870
  108OSM    H2S11056   0.114   5.036  10.335 -0.6353  0.4916 -0.2824
  108OSM    C3S11057   0.305   4.966  10.403  0.0578  0.0452 -0.4173
  108OSM    H3S11058   0.346   4.880  10.459  0.4039  1.1091  1.0104
  108OSM     O311059   0.351   5.088  10.468 -0.0896  0.1471 -0.4288
  108OSM    HO311060   0.271   5.121  10.509  0.2972 -1.8058  2.2019
  108OSM    C4S11061   0.346   4.971  10.262  0.4679 -0.2894 -0.4756
  108OSM    H4S11062   0.320   5.071  10.224 -0.8829 -0.0639  0.9516
  108OSM    C5S11063   0.396   4.861  10.194  0.1726  0.0553  0.7301
  108OSM    H5S11064   0.410   4.769  10.253 -0.6699  0.3069  1.3375
  108OSM    C6S11065   0.424   4.853  10.046  0.4858  0.2472  0.5679
  108OSM    H6S11066   0.371   4.762  10.011  3.6731 -1.4698 -0.2350
  108OSM    H6T11067   0.529   4.830  10.019  0.5791  0.3266  0.8657
  108OSM    C7S11068   0.391   4.971   9.947  0.4017 -0.3493 -0.6915
  108OSM    H7S11069   0.440   5.062   9.987 -0.7470  0.5344 -1.2458
  108OSM    H7T11070   0.283   4.996   9.943  0.2007 -1.2254 -0.9755
  108OSM    C8S11071   0.425   4.946   9.803 -0.7612  0.3179 -1.2902
  108OSM    H8S11072   0.354   4.868   9.767 -0.6247 -0.2540 -0.3487
  108OSM    H8T11073   0.524   4.897   9.809 -0.7371  0.5778  1.7400
  108OSM    C9S11074   0.432   5.070   9.709 -0.9050  0.0913 -0.4543
  108OSM    H9S11075   0.504   5.148   9.742  0.2829 -1.2077  0.1303
  108OSM    H9T11076   0.329   5.111   9.696 -0.9155 -0.1468 -1.1995
  108OSM   C10S11077   0.464   5.022   9.567 -0.4196  0.3310 -0.2853
  108OSM   H10S11078   0.398   4.934   9.550 -1.0412  0.4784  1.1694
  108OSM   H10T11079   0.566   4.981   9.581  1.4473  3.5276 -3.1278
  108OSM   C11S11080   0.462   5.133   9.463  0.0792  0.0114 -0.0911
  108OSM   H11S11081   0.539   5.205   9.498  1.5491 -2.2452  1.6073
  108OSM   H11T11082   0.363   5.181   9.452 -0.5659 -1.7028 -3.0660
  108OSM   C12S11083   0.506   5.080   9.320 -0.4452  0.1360 -0.1481
  108OSM   H12S11084   0.446   4.989   9.300 -0.7649  0.1678  0.6229
  108OSM   H12T11085   0.611   5.044   9.326 -1.0093 -2.2853 -2.8759
  108OSM   C13S11086   0.496   5.182   9.211  0.0041  0.5531 -0.0475
  108OSM   H13S11087   0.537   5.283   9.232  0.9606  0.7188 -2.4635
  108OSM   H13T11088   0.387   5.197   9.198 -0.4807 -0.1530  2.5742
  108OSM   C14S11089   0.564   5.119   9.080 -0.6396  0.0192 -0.2657
  108OSM   H14S11090   0.522   5.021   9.048  3.5398 -1.8444 -0.8142
  108OSM   H14T11091   0.666   5.085   9.112 -0.2614 -1.6120 -2.9196
  108OSM   C15S11092   0.566   5.210   8.961  0.6734  0.0875 -0.2294
  108OSM   H15S11093   0.634   5.177   8.879 -0.7730  1.7469 -2.2078
  108OSM   H15T11094   0.612   5.309   8.986 -0.3285  1.1686 -2.3903
  108OSM   C16S11095   0.421   5.221   8.901  1.2444  0.7626 -0.1180
  108OSM   H16S11096   0.365   5.293   8.964  0.8013  0.3749 -0.0646
  108OSM   H16T11097   0.375   5.120   8.898  1.9289  0.4593 -1.9507
  108OSM   C17S11098   0.425   5.276   8.757  0.0782  0.1110 -0.1509
  108OSM   H17S11099   0.473   5.202   8.690 -0.3381  0.1433 -0.4911
  108OSM   H17T11100   0.494   5.363   8.767  0.5017 -0.0747 -1.2721
  108OSM   C18S11101   0.289   5.324   8.700  0.0471 -0.0182 -0.0226
  108OSM   H18S11102   0.310   5.381   8.607  1.1590 -0.3502  0.0120
  108OSM   H18T11103   0.232   5.387   8.772  0.3046  2.4269 -1.8153
  108OSM   H18U11104   0.230   5.231   8.686  0.5054 -0.8197  2.7838
  108OSM    C1F11105  -0.024   4.806  10.326 -0.3979 -0.4924  0.4543
  108OSM     OF11106  -0.113   4.886  10.346  0.1595 -0.1324 -0.1919
  108OSM    C2F11107  -0.053   4.678  10.260 -1.0724 -0.5745 -0.1938
  108OSM    H2F11108  -0.083   4.611  10.344  1.5786  1.8830  3.0348
  108OSM    H2G11109   0.043   4.637  10.222 -0.5964  0.5693 -0.2553
  108OSM    C3F11110  -0.167   4.683  10.158 -0.8045 -0.3473  0.3763
  108OSM    H3F11111  -0.241   4.763  10.177 -1.5969 -0.4071 -2.1290
  108OSM    H3G11112  -0.229   4.591  10.166 -1.4049  0.1339  1.5411
  108OSM    C4F11113  -0.122   4.676  10.012  0.4428  0.5938 -0.4552
  108OSM    H4F11114  -0.212   4.653   9.951  0.9402 -2.0531 -0.3041
  108OSM    H4G11115  -0.053   4.590  10.000 -1.7013 -1.2763  0.0515
  108OSM    C5F11116  -0.063   4.800   9.959  0.1215  0.1372  0.0618
  108OSM    H5F11117   0.038   4.821  10.001  0.2516 -0.6188  0.1389
  108OSM    H5G11118  -0.132   4.885   9.980  0.4663 -0.0449  2.2025
  108OSM    C6F11119  -0.047   4.804   9.808  0.0084 -0.1278 -0.5594
  108OSM    H6F11120  -0.148   4.814   9.762 -0.4556  0.1706  0.4776
  108OSM    H6G11121  -0.008   4.705   9.775  0.0288 -0.1064 -0.5978
  108OSM    C7F11122   0.038   4.912   9.738 -0.4105 -0.7457 -0.0287
  108OSM    H7F11123   0.144   4.904   9.773 -0.4363 -1.5472 -0.1069
  108OSM    H7G11124   0.013   5.019   9.748 -0.5326 -0.3739 -3.2743
  108OSM    C8F11125   0.046   4.878   9.585  0.1439 -1.0419  0.0663
  108OSM    H8F11126   0.099   4.780   9.585 -0.7432 -1.6333  3.3708
  108OSM    H8G11127   0.116   4.940   9.524 -1.2082  0.8040  0.3214
  108OSM    C9F11128  -0.084   4.877   9.519  0.5419  0.2792 -0.7759
  108OSM    H9F11129  -0.168   4.904   9.585  1.3389 -0.2376  0.4990
  108OSM   C10F11130  -0.097   4.830   9.392 -0.1936  0.7721 -0.5177
  108OSM   H10F11131  -0.200   4.826   9.352 -0.9896  1.2033  1.3611
  108OSM   C11F11132   0.009   4.773   9.307 -0.4406  0.3286 -0.5632
  108OSM   H11F11133  -0.031   4.687   9.249  1.1201 -0.0446 -1.1493
  108OSM   H11G11134   0.088   4.722   9.366 -0.3824 -0.4851 -1.3183
  108OSM   C12F11135   0.081   4.874   9.220 -0.1804 -0.0554 -0.2349
  108OSM   H12F11136   0.115   4.956   9.287  1.5821  0.5095 -1.7347
  108OSM   H12G11137   0.012   4.930   9.152 -0.1423  1.0129  0.5809
  108OSM   C13F11138   0.189   4.798   9.138  0.6659  0.2817 -0.7990
  108OSM   H13F11139   0.154   4.696   9.112 -0.0847  0.6147 -1.1213
  108OSM   H13G11140   0.276   4.791   9.206 -0.2182  0.1755  0.3642
  108OSM   C14F11141   0.227   4.874   9.011  0.3501 -0.6089  0.0483
  108OSM   H14F11142   0.263   4.977   9.030  1.5847 -1.0977  0.4920
  108OSM   H14G11143   0.137   4.891   8.949  0.9001 -1.8669 -1.1493
  108OSM   C15F11144   0.343   4.808   8.933  0.3396 -0.2470  0.3360
  108OSM   H15F11145   0.436   4.832   8.988 -0.7389  1.0626  1.6844
  108OSM   H15G11146   0.334   4.850   8.831 -1.6233  0.0161  0.5768
  108OSM   C16F11147   0.332   4.660   8.915 -0.3511  0.6376  0.1205
  108OSM   H16F11148   0.230   4.644   8.873 -0.8546  1.8935  0.8012
  108OSM   H16G11149   0.339   4.605   9.011 -1.2186  2.6964  1.4361
  108OSM   C17F11150   0.432   4.597   8.818 -0.1193 -0.1041  0.0666
  108OSM   H17F11151   0.400   4.629   8.717 -2.0178  0.2066  0.7284
  108OSM   H17G11152   0.431   4.486   8.821 -0.5381 -0.2287 -2.3092
  108OSM   C18F11153   0.577   4.646   8.829  0.0328 -0.4370  0.4958
  108OSM   H18F11154   0.636   4.598   8.747 -0.3566 -0.1114  0.0218
  108OSM   H18G11155   0.625   4.635   8.929  2.7787 -1.1324 -0.7956
  108OSM   H18H11156   0.572   4.755   8.807 -0.9938 -0.4913  0.4381
  109OSM      N11157   4.752   3.685  11.135 -0.2013  0.1663 -0.0133
  109OSM    C1511158   4.620   3.683  11.190 -0.5275 -0.3764 -0.3075
  109OSM   H15A11159   4.549   3.734  11.125 -0.4895 -0.3186 -0.3032
  109OSM   H15B11160   4.611   3.728  11.288 -0.1917  0.3524 -0.6049
  109OSM   H15C11161   4.590   3.581  11.211  1.6305 -0.8827  0.5182
  109OSM    C1411162   4.808   3.816  11.173  0.1598  0.3727  0.7273
  109OSM   H14A11163   4.831   3.810  11.278 -2.3538 -1.6444  1.2440
  109OSM   H14B11164   4.737   3.897  11.159  0.1197  0.0913 -0.8467
  109OSM   H14C11165   4.899   3.842  11.120  0.1218 -0.5936  0.1734
  109OSM    C1311166   4.841   3.592  11.212 -0.4965  0.4610 -0.0144
  109OSM   H13A11167   4.873   3.628  11.309  1.7427  0.3986 -0.6777
  109OSM   H13B11168   4.930   3.571  11.155 -0.3907  1.3505 -0.1924
  109OSM   H13C11169   4.796   3.494  11.221  0.7579 -0.6439 -4.0304
  109OSM    C1211170   4.747   3.666  10.980  0.2658 -0.4478  0.0222
  109OSM   H12A11171   4.703   3.573  10.949 -0.6522 -0.0111 -0.0399
  109OSM   H12B11172   4.848   3.669  10.944 -1.0589  0.6957 -4.2425
  109OSM    C1111173   4.685   3.782  10.892 -0.6371 -0.2748  0.0112
  109OSM   H11A11174   4.692   3.762  10.783 -1.8158  2.1732 -0.5989
  109OSM   H11B11175   4.747   3.873  10.907 -1.0621  0.0991 -0.4684
  109OSM      P11176   4.447   3.684  10.891 -0.0830 -0.7937 -0.1392
  109OSM    O1311177   4.514   3.561  10.848 -0.1418  0.3880 -0.0363
  109OSM    O1411178   4.345   3.675  10.999  0.3360 -0.3100 -0.4913
  109OSM    O1111179   4.374   3.736  10.757  0.0942 -0.1394 -0.1955
  109OSM    O1211180   4.546   3.810  10.919  0.3072 -0.4322 -0.3475
  109OSM    C1S11181   4.407   3.867  10.692  0.0440  0.0140 -0.1880
  109OSM    H1S11182   4.516   3.871  10.674 -0.0186  1.5966 -0.3261
  109OSM    H1T11183   4.377   3.953  10.756 -0.3006 -0.2344 -0.0108
  109OSM     NF11184   4.391   4.002  10.480 -0.0358  0.1786 -0.6832
  109OSM    HNF11185   4.345   4.089  10.464 -3.0630 -0.8079  1.4819
  109OSM    C2S11186   4.325   3.893  10.560  0.3450 -0.0864 -0.9342
  109OSM    H2S11187   4.315   3.803  10.496  1.1102 -0.8132 -0.0722
  109OSM    C3S11188   4.182   3.923  10.608 -0.0504 -0.3609 -0.4479
  109OSM    H3S11189   4.185   4.021  10.661  0.9964  0.8433 -2.6158
  109OSM     O311190   4.126   3.824  10.692  0.0321  0.2075 -0.2725
  109OSM    HO311191   4.201   3.767  10.714 -0.3202  0.3076  1.3352
  109OSM    C4S11192   4.093   3.943  10.493 -0.0856  0.8231  0.5521
  109OSM    H4S11193   4.062   3.848  10.447  0.3227  0.7721  0.3766
  109OSM    C5S11194   4.027   4.055  10.456  0.0403 -0.0011  0.2968
  109OSM    H5S11195   4.036   4.147  10.515  0.1901 -0.1351  0.4842
  109OSM    C6S11196   3.933   4.070  10.345 -0.3547 -0.3467 -0.2249
  109OSM    H6S11197   3.970   4.164  10.298 -0.8059 -0.3491 -0.5874
  109OSM    H6T11198   3.831   4.097  10.376  0.1646  2.1293 -0.5186
  109OSM    C7S11199   3.919   3.961  10.227  0.2908 -0.4554 -0.8260
  109OSM    H7S11200   3.834   3.993  10.162 -1.4965 -0.2664  1.4585
  109OSM    H7T11201   3.878   3.878  10.288 -0.7636  0.1639 -0.6616
  109OSM    C8S11202   4.043   3.924  10.139  0.1723 -0.4637  0.0907
  109OSM    H8S11203   4.027   3.821  10.102  1.3563  0.4462 -3.3696
  109OSM    H8T11204   4.134   3.906  10.201  1.3859  1.8144 -0.8847
  109OSM    C9S11205   4.087   4.014  10.023  0.3639  0.4673 -0.3731
  109OSM    H9S11206   4.145   4.099  10.065 -0.9036  1.1610  0.0346
  109OSM    H9T11207   4.000   4.053   9.966 -0.4627 -1.4804 -0.5192
  109OSM   C10S11208   4.177   3.939   9.927  0.0074 -0.1824  0.1968
  109OSM   H10S11209   4.117   3.851   9.896 -1.7414  0.7523  0.8233
  109OSM   H10T11210   4.277   3.907   9.966 -0.5848 -1.3794  0.8063
  109OSM   C11S11211   4.191   4.022   9.792  0.2130 -0.8609 -0.3051
  109OSM   H11S11212   4.263   4.107   9.798  1.3844 -1.8862  0.7159
  109OSM   H11T11213   4.092   4.067   9.768  1.4852  1.5983 -1.2761
  109OSM   C12S11214   4.229   3.940   9.660  0.1563  0.2510  0.5785
  109OSM   H12S11215   4.182   3.840   9.659 -0.4282  0.5097  1.3959
  109OSM   H12T11216   4.338   3.919   9.664 -0.1650 -1.3795  1.6326
  109OSM   C13S11217   4.193   4.022   9.535 -0.6455 -0.4185 -0.2217
  109OSM   H13S11218   4.250   4.117   9.536  2.4897 -2.1320 -1.3370
  109OSM   H13T11219   4.092   4.063   9.556 -0.5767 -0.9122  1.2349
  109OSM   C14S11220   4.212   3.952   9.399 -0.3175  0.7904 -0.2683
  109OSM   H14S11221   4.174   3.848   9.407 -0.7831  0.9297 -0.6734
  109OSM   H14T11222   4.321   3.942   9.379 -0.0048  2.0430  0.7045
  109OSM   C15S11223   4.150   4.012   9.270 -0.3931 -0.1935 -0.4975
  109OSM   H15S11224   4.198   4.112   9.260 -0.5808  0.2733  2.3347
  109OSM   H15T11225   4.044   4.027   9.301  0.5639  0.2667  3.0423
  109OSM   C16S11226   4.152   3.918   9.150 -0.1453  0.1002  0.2111
  109OSM   H16S11227   4.126   3.815   9.183  3.1529 -1.4059 -1.4040
  109OSM   H16T11228   4.256   3.908   9.113  0.0212  1.2294  0.3480
  109OSM   C17S11229   4.058   3.957   9.038 -0.6008 -0.5125  0.7131
  109OSM   H17S11230   4.034   4.065   9.044 -2.4005 -0.8406 -0.0693
  109OSM   H17T11231   3.966   3.896   9.049 -0.1370 -2.0371 -2.6240
  109OSM   C18S11232   4.124   3.913   8.906 -0.7253  0.2849  0.4507
  109OSM   H18S11233   4.181   3.818   8.920  2.0801  2.1036  2.3690
  109OSM   H18T11234   4.205   3.985   8.880  0.4848 -1.0387  0.4302
  109OSM   H18U11235   4.048   3.908   8.825 -0.1369 -1.3398 -0.0570
  109OSM    C1F11236   4.495   3.979  10.410  0.6138  0.2580  0.1673
  109OSM     OF11237   4.554   3.869  10.415 -0.4814 -0.0674 -0.2544
  109OSM    C2F11238   4.543   4.092  10.332  0.6453 -0.2197 -0.5951
  109OSM    H2F11239   4.606   4.154  10.399 -2.1538 -0.9346  2.9776
  109OSM    H2G11240   4.453   4.148  10.302  1.0222 -0.1305 -1.6007
  109OSM    C3F11241   4.610   4.056  10.200 -0.3078  0.6071 -0.7077
  109OSM    H3F11242   4.709   4.006  10.197 -0.7599 -0.5170  1.2334
  109OSM    H3G11243   4.617   4.150  10.141 -0.2277  0.7184 -0.5225
  109OSM    C4F11244   4.517   3.966  10.115  0.2038 -0.6807 -0.4372
  109OSM    H4F11245   4.414   4.003  10.095 -0.1352 -0.4919  1.4185
  109OSM    H4G11246   4.505   3.873  10.176  0.1299  0.7148  1.7833
  109OSM    C5F11247   4.564   3.925   9.978 -0.6021 -0.1767  0.3990
  109OSM    H5F11248   4.574   4.014   9.912  2.6915 -0.6841  0.0388
  109OSM    H5G11249   4.492   3.866   9.918 -0.5994 -2.1677  2.2696
  109OSM    C6F11250   4.705   3.850   9.979  0.0160 -0.0970  0.4542
  109OSM    H6F11251   4.703   3.758  10.040  2.0138 -0.2608  0.3336
  109OSM    H6G11252   4.793   3.907  10.018  0.3721  0.1830 -0.7108
  109OSM    C7F11253   4.750   3.803   9.835 -0.1173 -0.6373  0.1781
  109OSM    H7F11254   4.664   3.747   9.792  0.7429 -1.4604 -0.5380
  109OSM    H7G11255   4.837   3.736   9.851  1.6717  1.3988 -0.5374
  109OSM    C8F11256   4.798   3.917   9.739 -0.1843 -0.2869  0.2280
  109OSM    H8F11257   4.881   3.968   9.792  0.1348  0.8216 -1.2774
  109OSM    H8G11258   4.717   3.992   9.728 -0.9799 -1.0316  0.8334
  109OSM    C9F11259   4.839   3.869   9.603  0.1585  0.3423  0.0301
  109OSM    H9F11260   4.945   3.890   9.582  1.7886 -2.9472  3.6714
  109OSM   C10F11261   4.754   3.836   9.503  0.2840  0.6051 -0.3754
  109OSM   H10F11262   4.801   3.805   9.409 -0.5705 -1.0452 -0.2949
  109OSM   C11F11263   4.603   3.836   9.514  0.2370  0.2732  0.0747
  109OSM   H11F11264   4.563   3.863   9.413 -0.4388 -2.7582 -0.5709
  109OSM   H11G11265   4.567   3.915   9.583  3.4669  1.6071  0.4137
  109OSM   C12F11266   4.554   3.694   9.527  0.0280 -0.5124 -0.2763
  109OSM   H12F11267   4.444   3.697   9.546 -0.0536 -0.8538 -0.6761
  109OSM   H12G11268   4.597   3.634   9.610  2.0242  1.6903  0.3942
  109OSM   C13F11269   4.572   3.611   9.398  0.3211 -0.1524  0.0297
  109OSM   H13F11270   4.568   3.504   9.428 -0.6759 -0.1449 -0.0271
  109OSM   H13G11271   4.675   3.631   9.362  0.6721 -1.5134  0.2296
  109OSM   C14F11272   4.468   3.637   9.284 -0.3838  0.5624  0.0163
  109OSM   H14F11273   4.471   3.746   9.264  1.4461  0.2149 -2.0160
  109OSM   H14G11274   4.372   3.592   9.318 -0.9045  0.8697 -1.0053
  109OSM   C15F11275   4.486   3.545   9.158  0.7559  0.4940 -0.3023
  109OSM   H15F11276   4.389   3.534   9.105  1.0100 -1.7108 -0.3920
  109OSM   H15G11277   4.505   3.442   9.195 -0.1443  0.2595 -0.4675
  109OSM   C16F11278   4.598   3.577   9.075 -0.0315 -1.0537  0.2030
  109OSM   H16F11279   4.692   3.570   9.134 -0.8219  0.4153  1.6907
  109OSM   H16G11280   4.594   3.681   9.035 -0.2434 -2.2412 -3.2379
  109OSM   C17F11281   4.611   3.487   8.949 -0.5368  0.5083 -0.2432
  109OSM   H17F11282   4.504   3.473   8.921 -0.4978  0.4556 -0.3682
  109OSM   H17G11283   4.673   3.405   8.989 -0.8506 -0.8777 -2.4226
  109OSM   C18F11284   4.686   3.547   8.830 -0.1711  0.5343  0.0974
  109OSM   H18F11285   4.622   3.632   8.798 -5.5169 -2.1868  2.1649
  109OSM   H18G11286   4.697   3.470   8.751  1.1420 -0.2300  0.9813
  109OSM   H18H11287   4.790   3.577   8.855  0.5513 -0.3947 -1.6143
  110OSM      N11288   6.021   4.338  11.204 -0.0323  0.1561 -0.1234
  110OSM    C1511289   6.119   4.432  11.137 -0.0517  0.5036 -0.3943
  110OSM   H15A11290   6.129   4.389  11.039  2.8621 -0.6413  0.3043
  110OSM   H15B11291   6.208   4.460  11.193 -0.8009  2.1947  0.0232
  110OSM   H15C11292   6.071   4.527  11.121  0.1235  0.7959  0.7059
  110OSM    C1411293   6.080   4.200  11.216 -0.7129 -0.1616  0.2873
  110OSM   H14A11294   6.174   4.199  11.269 -1.3344  0.8867  1.4493
  110OSM   H14B11295   6.104   4.161  11.117  2.7082 -1.5910  1.4984
  110OSM   H14C11296   6.017   4.127  11.264 -0.7222  0.8105  1.7754
  110OSM    C1311297   5.990   4.397  11.336  0.4831 -0.0987  0.7698
  110OSM   H13A11298   5.961   4.501  11.338 -0.8402 -0.4756  1.8259
  110OSM   H13B11299   6.077   4.395  11.400  0.2832  0.7423  1.0888
  110OSM   H13C11300   5.911   4.351  11.392 -0.5525  0.6093 -0.0723
  110OSM    C1211301   5.892   4.326  11.120  0.3378  0.5398 -0.5406
  110OSM   H12A11302   5.848   4.424  11.131 -2.1114 -0.5772  0.4653
  110OSM   H12B11303   5.831   4.259  11.179  1.4444  0.8526  1.0359
  110OSM    C1111304   5.894   4.284  10.970 -0.5106  0.1204  0.9809
  110OSM   H11A11305   5.984   4.334  10.928 -0.0546 -1.7183 -0.3858
  110OSM   H11B11306   5.807   4.317  10.910  1.3592  1.1431 -1.3598
  110OSM      P11307   5.803   4.049  10.967  0.3331 -0.4989  0.0423
  110OSM    O1311308   5.834   3.927  11.048 -0.6342 -0.3214 -0.5454
  110OSM    O1411309   5.684   4.128  11.011 -0.3873  0.1861 -0.4864
  110OSM    O1111310   5.781   4.022  10.809 -0.1970  0.1174  0.2405
  110OSM    O1211311   5.929   4.144  10.972  0.0900 -0.7140  0.4908
  110OSM    C1S11312   5.902   4.046  10.732  0.6761 -0.8926  0.0891
  110OSM    H1S11313   5.959   3.952  10.746  1.2523 -0.6448 -0.5686
  110OSM    H1T11314   5.963   4.137  10.748 -0.4096 -0.0874 -0.2263
  110OSM     NF11315   5.978   4.075  10.510  0.0239 -0.0688 -0.1755
  110OSM    HNF11316   5.998   4.161  10.463 -1.4290  1.1551  1.3134
  110OSM    C2S11317   5.857   4.061  10.587 -0.0492  0.1990 -0.7762
  110OSM    H2S11318   5.808   3.968  10.550  0.4080  0.0771 -1.0786
  110OSM    C3S11319   5.747   4.169  10.570  0.3820  0.9728  0.0258
  110OSM    H3S11320   5.784   4.267  10.607  0.2103  1.5551 -1.3060
  110OSM     O311321   5.625   4.149  10.644 -0.1672  0.1271 -0.1264
  110OSM    HO311322   5.667   4.089  10.706 -0.0312 -2.5587 -2.6177
  110OSM    C4S11323   5.721   4.179  10.421  0.2862 -0.2886  0.0899
  110OSM    H4S11324   5.772   4.267  10.380  1.6381 -0.1799  1.8902
  110OSM    C5S11325   5.641   4.106  10.344 -0.5209 -0.3339 -0.3618
  110OSM    H5S11326   5.588   4.022  10.393 -0.5387 -0.7976 -1.1446
  110OSM    C6S11327   5.638   4.111  10.199 -0.0786 -0.4289 -0.2958
  110OSM    H6S11328   5.540   4.139  10.154  0.3401 -0.7247 -1.4100
  110OSM    H6T11329   5.666   4.012  10.159 -3.2451 -0.9725 -1.4865
  110OSM    C7S11330   5.726   4.211  10.119  0.5076  0.8274  0.0885
  110OSM    H7S11331   5.827   4.166  10.129  0.1957  0.2281  0.5950
  110OSM    H7T11332   5.738   4.317  10.150 -3.1279  1.0419  1.2365
  110OSM    C8S11333   5.696   4.204   9.965 -0.2602 -0.5748 -0.5177
  110OSM    H8S11334   5.590   4.238   9.970  0.0955  0.4907 -0.0829
  110OSM    H8T11335   5.692   4.100   9.924 -1.0905 -0.5713 -0.4597
  110OSM    C9S11336   5.793   4.290   9.877  0.0375 -0.2459 -0.0901
  110OSM    H9S11337   5.898   4.253   9.877 -0.2511 -1.1407  1.3669
  110OSM    H9T11338   5.802   4.389   9.926 -1.4709 -0.4093  0.5769
  110OSM   C10S11339   5.745   4.297   9.733  0.7328 -0.1428 -0.2472
  110OSM   H10S11340   5.647   4.349   9.735  0.7591 -0.0062 -1.5598
  110OSM   H10T11341   5.733   4.195   9.689 -0.4865  0.8126 -2.2521
  110OSM   C11S11342   5.831   4.385   9.646 -0.0401 -0.1568  0.8712
  110OSM   H11S11343   5.937   4.353   9.635 -0.2636 -1.7721  2.8830
  110OSM   H11T11344   5.828   4.491   9.677  1.2410  0.2725 -0.3423
  110OSM   C12S11345   5.774   4.395   9.502  0.2093  0.0438 -0.6548
  110OSM   H12S11346   5.806   4.494   9.463 -1.4021  1.4420  1.3279
  110OSM   H12T11347   5.664   4.407   9.492  0.1869  0.9925  0.5370
  110OSM   C13S11348   5.838   4.292   9.411 -0.2217  0.2082  0.8839
  110OSM   H13S11349   5.806   4.195   9.454  0.2681  0.4610  1.8534
  110OSM   H13T11350   5.946   4.306   9.434 -0.7890  1.4672  3.0373
  110OSM   C14S11351   5.800   4.305   9.260 -0.0839 -0.4825  0.7654
  110OSM   H14S11352   5.692   4.312   9.236 -0.0940  2.6483  1.2535
  110OSM   H14T11353   5.837   4.209   9.219  0.3844  0.7413 -1.8555
  110OSM   C15S11354   5.880   4.416   9.179  0.3623  0.3161  0.2469
  110OSM   H15S11355   5.987   4.406   9.205  0.2960 -1.6340 -0.0633
  110OSM   H15T11356   5.849   4.515   9.217 -0.6630 -0.0354  0.3632
  110OSM   C16S11357   5.869   4.415   9.025 -0.4966  0.4013 -0.3061
  110OSM   H16S11358   5.773   4.460   8.990 -0.6928 -0.9360 -1.6098
  110OSM   H16T11359   5.860   4.310   8.989 -1.3010  1.4905 -3.7234
  110OSM   C17S11360   5.982   4.485   8.955 -0.4553  0.4681 -1.1745
  110OSM   H17S11361   6.078   4.436   8.982 -0.6045  1.6996  2.0235
  110OSM   H17T11362   5.998   4.587   8.994  0.4162 -0.0311 -0.1684
  110OSM   C18S11363   5.963   4.482   8.806 -0.5084  0.0561 -0.5939
  110OSM   H18S11364   5.922   4.581   8.776  0.3048  0.4153 -0.5556
  110OSM   H18T11365   5.899   4.397   8.775 -1.2585 -0.1387  1.3357
  110OSM   H18U11366   6.066   4.470   8.764 -0.2053 -1.4303  0.5141
  110OSM    C1F11367   6.060   3.976  10.486  0.3150  0.3943  0.4177
  110OSM     OF11368   6.040   3.871  10.538 -0.5139  0.1979 -0.5201
  110OSM    C2F11369   6.177   4.000  10.399  0.0263  0.4426  0.5341
  110OSM    H2F11370   6.247   3.918  10.425 -1.8906 -1.8871 -1.2111
  110OSM    H2G11371   6.215   4.103  10.417 -2.0894  1.2117  0.8832
  110OSM    C3F11372   6.146   4.004  10.249  0.5987  0.4433  0.7557
  110OSM    H3F11373   6.110   4.106  10.226 -2.1660  0.0359  2.8076
  110OSM    H3G11374   6.065   3.930  10.231  0.2920  0.3438  2.3358
  110OSM    C4F11375   6.263   3.957  10.165  0.2695 -1.2436 -0.5251
  110OSM    H4F11376   6.331   3.888  10.220 -0.6967  0.0461  2.4663
  110OSM    H4G11377   6.318   4.050  10.137 -1.9080  0.7634  1.4671
  110OSM    C5F11378   6.230   3.889  10.031  0.1623 -0.2922  0.7395
  110OSM    H5F11379   6.188   3.787  10.047  0.1577 -0.7443 -1.8517
  110OSM    H5G11380   6.321   3.872   9.969  0.0205 -0.2361  0.5153
  110OSM    C6F11381   6.129   3.969   9.946 -0.9076 -0.2556  0.1972
  110OSM    H6F11382   6.186   4.053   9.901 -1.2990 -0.5182 -0.8123
  110OSM    H6G11383   6.047   4.010  10.008 -1.1658 -2.2934  1.2835
  110OSM    C7F11384   6.084   3.891   9.827 -0.9756  0.8333 -0.1952
  110OSM    H7F11385   5.984   3.848   9.850 -1.1040 -0.3815 -2.6424
  110OSM    H7G11386   6.158   3.809   9.814 -1.1627  0.3119  1.7051
  110OSM    C8F11387   6.057   3.976   9.693 -0.6315  0.4712  0.4301
  110OSM    H8F11388   6.146   4.037   9.667 -1.0904  1.6467  1.5148
  110OSM    H8G11389   5.974   4.048   9.711  0.2469  2.3544 -2.4965
  110OSM    C9F11390   6.026   3.889   9.581  0.8012 -0.2180  1.1848
  110OSM    H9F11391   5.950   3.816   9.613 -1.0452  0.0742 -2.0585
  110OSM   C10F11392   6.066   3.883   9.455  0.0234  0.0399 -0.0705
  110OSM   H10F11393   6.038   3.792   9.399  1.0789 -1.4333  1.6858
  110OSM   C11F11394   6.162   3.981   9.389 -0.4493  0.0667 -0.5910
  110OSM   H11F11395   6.255   3.923   9.370 -1.3030 -1.1962 -1.0861
  110OSM   H11G11396   6.186   4.067   9.455 -1.2596  0.8472 -1.2991
  110OSM   C12F11397   6.116   4.041   9.252 -0.2013 -0.1673  0.1149
  110OSM   H12F11398   6.040   4.121   9.263  0.2029  0.4241 -1.1591
  110OSM   H12G11399   6.071   3.958   9.193  2.0923 -2.0210  0.7939
  110OSM   C13F11400   6.236   4.102   9.176 -0.0573 -0.0230  0.0471
  110OSM   H13F11401   6.312   4.027   9.146 -0.4913 -0.1841 -0.6570
  110OSM   H13G11402   6.283   4.178   9.242  0.2066  1.6155 -1.9543
  110OSM   C14F11403   6.187   4.180   9.053  0.1084 -0.2090  0.2438
  110OSM   H14F11404   6.267   4.220   8.988 -1.3361 -1.5256 -2.5131
  110OSM   H14G11405   6.112   4.253   9.091  0.7416  0.8422 -0.4744
  110OSM   C15F11406   6.112   4.088   8.952 -0.1193  0.0731 -0.3187
  110OSM   H15F11407   6.006   4.072   8.981 -0.4385  2.3576 -0.0930
  110OSM   H15G11408   6.151   3.983   8.953  0.0912  0.1232 -1.6855
  110OSM   C16F11409   6.126   4.126   8.807 -0.6248  0.3175 -0.2841
  110OSM   H16F11410   6.234   4.128   8.781 -0.3941  0.0438  0.5959
  110OSM   H16G11411   6.091   4.229   8.783 -0.7410  0.4361  0.3654
  110OSM   C17F11412   6.041   4.028   8.717  0.5819 -0.7207  0.0384
  110OSM   H17F11413   6.037   4.071   8.614 -0.4211 -0.9616 -0.0284
  110OSM   H17G11414   5.934   4.031   8.747  1.4416 -0.5328  3.4926
  110OSM   C18F11415   6.099   3.886   8.702  0.6871 -0.5733  0.2290
  110OSM   H18F11416   6.078   3.834   8.798 -0.5302 -1.4021 -0.4725
  110OSM   H18G11417   6.203   3.889   8.663  0.2463  0.0881 -0.9451
  110OSM   H18H11418   6.049   3.821   8.628  3.7355 -0.1026 -2.4683
  111OSM      N11419   2.115   0.728  10.982  0.2884  0.3600 -0.1645
  111OSM    C1511420   2.198   0.696  11.102  0.7137 -0.1404  0.7574
  111OSM   H15A11421   2.175   0.595  11.135 -0.1126 -0.2082  0.0141
  111OSM   H15B11422   2.173   0.759  11.185  1.0689  0.2971  0.5350
  111OSM   H15C11423   2.302   0.721  11.094  0.0728  2.9178  0.8923
  111OSM    C1411424   2.144   0.613  10.883 -0.0646 -0.3852  0.0102
  111OSM   H14A11425   2.249   0.626  10.861  0.0411  0.6861  1.0452
  111OSM   H14B11426   2.089   0.631  10.791  0.8874 -1.1466 -0.7212
  111OSM   H14C11427   2.112   0.522  10.931  0.2883 -0.0482  0.8946
  111OSM    C1311428   1.966   0.705  11.019 -0.3459 -0.9202 -0.4017
  111OSM   H13A11429   1.937   0.769  11.101  0.2429 -0.3448 -0.6322
  111OSM   H13B11430   1.952   0.605  11.056  2.0380 -0.6365  1.4607
  111OSM   H13C11431   1.903   0.725  10.933 -1.9046  0.1045  0.9265
  111OSM    C1211432   2.143   0.867  10.922 -0.4037  0.1866  0.2744
  111OSM   H12A11433   2.096   0.877  10.826  1.0934  0.5505 -0.4516
  111OSM   H12B11434   2.247   0.871  10.893 -0.7044  2.6348 -0.7254
  111OSM    C1111435   2.113   0.987  11.015 -0.0479 -0.0280  0.0164
  111OSM   H11A11436   2.189   1.065  10.992  0.8334 -0.3359  1.7124
  111OSM   H11B11437   2.131   0.953  11.120 -1.6104 -1.9893 -0.3003
  111OSM      P11438   1.940   1.174  10.949 -0.1529  0.2569  0.3837
  111OSM    O1311439   1.801   1.190  10.996 -0.4216  0.0442  0.1396
  111OSM    O1411440   2.042   1.266  11.004 -0.0752 -0.1202  0.3116
  111OSM    O1111441   1.952   1.161  10.791  0.4979 -0.3539 -0.2623
  111OSM    O1211442   1.980   1.029  10.992 -0.1828 -0.8042  0.3140
  111OSM    C1S11443   1.861   1.236  10.703 -0.7317 -0.0911  0.5451
  111OSM    H1S11444   1.857   1.345  10.723 -0.6899 -0.2880  1.7016
  111OSM    H1T11445   1.759   1.192  10.705 -1.6335  1.4996 -3.1329
  111OSM     NF11446   1.826   1.296  10.480  0.1765  1.1085 -0.1389
  111OSM    HNF11447   1.753   1.246  10.434  0.0609 -0.2502  1.4287
  111OSM    C2S11448   1.910   1.209  10.559 -0.5989 -0.0161  0.0585
  111OSM    H2S11449   2.017   1.241  10.556 -1.1517  1.9216 -0.3427
  111OSM    C3S11450   1.911   1.052  10.523 -0.2546  0.0431  0.5015
  111OSM    H3S11451   1.810   1.011  10.543  0.2214 -1.0071  0.8767
  111OSM     O311452   1.996   0.979  10.613 -0.2998 -0.0328 -0.1220
  111OSM    HO311453   2.004   1.037  10.689  1.4586  1.1082 -1.0886
  111OSM    C4S11454   1.953   1.043  10.377  0.0621 -0.0547  0.1390
  111OSM    H4S11455   1.867   1.053  10.309 -0.1718  1.4225  0.6072
  111OSM    C5S11456   2.078   1.046  10.327 -0.1437 -0.6145 -0.4486
  111OSM    H5S11457   2.165   1.044  10.394  0.6604 -0.4004 -1.4724
  111OSM    C6S11458   2.117   1.057  10.181 -0.5833 -0.1989 -0.3556
  111OSM    H6S11459   2.032   1.028  10.116 -0.0373 -2.7605 -0.0296
  111OSM    H6T11460   2.197   0.980  10.171  0.0185  0.6041 -1.9294
  111OSM    C7S11461   2.178   1.183  10.137 -0.5004  0.0672  0.6656
  111OSM    H7S11462   2.255   1.216  10.209 -1.3617 -0.0728  1.6773
  111OSM    H7T11463   2.095   1.257  10.150  0.5104  1.1184  1.2926
  111OSM    C8S11464   2.229   1.184   9.986  0.0042 -0.6732 -0.2520
  111OSM    H8S11465   2.302   1.101   9.977  0.5494 -0.0505 -1.9436
  111OSM    H8T11466   2.279   1.276   9.951 -0.2504 -1.5495 -3.1941
  111OSM    C9S11467   2.124   1.156   9.880 -0.8963  0.3058 -0.7704
  111OSM    H9S11468   2.065   1.249   9.863 -1.2215  0.4325  0.9143
  111OSM    H9T11469   2.053   1.074   9.906  0.6484 -1.5308 -2.0036
  111OSM   C10S11470   2.174   1.115   9.737 -0.0550  0.4586 -0.1247
  111OSM   H10S11471   2.085   1.120   9.671 -2.0277  1.7928  2.4505
  111OSM   H10T11472   2.209   1.010   9.733  0.3047  0.5947 -0.8352
  111OSM   C11S11473   2.282   1.207   9.678  0.1199 -0.2186  0.3253
  111OSM   H11S11474   2.372   1.201   9.743  1.6343  0.0070 -1.6306
  111OSM   H11T11475   2.253   1.314   9.670  1.7455  0.1489 -1.1381
  111OSM   C12S11476   2.344   1.168   9.541 -0.0500 -0.7567  0.5358
  111OSM   H12S11477   2.418   1.084   9.543  0.9732  0.1334  0.8572
  111OSM   H12T11478   2.397   1.258   9.503  0.8863 -2.0472 -1.3793
  111OSM   C13S11479   2.244   1.125   9.429  0.1679  0.7291 -0.9510
  111OSM   H13S11480   2.174   1.210   9.415  0.4567  1.0436 -0.5338
  111OSM   H13T11481   2.180   1.045   9.471  1.8648 -2.7141 -4.3465
  111OSM   C14S11482   2.300   1.089   9.299 -0.0069 -0.7158 -0.1750
  111OSM   H14S11483   2.328   0.983   9.314  0.0239 -0.7463 -0.4481
  111OSM   H14T11484   2.392   1.151   9.289 -0.0275 -0.4275  1.1710
  111OSM   C15S11485   2.216   1.091   9.172  0.6983  0.0328 -0.3436
  111OSM   H15S11486   2.198   1.196   9.139 -2.1226 -0.3359 -0.2535
  111OSM   H15T11487   2.114   1.052   9.193  0.9372  0.1190  1.0499
  111OSM   C16S11488   2.283   0.998   9.062 -0.1940 -0.5794 -0.5385
  111OSM   H16S11489   2.214   0.910   9.059  0.6137 -1.4163  2.1900
  111OSM   H16T11490   2.385   0.957   9.082 -0.2097 -0.4174 -0.1064
  111OSM   C17S11491   2.285   1.058   8.924  0.3693 -0.1829  0.5007
  111OSM   H17S11492   2.379   1.114   8.909 -1.0214  3.1406  3.0760
  111OSM   H17T11493   2.197   1.125   8.929  0.9928  0.6653  0.3164
  111OSM   C18S11494   2.268   0.953   8.812 -0.3009 -0.1665  0.0161
  111OSM   H18S11495   2.358   0.888   8.814 -0.0320  0.0470 -2.1365
  111OSM   H18T11496   2.272   1.007   8.714 -0.4146 -0.0930  0.0510
  111OSM   H18U11497   2.186   0.880   8.828  0.0648 -0.5403  0.2061
  111OSM    C1F11498   1.837   1.430  10.480  0.0609  0.0976  0.4868
  111OSM     OF11499   1.939   1.480  10.521  0.2541  0.4470  0.0327
  111OSM    C2F11500   1.728   1.508  10.415  0.9112 -0.1870  0.2630
  111OSM    H2F11501   1.674   1.573  10.486 -2.5912 -0.3265 -1.9948
  111OSM    H2G11502   1.650   1.435  10.383  1.4699 -1.1655  1.0795
  111OSM    C3F11503   1.788   1.579  10.288 -0.0725  0.8679  0.1269
  111OSM    H3F11504   1.895   1.603  10.309  0.3015 -1.1122  0.7314
  111OSM    H3G11505   1.725   1.667  10.263 -0.9225 -0.3092 -2.1715
  111OSM    C4F11506   1.784   1.497  10.156  0.1850  0.9859  0.4797
  111OSM    H4F11507   1.685   1.452  10.136  0.6868  0.4468 -0.8816
  111OSM    H4G11508   1.862   1.419  10.145 -0.0660  0.8270 -0.1832
  111OSM    C5F11509   1.811   1.592  10.034  0.6395 -0.0191  0.1789
  111OSM    H5F11510   1.912   1.639  10.031 -0.1131  1.6371 -0.7855
  111OSM    H5G11511   1.731   1.669  10.047 -1.2117 -1.8108 -0.0801
  111OSM    C6F11512   1.770   1.525   9.899 -0.0420  0.5934 -0.3306
  111OSM    H6F11513   1.667   1.486   9.913 -0.0155  1.2300  2.2333
  111OSM    H6G11514   1.832   1.438   9.872  3.1581  3.1901 -2.1329
  111OSM    C7F11515   1.785   1.618   9.780 -0.0867  0.0733 -0.0206
  111OSM    H7F11516   1.891   1.645   9.762  0.0084  0.5836  1.1946
  111OSM    H7G11517   1.740   1.712   9.819  1.8483  0.8771  0.3952
  111OSM    C8F11518   1.722   1.574   9.651  0.4383 -0.3900 -0.2341
  111OSM    H8F11519   1.614   1.556   9.670  0.3126 -0.5661 -1.0784
  111OSM    H8G11520   1.774   1.481   9.620  0.1636 -0.3667 -0.7822
  111OSM    C9F11521   1.718   1.666   9.533 -0.3343  0.7039  0.0528
  111OSM    H9F11522   1.639   1.743   9.538 -2.7336 -1.6348  0.1998
  111OSM   C10F11523   1.796   1.672   9.425  0.4832  0.2300  0.4731
  111OSM   H10F11524   1.775   1.754   9.355 -1.3102  2.0130  2.9234
  111OSM   C11F11525   1.921   1.592   9.386 -0.1758  0.3816 -0.2146
  111OSM   H11F11526   1.934   1.494   9.435 -0.5613  0.0263 -0.8044
  111OSM   H11G11527   2.013   1.649   9.409 -0.3700  1.5546 -2.0995
  111OSM   C12F11528   1.920   1.556   9.235  0.0008  0.2166 -0.3521
  111OSM   H12F11529   1.901   1.645   9.172  1.3660  0.1879 -0.8414
  111OSM   H12G11530   1.842   1.479   9.221 -0.4595  0.3377  1.2901
  111OSM   C13F11531   2.050   1.489   9.192  0.5615  0.1041 -0.2520
  111OSM   H13F11532   2.059   1.391   9.243 -0.0361 -0.0211 -0.3712
  111OSM   H13G11533   2.140   1.550   9.214  0.0624  0.4533  0.9025
  111OSM   C14F11534   2.059   1.458   9.041  0.1674 -0.7835  0.4925
  111OSM   H14F11535   2.162   1.423   9.018  0.9542 -0.1405  2.8094
  111OSM   H14G11536   2.042   1.552   8.985 -3.6424 -1.2865  0.5274
  111OSM   C15F11537   1.962   1.360   8.988 -0.3386 -0.2574 -0.2618
  111OSM   H15F11538   1.856   1.381   9.014  0.1446  1.2464  0.5983
  111OSM   H15G11539   1.995   1.266   9.036 -1.1118 -0.2678  0.2651
  111OSM   C16F11540   1.969   1.341   8.827 -0.4031 -0.6337 -0.0502
  111OSM   H16F11541   1.908   1.256   8.791 -0.1929 -0.9957  0.4267
  111OSM   H16G11542   2.073   1.319   8.794 -0.1375  0.9709 -0.3462
  111OSM   C17F11543   1.920   1.466   8.749 -0.5344  0.2483  0.4733
  111OSM   H17F11544   1.969   1.564   8.767 -1.8133  0.8442  0.8475
  111OSM   H17G11545   1.812   1.480   8.771 -1.2117 -0.3770 -2.0885
  111OSM   C18F11546   1.933   1.448   8.602 -0.0111 -0.2556  0.0521
  111OSM   H18F11547   1.957   1.343   8.577  0.3884 -0.5789  1.7149
  111OSM   H18G11548   2.021   1.497   8.556 -0.0984 -0.7386 -0.6510
  111OSM   H18H11549   1.846   1.483   8.542  0.4745  1.1106  0.1084
  112OSM      N11550   0.853   4.554  10.998 -0.1924  0.0403 -0.0916
  112OSM    C1511551   0.859   4.454  11.109 -0.2849 -0.1468  0.6334
  112OSM   H15A11552   0.899   4.370  11.054  1.3988  0.0839  1.4350
  112OSM   H15B11553   0.755   4.446  11.137 -1.0951  0.6237 -1.9151
  112OSM   H15C11554   0.927   4.487  11.187  1.8248  0.2514 -1.2838
  112OSM    C1411555   0.993   4.594  10.946 -0.1713  0.6206  0.0785
  112OSM   H14A11556   1.048   4.502  10.927  2.3256  2.0602 -0.1007
  112OSM   H14B11557   1.038   4.660  11.018 -0.7283  2.0636 -0.8670
  112OSM   H14C11558   0.988   4.651  10.855  1.2108  0.8509  0.1229
  112OSM    C1311559   0.775   4.495  10.881 -0.1178  0.1208 -0.0181
  112OSM   H13A11560   0.697   4.435  10.926 -0.0340  0.2686  0.3289
  112OSM   H13B11561   0.838   4.422  10.831  0.5820  0.7742 -0.1126
  112OSM   H13C11562   0.740   4.570  10.812  1.9248  1.3405  0.1825
  112OSM    C1211563   0.776   4.686  11.038 -1.2456  0.0690  0.3973
  112OSM   H12A11564   0.796   4.765  10.967 -0.9279 -0.4144 -0.0561
  112OSM   H12B11565   0.817   4.717  11.133 -0.5479 -1.0049  0.4666
  112OSM    C1111566   0.627   4.675  11.062  0.3815 -0.0801  0.0877
  112OSM   H11A11567   0.578   4.767  11.100 -0.1758  0.5630 -2.0279
  112OSM   H11B11568   0.611   4.598  11.140  0.3885  0.2555  0.4228
  112OSM      P11569   0.504   4.726  10.837  0.1439  0.0609 -0.1246
  112OSM    O1311570   0.356   4.718  10.832 -0.0935 -0.1029 -0.1091
  112OSM    O1411571   0.562   4.859  10.850  0.2393 -0.0272 -0.6229
  112OSM    O1111572   0.565   4.671  10.700  0.2034 -0.0130 -0.2018
  112OSM    O1211573   0.549   4.633  10.949  0.4441  0.1134 -0.5307
  112OSM    C1S11574   0.513   4.566  10.615  0.0593  0.7274 -0.2414
  112OSM    H1S11575   0.403   4.567  10.628 -0.3201 -0.7463 -2.7908
  112OSM    H1T11576   0.552   4.464  10.637  0.9716  1.1443  0.1543
  112OSM     NF11577   0.453   4.498  10.383  0.0197  0.4061 -0.2462
  112OSM    HNF11578   0.503   4.447  10.313  1.6490  2.1253 -0.4522
  112OSM    C2S11579   0.536   4.599  10.463 -0.0061  0.2208  0.2134
  112OSM    H2S11580   0.500   4.703  10.447 -0.1211  0.4064  1.5922
  112OSM    C3S11581   0.691   4.596  10.442 -0.1640 -0.4047 -0.5369
  112OSM    H3S11582   0.728   4.493  10.463  2.5760  0.5500 -0.3060
  112OSM     O311583   0.761   4.680  10.531  0.1369 -0.2070 -0.2212
  112OSM    HO311584   0.691   4.700  10.593 -0.3270 -0.5003 -0.6438
  112OSM    C4S11585   0.736   4.633  10.305 -0.0816 -0.6814 -0.1878
  112OSM    H4S11586   0.722   4.740  10.282 -0.0454 -0.6680 -0.1479
  112OSM    C5S11587   0.785   4.551  10.205  0.6206 -0.1888  0.1112
  112OSM    H5S11588   0.796   4.443  10.227  1.7104  0.1348  1.2230
  112OSM    C6S11589   0.842   4.598  10.074 -0.0022  0.3352  0.1698
  112OSM    H6S11590   0.942   4.552  10.058  0.5880  1.1134  1.5216
  112OSM    H6T11591   0.853   4.708  10.067  1.7609  0.2171  0.5568
  112OSM    C7S11592   0.756   4.544   9.954 -0.1655 -0.0426  0.1465
  112OSM    H7S11593   0.648   4.567   9.968  0.5849  2.8119  2.1101
  112OSM    H7T11594   0.759   4.433   9.949 -1.9840 -0.0615 -1.8034
  112OSM    C8S11595   0.801   4.594   9.809  0.2841  0.7973 -0.1288
  112OSM    H8S11596   0.769   4.700   9.804 -3.8289 -0.0724  2.7748
  112OSM    H8T11597   0.742   4.540   9.731  2.3393 -1.6271 -0.1445
  112OSM    C9S11598   0.948   4.565   9.784 -0.2088 -0.4990 -0.5897
  112OSM    H9S11599   0.960   4.456   9.805 -0.5456 -0.5139 -0.4781
  112OSM    H9T11600   1.017   4.620   9.851 -1.8676  1.9620 -0.7936
  112OSM   C10S11601   0.985   4.609   9.647  0.2035  0.3972 -0.4339
  112OSM   H10S11602   0.996   4.720   9.645 -1.5559  0.6589  1.4116
  112OSM   H10T11603   0.898   4.582   9.584 -0.0150 -0.7551  0.3372
  112OSM   C11S11604   1.104   4.546   9.581  0.6272  0.3981  0.0928
  112OSM   H11S11605   1.080   4.439   9.564  1.1110  0.2530  0.3053
  112OSM   H11T11606   1.183   4.548   9.659  1.3099 -3.8464 -0.2294
  112OSM   C12S11607   1.144   4.603   9.447 -0.6068  0.2551 -0.0417
  112OSM   H12S11608   1.142   4.714   9.449 -0.6293  0.2528  0.0837
  112OSM   H12T11609   1.073   4.576   9.367 -0.7682  1.1825 -0.2210
  112OSM   C13S11610   1.291   4.550   9.405  0.4869  0.1655  0.2289
  112OSM   H13S11611   1.288   4.440   9.414  4.0215 -0.0938 -0.5072
  112OSM   H13T11612   1.367   4.582   9.480  0.9448 -2.8179  1.1467
  112OSM   C14S11613   1.339   4.600   9.265  0.1788  0.1913  0.0004
  112OSM   H14S11614   1.266   4.591   9.182 -0.8651  0.6383  0.8393
  112OSM   H14T11615   1.435   4.558   9.229 -1.2826 -2.9309 -0.5728
  112OSM   C15S11616   1.361   4.754   9.257  0.0212 -1.0796 -0.6670
  112OSM   H15S11617   1.407   4.777   9.355  0.9418  0.1719 -1.3697
  112OSM   H15T11618   1.272   4.821   9.264 -1.2544 -2.5994 -1.5572
  112OSM   C16S11619   1.441   4.805   9.136  0.3912 -0.1496 -0.4736
  112OSM   H16S11620   1.368   4.778   9.056 -2.0430  1.5690  1.0214
  112OSM   H16T11621   1.542   4.759   9.128  0.5401  0.1493 -0.3278
  112OSM   C17S11622   1.480   4.952   9.120  0.0950  0.1977  0.1080
  112OSM   H17S11623   1.545   4.988   9.203  0.3996  0.5876 -0.2977
  112OSM   H17T11624   1.385   5.009   9.133 -0.5944 -1.1584  1.4707
  112OSM   C18S11625   1.547   4.991   8.985 -0.1956 -0.2578  0.5317
  112OSM   H18S11626   1.468   4.984   8.907  0.8829 -2.5704 -0.4489
  112OSM   H18T11627   1.628   4.917   8.967  1.3986  0.7413  3.0353
  112OSM   H18U11628   1.592   5.093   8.992 -0.3808  0.0708 -1.9129
  112OSM    C1F11629   0.321   4.511  10.363 -0.2950 -0.1942 -0.0523
  112OSM     OF11630   0.268   4.609  10.411  0.0515  0.1252 -0.1733
  112OSM    C2F11631   0.248   4.414  10.281  0.0306  0.5985  0.1471
  112OSM    H2F11632   0.147   4.405  10.326 -1.1622  0.5005 -2.3525
  112OSM    H2G11633   0.294   4.313  10.289 -0.0164  0.6048  0.4936
  112OSM    C3F11634   0.233   4.454  10.137  0.9746 -0.4075  1.1420
  112OSM    H3F11635   0.196   4.558  10.126  1.4176 -0.4578 -1.1432
  112OSM    H3G11636   0.162   4.386  10.085  0.1717  1.9366 -1.0228
  112OSM    C4F11637   0.351   4.466  10.041  0.1461  0.1062 -0.0079
  112OSM    H4F11638   0.417   4.378  10.050 -2.3742 -1.8013  0.8582
  112OSM    H4G11639   0.417   4.545  10.085  1.4691 -1.1199  0.2831
  112OSM    C5F11640   0.297   4.496   9.902  0.0155 -0.4568  0.7204
  112OSM    H5F11641   0.237   4.590   9.907  1.2902  0.5623 -1.5612
  112OSM    H5G11642   0.233   4.412   9.870 -0.6548  0.7968 -1.4174
  112OSM    C6F11643   0.412   4.532   9.801  0.5103 -0.6906  0.0329
  112OSM    H6F11644   0.487   4.450   9.788 -0.2109 -1.9759  3.1122
  112OSM    H6G11645   0.474   4.612   9.847  1.4557 -1.3027 -0.1506
  112OSM    C7F11646   0.373   4.581   9.656  0.5909  0.1021  0.1856
  112OSM    H7F11647   0.312   4.667   9.689  0.0022 -0.6514  1.1240
  112OSM    H7G11648   0.301   4.507   9.614 -0.0572  1.2064 -0.6802
  112OSM    C8F11649   0.504   4.619   9.581  0.5195  0.1727  0.4813
  112OSM    H8F11650   0.568   4.528   9.575 -0.7034 -0.6701 -0.1453
  112OSM    H8G11651   0.559   4.693   9.643 -3.0437  2.3624  1.3289
  112OSM    C9F11652   0.478   4.689   9.448 -0.0498  0.0374  0.0205
  112OSM    H9F11653   0.387   4.751   9.454 -1.9476 -2.7271  1.6178
  112OSM   C10F11654   0.552   4.686   9.334  0.0307  0.0584  0.0358
  112OSM   H10F11655   0.515   4.739   9.245  2.2411 -0.8302 -1.5097
  112OSM   C11F11656   0.685   4.612   9.314  0.1701 -0.8255 -0.1736
  112OSM   H11F11657   0.664   4.536   9.236  0.8542 -0.4365 -0.7450
  112OSM   H11G11658   0.712   4.551   9.403 -1.7561 -1.2811  0.1270
  112OSM   C12F11659   0.803   4.710   9.295 -0.3752  0.8541 -0.1221
  112OSM   H12F11660   0.894   4.647   9.284 -0.0839  1.5249 -1.9220
  112OSM   H12G11661   0.820   4.766   9.389 -1.4850 -1.0550  1.2763
  112OSM   C13F11662   0.792   4.794   9.172  0.4643  0.1362 -0.8413
  112OSM   H13F11663   0.733   4.883   9.202  1.2030  0.2239  0.4338
  112OSM   H13G11664   0.742   4.747   9.085  2.6022 -1.8661 -1.0969
  112OSM   C14F11665   0.931   4.846   9.124  0.3057  0.3320 -0.9891
  112OSM   H14F11666   1.004   4.763   9.109  1.5397  1.1826  0.0249
  112OSM   H14G11667   0.984   4.893   9.210  0.9453 -1.1117 -0.5544
  112OSM   C15F11668   0.936   4.935   9.004  0.4262 -0.9052 -0.4718
  112OSM   H15F11669   0.889   5.034   9.021  3.1311  0.0807  2.0440
  112OSM   H15G11670   0.878   4.879   8.927 -0.8140  0.8237 -0.8680
  112OSM   C16F11671   1.066   4.976   8.939  0.5224 -0.0507 -0.1326
  112OSM   H16F11672   1.134   4.889   8.926 -0.6302 -0.7513 -1.6924
  112OSM   H16G11673   1.120   5.046   9.007 -0.6182 -0.3235  1.1001
  112OSM   C17F11674   1.047   5.023   8.794  0.0980 -0.1802 -0.0270
  112OSM   H17F11675   0.982   5.113   8.783 -0.4854 -0.4793  0.8920
  112OSM   H17G11676   1.012   4.936   8.733 -0.7288  0.1802 -0.0905
  112OSM   C18F11677   1.189   5.063   8.745 -0.3630 -0.2346 -0.7517
  112OSM   H18F11678   1.173   5.119   8.651  1.4449 -0.0274 -0.9567
  112OSM   H18G11679   1.250   4.978   8.708  0.5899  0.2777 -0.3909
  112OSM   H18H11680   1.237   5.134   8.815  0.5706  0.0332 -1.6505
  113OSM      N11681   5.556   3.680  10.802 -0.0833 -0.0256  0.0733
  113OSM    C1511682   5.534   3.772  10.686  0.0413 -0.3462 -0.7448
  113OSM   H15A11683   5.588   3.745  10.597  1.6252 -1.2059  0.4133
  113OSM   H15B11684   5.577   3.867  10.714  2.0288 -1.1934 -0.7790
  113OSM   H15C11685   5.431   3.797  10.668 -0.0546  0.8188  1.0975
  113OSM    C1411686   5.706   3.667  10.831  0.2858 -0.7135 -0.1585
  113OSM   H14A11687   5.761   3.757  10.857 -1.7087  0.3116  0.6748
  113OSM   H14B11688   5.745   3.618  10.743  0.7528  0.6647 -0.7563
  113OSM   H14C11689   5.715   3.612  10.924  1.9626 -2.0187 -1.0293
  113OSM    C1311690   5.496   3.750  10.924  0.2318  0.4989  0.6119
  113OSM   H13A11691   5.501   3.679  11.005  0.4364  0.1762  0.3231
  113OSM   H13B11692   5.395   3.782  10.901 -0.5614 -1.4138  1.2233
  113OSM   H13C11693   5.549   3.842  10.940  0.6110  0.3917  0.0131
  113OSM    C1211694   5.485   3.550  10.766  0.0941 -0.0067 -0.5436
  113OSM   H12A11695   5.482   3.487  10.853  1.9151  0.4133 -0.1337
  113OSM   H12B11696   5.544   3.498  10.692 -0.6352  1.3867 -2.1781
  113OSM    C1111697   5.343   3.568  10.702  0.3920  0.6127 -0.0288
  113OSM   H11A11698   5.315   3.466  10.668 -0.2853  0.4731  0.8905
  113OSM   H11B11699   5.333   3.626  10.608  0.8506  0.8000  0.0367
  113OSM      P11700   5.148   3.533  10.877  0.1720 -0.3246  0.3653
  113OSM    O1311701   5.212   3.424  10.950 -1.1918 -0.0906 -0.9531
  113OSM    O1411702   5.068   3.630  10.960 -0.4708 -0.3162  0.5898
  113OSM    O1111703   5.060   3.483  10.749 -0.0896  0.3419  0.1565
  113OSM    O1211704   5.257   3.611  10.805  0.1128 -0.4152 -0.2142
  113OSM    C1S11705   4.987   3.577  10.672  0.1696 -1.1935 -0.1092
  113OSM    H1S11706   5.033   3.678  10.673 -1.0276 -0.6364  0.8966
  113OSM    H1T11707   4.889   3.598  10.719  0.2251  0.1339 -0.5606
  113OSM     NF11708   4.922   3.636  10.437  0.1575 -0.2772  0.8657
  113OSM    HNF11709   4.825   3.638  10.415  0.8477  2.4601 -2.7414
  113OSM    C2S11710   4.973   3.535  10.527 -0.6443 -1.0113  0.2876
  113OSM    H2S11711   5.078   3.516  10.493 -0.5741  0.2829 -0.2698
  113OSM    C3S11712   4.904   3.391  10.516 -0.0568  0.9029  0.1673
  113OSM    H3S11713   4.796   3.406  10.539 -0.5911 -1.3898 -0.6108
  113OSM     O311714   4.948   3.292  10.612 -0.1369 -0.0251  0.1830
  113OSM    HO311715   5.012   3.340  10.665  2.3325  1.0166 -3.3496
  113OSM    C4S11716   4.907   3.335  10.372 -0.3932  0.6832  0.1303
  113OSM    H4S11717   5.009   3.310  10.340 -0.9753 -2.0284  0.1671
  113OSM    C5S11718   4.804   3.301  10.297  0.0244 -0.0525  0.1734
  113OSM    H5S11719   4.701   3.311  10.335  0.2968 -0.2464  0.9893
  113OSM    C6S11720   4.822   3.225  10.169  0.3438  0.1175  1.0570
  113OSM    H6S11721   4.735   3.155  10.168  0.4102  0.0369  0.9707
  113OSM    H6T11722   4.912   3.160  10.164  1.0408  1.0540  1.0946
  113OSM    C7S11723   4.806   3.315  10.042 -0.2324 -0.1959  0.1519
  113OSM    H7S11724   4.714   3.378  10.045  0.3487  0.6461  0.7665
  113OSM    H7T11725   4.779   3.244   9.961 -2.6333 -0.3657  1.0245
  113OSM    C8S11726   4.938   3.388  10.009  0.4853  0.8221 -0.4925
  113OSM    H8S11727   5.015   3.313   9.982 -0.2714  0.4711 -1.7625
  113OSM    H8T11728   4.977   3.453  10.090  0.4196 -0.2300  0.4083
  113OSM    C9S11729   4.918   3.473   9.880  0.7829  0.4206 -0.2633
  113OSM    H9S11730   5.007   3.539   9.869  0.1361  1.3680  0.0726
  113OSM    H9T11731   4.826   3.536   9.886  0.7507  0.2264  2.0076
  113OSM   C10S11732   4.937   3.381   9.758  1.4116 -0.2777 -0.1552
  113OSM   H10S11733   4.849   3.314   9.761 -0.1497  1.6001 -1.3947
  113OSM   H10T11734   5.029   3.321   9.772  0.5451 -1.4638  0.6689
  113OSM   C11S11735   4.925   3.460   9.625 -0.0483 -0.4126  0.1240
  113OSM   H11S11736   4.999   3.542   9.612  1.1381 -1.2533  1.3122
  113OSM   H11T11737   4.832   3.521   9.623 -1.0943 -1.9537 -1.0207
  113OSM   C12S11738   4.936   3.363   9.503 -0.1318 -0.2762  0.2829
  113OSM   H12S11739   4.843   3.304   9.518  0.6101 -1.4788  0.3398
  113OSM   H12T11740   5.019   3.289   9.495 -0.3098 -0.3105 -2.1958
  113OSM   C13S11741   4.918   3.439   9.366 -0.4601  0.2023  0.4993
  113OSM   H13S11742   4.830   3.506   9.374 -1.3678 -0.5294 -2.2246
  113OSM   H13T11743   4.886   3.382   9.276 -2.5802  0.3507  1.1171
  113OSM   C14S11744   5.035   3.522   9.317 -0.1951  0.2261 -0.6826
  113OSM   H14S11745   5.131   3.475   9.344  0.0216  1.7270  1.3697
  113OSM   H14T11746   5.028   3.624   9.361  0.2461  0.1101 -0.3380
  113OSM   C15S11747   5.046   3.532   9.165  0.3055 -0.3968 -0.1117
  113OSM   H15S11748   4.946   3.575   9.140  0.7216  1.8194  1.6904
  113OSM   H15T11749   5.066   3.433   9.120 -1.8873 -0.2746 -1.5345
  113OSM   C16S11750   5.155   3.631   9.127  0.0081 -0.2798  0.1836
  113OSM   H16S11751   5.255   3.600   9.163  0.4780  0.6369 -0.2863
  113OSM   H16T11752   5.122   3.733   9.158  0.5959  0.7600 -2.3319
  113OSM   C17S11753   5.164   3.641   8.975  0.0136  0.1186 -0.0033
  113OSM   H17S11754   5.073   3.699   8.949 -0.0822 -0.5342 -1.2455
  113OSM   H17T11755   5.159   3.538   8.932  0.8848 -0.0943  0.3706
  113OSM   C18S11756   5.279   3.719   8.914 -0.7970 -0.4761 -0.7042
  113OSM   H18S11757   5.364   3.647   8.905 -0.3171  0.1432 -1.2348
  113OSM   H18T11758   5.311   3.802   8.980  2.4885 -1.8851 -0.3040
  113OSM   H18U11759   5.259   3.761   8.814 -2.6125  0.8679  0.1759
  113OSM    C1F11760   4.993   3.739  10.398  0.1203 -0.4398 -0.4122
  113OSM     OF11761   5.093   3.758  10.459  0.0900  0.4465  0.2265
  113OSM    C2F11762   4.923   3.820  10.297  0.5345 -0.8478  0.1111
  113OSM    H2F11763   4.869   3.900  10.352  2.3197  0.9307 -0.5769
  113OSM    H2G11764   4.862   3.750  10.236  0.0642 -2.3363  2.1822
  113OSM    C3F11765   5.033   3.900  10.216 -0.7370  0.0775 -0.0715
  113OSM    H3F11766   5.102   3.948  10.289 -1.0094  2.3878 -1.2333
  113OSM    H3G11767   4.980   3.973  10.151 -0.0998  1.6080  1.0866
  113OSM    C4F11768   5.127   3.803  10.140 -0.1575 -0.5121 -0.0409
  113OSM    H4F11769   5.059   3.753  10.067  1.1634 -0.1053 -1.6012
  113OSM    H4G11770   5.167   3.724  10.207  0.6081  0.5819  0.8176
  113OSM    C5F11771   5.246   3.876  10.081  0.5703  0.0547 -0.1502
  113OSM    H5F11772   5.286   3.948  10.155 -0.9107  1.1768 -0.3918
  113OSM    H5G11773   5.206   3.934   9.995 -0.4725  0.1549  0.3736
  113OSM    C6F11774   5.359   3.780  10.043  0.0096 -0.5443 -0.3090
  113OSM    H6F11775   5.371   3.707  10.126  2.1190 -0.7059 -0.7018
  113OSM    H6G11776   5.452   3.837  10.022  0.6171 -0.9269  1.2377
  113OSM    C7F11777   5.332   3.693   9.917  0.3045  0.0377  0.5587
  113OSM    H7F11778   5.241   3.640   9.952  0.7833 -1.0646  0.1909
  113OSM    H7G11779   5.405   3.610   9.903 -0.8621 -1.1792  1.4461
  113OSM    C8F11780   5.293   3.775   9.790 -0.4169 -0.0220 -0.6513
  113OSM    H8F11781   5.385   3.835   9.770 -0.0377  1.3121  3.8731
  113OSM    H8G11782   5.211   3.848   9.807  0.7218  1.4740 -1.3751
  113OSM    C9F11783   5.267   3.674   9.684 -0.1327 -0.4656  0.3463
  113OSM    H9F11784   5.193   3.593   9.698 -2.7709  1.5818 -0.9136
  113OSM   C10F11785   5.301   3.698   9.558  0.4808 -0.5490  0.3903
  113OSM   H10F11786   5.291   3.615   9.487  0.3206 -1.0662  1.0094
  113OSM   C11F11787   5.376   3.817   9.503  0.2686  0.1644  0.2083
  113OSM   H11F11788   5.392   3.913   9.557 -0.3789  0.3427  0.0927
  113OSM   H11G11789   5.328   3.841   9.406  2.0384 -1.0969 -1.0532
  113OSM   C12F11790   5.519   3.763   9.467  0.0249  0.1598  0.2217
  113OSM   H12F11791   5.508   3.670   9.407 -1.1101  0.7774 -0.5723
  113OSM   H12G11792   5.575   3.737   9.560 -0.5280 -0.2238  0.4504
  113OSM   C13F11793   5.609   3.864   9.387 -0.0710  0.2739 -0.6947
  113OSM   H13F11794   5.701   3.802   9.375 -1.2752 -2.0299  1.1604
  113OSM   H13G11795   5.638   3.957   9.440  2.9056 -0.9314  0.0270
  113OSM   C14F11796   5.564   3.877   9.246  0.3471 -0.2909  0.0404
  113OSM   H14F11797   5.466   3.928   9.252  1.1162  1.3958 -1.1027
  113OSM   H14G11798   5.542   3.780   9.196  1.3360  0.5825 -2.2087
  113OSM   C15F11799   5.661   3.937   9.138  0.6937  0.6237  0.4584
  113OSM   H15F11800   5.764   3.902   9.161  1.3810  0.9587 -1.8924
  113OSM   H15G11801   5.658   4.048   9.133  0.6385  0.6197  0.4021
  113OSM   C16F11802   5.603   3.899   8.999 -0.4024 -0.8522  0.7931
  113OSM   H16F11803   5.496   3.921   8.978 -0.1444 -1.2467 -1.1261
  113OSM   H16G11804   5.622   3.790   8.991  1.5970 -0.6304  1.9348
  113OSM   C17F11805   5.686   3.966   8.888  0.2593  0.3722 -0.3704
  113OSM   H17F11806   5.674   3.917   8.789 -0.0866 -0.8086  0.2349
  113OSM   H17G11807   5.793   3.955   8.917  0.9345  0.9557 -2.4860
  113OSM   C18F11808   5.652   4.111   8.870 -0.2491  0.1591 -0.3207
  113OSM   H18F11809   5.720   4.146   8.789  0.1226  1.1008  0.3836
  113OSM   H18G11810   5.663   4.187   8.951 -0.1901 -1.5022  1.2979
  113OSM   H18H11811   5.545   4.110   8.839 -0.6897 -1.3262  1.1264
  114OSM      N11812   3.079   3.864  11.120 -0.1919 -0.0869 -0.3963
  114OSM    C1511813   3.213   3.857  11.050  0.2836 -0.0423  0.3656
  114OSM   H15A11814   3.267   3.945  11.079 -1.3451  1.1540 -0.0791
  114OSM   H15B11815   3.204   3.853  10.942  2.0439 -1.9806  0.2378
  114OSM   H15C11816   3.269   3.770  11.082  0.8249  0.5040  0.9295
  114OSM    C1411817   3.004   3.737  11.099  0.1279  0.3656  0.5780
  114OSM   H14A11818   2.909   3.733  11.150 -1.7532 -0.3340 -2.6908
  114OSM   H14B11819   3.067   3.652  11.125  0.4867  0.5118  0.1976
  114OSM   H14C11820   2.986   3.722  10.993  0.9872  1.9772  0.1786
  114OSM    C1311821   3.100   3.885  11.264  0.1964  0.8685 -0.3369
  114OSM   H13A11822   3.155   3.974  11.291  3.2819 -0.4532 -1.8341
  114OSM   H13B11823   3.179   3.817  11.293  0.5171  0.7129 -1.5553
  114OSM   H13C11824   3.014   3.869  11.329  0.8934 -0.2105  0.3590
  114OSM    C1211825   2.998   3.982  11.064  0.4269  0.9146  0.4411
  114OSM   H12A11826   3.058   4.067  11.095  2.3081  0.1317 -0.9098
  114OSM   H12B11827   2.906   3.992  11.120  0.1372  1.5042 -0.1288
  114OSM    C1111828   2.965   3.980  10.922  0.2978  0.1757  0.9116
  114OSM   H11A11829   3.056   3.986  10.859 -0.0238  0.6335  0.4779
  114OSM   H11B11830   2.909   4.073  10.899 -1.4950 -1.0232  0.1659
  114OSM      P11831   2.723   3.884  10.919  0.3148 -0.5178 -0.5017
  114OSM    O1311832   2.656   3.755  10.905 -0.3193  0.0673  0.4595
  114OSM    O1411833   2.694   3.961  11.045  0.2652 -0.1536  0.0587
  114OSM    O1111834   2.679   3.977  10.800 -0.0969 -0.5162  0.3055
  114OSM    O1211835   2.875   3.867  10.893 -0.3521  0.3070 -0.2192
  114OSM    C1S11836   2.720   3.940  10.666  0.4236  0.3041  0.6850
  114OSM    H1S11837   2.681   3.843  10.626  0.4704  0.3452  0.5373
  114OSM    H1T11838   2.831   3.937  10.657  0.6536  0.2772  3.0964
  114OSM     NF11839   2.677   3.974  10.421 -0.1669 -0.3371 -0.5542
  114OSM    HNF11840   2.762   3.978  10.370 -0.4389 -0.1937 -1.0132
  114OSM    C2S11841   2.666   4.040  10.553  0.7350  0.3295  0.4877
  114OSM    H2S11842   2.560   4.068  10.568  0.8109  0.9501 -0.0950
  114OSM    C3S11843   2.746   4.171  10.572 -0.1243 -0.0878  0.1460
  114OSM    H3S11844   2.853   4.144  10.581 -0.0015  0.8795  2.5096
  114OSM     O311845   2.714   4.241  10.696 -0.3997 -0.0947 -0.3532
  114OSM    HO311846   2.642   4.186  10.727 -1.3564  0.9682 -0.6328
  114OSM    C4S11847   2.718   4.269  10.466 -0.5726 -1.0452  0.1606
  114OSM    H4S11848   2.622   4.321  10.476 -0.0014  0.5753 -1.9086
  114OSM    C5S11849   2.807   4.310  10.374 -0.0185 -0.5953  0.2736
  114OSM    H5S11850   2.912   4.281  10.368  0.0723 -0.2683  0.2598
  114OSM    C6S11851   2.788   4.413  10.265  0.0559  0.0549 -0.6701
  114OSM    H6S11852   2.840   4.506  10.296 -1.1256  0.9752 -1.3872
  114OSM    H6T11853   2.685   4.440  10.235  0.9696  2.8682 -1.5490
  114OSM    C7S11854   2.861   4.366  10.130  0.8029  0.7143 -0.4205
  114OSM    H7S11855   2.786   4.301  10.080  1.5619 -0.5736  0.0506
  114OSM    H7T11856   2.955   4.308  10.138  0.2309 -0.2718 -0.6538
  114OSM    C8S11857   2.896   4.479  10.029  0.5304 -0.2870 -0.3348
  114OSM    H8S11858   2.999   4.511  10.056  0.2681 -0.6535  1.2010
  114OSM    H8T11859   2.823   4.562  10.043 -0.9346 -1.6971  0.8847
  114OSM    C9S11860   2.887   4.424   9.889  0.5203 -0.0204  0.2344
  114OSM    H9S11861   2.794   4.390   9.838 -0.1168  2.0158 -0.0633
  114OSM    H9T11862   2.959   4.340   9.884  0.1273 -0.3574  0.1745
  114OSM   C10S11863   2.925   4.533   9.783 -1.1181  0.0958  0.2643
  114OSM   H10S11864   3.010   4.592   9.822  0.0953 -2.5285  1.8593
  114OSM   H10T11865   2.838   4.601   9.772 -1.6196 -0.4902  0.5236
  114OSM   C11S11866   2.967   4.478   9.645  0.1135  0.0504  0.2413
  114OSM   H11S11867   2.888   4.400   9.635 -1.1220  0.9729  2.2385
  114OSM   H11T11868   3.068   4.433   9.658  1.3950  3.0014  1.4814
  114OSM   C12S11869   2.967   4.581   9.533 -0.4784  0.1223  0.4331
  114OSM   H12S11870   3.018   4.674   9.564 -1.6302 -0.0045  2.9859
  114OSM   H12T11871   2.860   4.613   9.536  0.0555  1.9776  0.6974
  114OSM   C13S11872   3.004   4.526   9.391  0.6691 -0.5284 -0.7169
  114OSM   H13S11873   2.949   4.435   9.359  0.1639 -1.3721  2.2488
  114OSM   H13T11874   3.111   4.497   9.393  0.0575 -2.9428  0.2939
  114OSM   C14S11875   2.993   4.633   9.280 -0.3507  0.2287  0.1979
  114OSM   H14S11876   3.049   4.721   9.320  4.0618 -1.8965 -0.7462
  114OSM   H14T11877   2.884   4.654   9.274 -0.3397  0.1009 -0.5269
  114OSM   C15S11878   3.037   4.579   9.149  0.4648  0.0004  0.1014
  114OSM   H15S11879   2.989   4.648   9.077  0.7701  1.2620  1.0766
  114OSM   H15T11880   2.997   4.476   9.134 -0.9110  0.3352  1.2918
  114OSM   C16S11881   3.188   4.583   9.130 -0.1321 -0.1232  0.8864
  114OSM   H16S11882   3.249   4.551   9.217 -1.4712 -0.8750  1.5925
  114OSM   H16T11883   3.199   4.692   9.115 -0.0278 -0.0874  1.2116
  114OSM   C17S11884   3.229   4.513   8.999 -0.3846 -0.0631  0.0916
  114OSM   H17S11885   3.214   4.404   9.014  0.3961  0.0404  1.8845
  114OSM   H17T11886   3.333   4.540   8.971 -0.1064 -0.5706  0.6165
  114OSM   C18S11887   3.153   4.553   8.870  0.0042 -0.1465  0.7612
  114OSM   H18S11888   3.204   4.509   8.782 -0.5959 -1.0423  0.8489
  114OSM   H18T11889   3.172   4.662   8.860 -0.1445 -0.3357 -3.1427
  114OSM   H18U11890   3.045   4.526   8.869 -0.0794  0.1338 -1.4030
  114OSM    C1F11891   2.588   3.886  10.380  0.3324 -0.3758 -0.0589
  114OSM     OF11892   2.491   3.857  10.449 -0.6623 -0.2523  0.7017
  114OSM    C2F11893   2.609   3.818  10.249  0.2450 -0.2935 -0.6416
  114OSM    H2F11894   2.689   3.741  10.262  1.5675  0.8799 -1.5105
  114OSM    H2G11895   2.648   3.897  10.182  1.1441  1.4301  1.7679
  114OSM    C3F11896   2.480   3.741  10.201 -0.2363  0.0016  0.6021
  114OSM    H3F11897   2.391   3.808  10.200  0.4583  0.9601  0.8092
  114OSM    H3G11898   2.453   3.656  10.266  0.2961 -0.3234  0.3998
  114OSM    C4F11899   2.495   3.686  10.060 -0.0671  0.6447 -0.4086
  114OSM    H4F11900   2.424   3.602  10.046 -1.9686  2.2530 -0.8654
  114OSM    H4G11901   2.600   3.651  10.045  0.4179  0.9290  1.9695
  114OSM    C5F11902   2.443   3.787   9.948 -0.4261  0.0274 -0.9302
  114OSM    H5F11903   2.519   3.868   9.947  0.2173 -0.5558 -0.7445
  114OSM    H5G11904   2.340   3.824   9.965 -0.4139  0.1338 -1.0865
  114OSM    C6F11905   2.430   3.715   9.807 -0.2574  0.5268 -0.4712
  114OSM    H6F11906   2.345   3.645   9.823  0.4714 -0.2186  0.2142
  114OSM    H6G11907   2.526   3.662   9.786 -0.3210  0.5047 -0.7107
  114OSM    C7F11908   2.395   3.804   9.686  0.4717 -0.1066  0.0084
  114OSM    H7F11909   2.472   3.884   9.679 -1.1393  1.3486 -2.4463
  114OSM    H7G11910   2.298   3.855   9.704  1.3205  1.1118  1.3399
  114OSM    C8F11911   2.395   3.740   9.553 -0.8425 -0.2332 -0.1932
  114OSM    H8F11912   2.335   3.648   9.571 -0.3773 -0.2249  1.5320
  114OSM    H8G11913   2.498   3.702   9.535 -1.0734 -0.0844 -2.0899
  114OSM    C9F11914   2.340   3.827   9.443  0.1913  0.9141 -0.6373
  114OSM    H9F11915   2.231   3.816   9.434  0.3772 -1.1102 -0.7358
  114OSM   C10F11916   2.408   3.916   9.364  0.0382  0.1057  0.6818
  114OSM   H10F11917   2.345   3.965   9.288 -1.0817 -2.3007 -0.0566
  114OSM   C11F11918   2.554   3.947   9.359 -0.1898 -0.9165  0.7131
  114OSM   H11F11919   2.601   3.948   9.460  0.6447  0.2956  0.3338
  114OSM   H11G11920   2.566   4.053   9.328  0.2470 -1.2243 -0.2372
  114OSM   C12F11921   2.629   3.834   9.276 -0.0821 -0.0922 -0.9413
  114OSM   H12F11922   2.614   3.732   9.318  1.0239  0.7001  1.5362
  114OSM   H12G11923   2.738   3.856   9.277  0.0629 -0.7877 -1.0778
  114OSM   C13F11924   2.587   3.842   9.130  0.0939  0.1806 -0.2855
  114OSM   H13F11925   2.478   3.821   9.118 -0.1692  1.4841 -0.3884
  114OSM   H13G11926   2.637   3.756   9.082  4.2751  1.8957  0.5343
  114OSM   C14F11927   2.614   3.976   9.059 -0.4023 -0.1637 -0.2119
  114OSM   H14F11928   2.720   3.998   9.083 -0.8985  1.6147  0.5119
  114OSM   H14G11929   2.552   4.055   9.105 -0.2389 -1.5947  2.6362
  114OSM   C15F11930   2.608   3.974   8.900  0.1093 -0.0751  0.0246
  114OSM   H15F11931   2.596   4.074   8.855 -0.7523 -0.4963 -0.7065
  114OSM   H15G11932   2.521   3.915   8.864  0.4485 -0.4670 -0.1652
  114OSM   C16F11933   2.736   3.904   8.849 -0.8463  0.1198 -0.1596
  114OSM   H16F11934   2.756   3.803   8.891  0.9032  0.3912 -0.2959
  114OSM   H16G11935   2.817   3.969   8.889 -2.1697  0.2240  2.6111
  114OSM   C17F11936   2.725   3.882   8.698 -0.6821  0.4592 -0.1576
  114OSM   H17F11937   2.675   3.976   8.666  1.8918  2.0278  0.1513
  114OSM   H17G11938   2.659   3.794   8.679 -1.6597  1.3488 -0.9992
  114OSM   C18F11939   2.849   3.840   8.619 -0.3513  0.2604  0.3078
  114OSM   H18F11940   2.934   3.910   8.605 -0.7590  0.7487  0.2275
  114OSM   H18G11941   2.837   3.821   8.510  0.8316 -0.8870  0.3536
  114OSM   H18H11942   2.893   3.749   8.664 -1.7670  0.0325  1.2893
  115OSM      N11943   4.415   0.265   5.586 -0.1854  0.5956  0.1008
  115OSM    C1511944   4.405   0.147   5.485 -0.0031  0.1125 -0.0914
  115OSM   H15A11945   4.325   0.164   5.414 -0.0976 -1.1182 -0.3070
  115OSM   H15B11946   4.387   0.054   5.537 -0.1738  0.8345  1.1908
  115OSM   H15C11947   4.497   0.129   5.432  1.0677 -0.6596  1.9095
  115OSM    C1411948   4.531   0.232   5.682 -0.1037  0.3990 -0.2721
  115OSM   H14A11949   4.625   0.225   5.630 -0.8726 -1.0522 -1.5419
  115OSM   H14B11950   4.517   0.139   5.735 -0.0160  0.2259 -0.5500
  115OSM   H14C11951   4.541   0.312   5.755  2.7450 -1.7620  1.9411
  115OSM    C1311952   4.438   0.389   5.513 -0.5259  0.3021  0.1924
  115OSM   H13A11953   4.543   0.389   5.485  0.2218 -0.2912  2.7958
  115OSM   H13B11954   4.425   0.473   5.580  0.0750 -0.5470  1.4137
  115OSM   H13C11955   4.384   0.405   5.421  1.4980  1.8775 -0.8251
  115OSM    C1211956   4.278   0.278   5.658 -0.6879 -0.0124  0.1255
  115OSM   H12A11957   4.236   0.180   5.670 -3.1057  0.5133 -2.9639
  115OSM   H12B11958   4.202   0.314   5.591 -1.7504 -1.5361  0.4731
  115OSM    C1111959   4.287   0.372   5.787  0.3105  0.5515  0.9142
  115OSM   H11A11960   4.184   0.384   5.826 -1.1075 -0.5608 -2.1663
  115OSM   H11B11961   4.316   0.477   5.768 -2.1207  1.5415  2.3206
  115OSM      P11962   4.324   0.174   5.956 -0.2503  0.4424  0.0732
  115OSM    O1311963   4.193   0.135   5.905  1.1070 -0.0207 -0.2435
  115OSM    O1411964   4.441   0.086   5.946 -0.4397  0.6086 -0.2644
  115OSM    O1111965   4.309   0.206   6.111 -0.3369  0.5705  0.5489
  115OSM    O1211966   4.364   0.312   5.895  0.4960  0.5859  0.6890
  115OSM    C1S11967   4.421   0.257   6.185  0.0762 -0.6496 -0.3465
  115OSM    H1S11968   4.450   0.359   6.151 -0.5426 -0.3854 -0.0996
  115OSM    H1T11969   4.508   0.189   6.195  0.0839 -0.5378  0.4148
  115OSM     NF11970   4.520   0.326   6.401  0.7822  0.3674  0.1029
  115OSM    HNF11971   4.586   0.273   6.452  1.2647 -1.7017 -2.4651
  115OSM    C2S11972   4.393   0.274   6.338  0.2094  0.5863 -0.2556
  115OSM    H2S11973   4.318   0.355   6.348 -0.4499 -0.1059  0.5164
  115OSM    C3S11974   4.323   0.147   6.400 -0.1352  0.5673 -0.4115
  115OSM    H3S11975   4.391   0.060   6.387 -0.9589 -0.1025 -0.3264
  115OSM     O311976   4.213   0.100   6.334 -0.3826 -0.0421 -0.3056
  115OSM    HO311977   4.222   0.130   6.243  0.3729  0.1067 -0.1907
  115OSM    C4S11978   4.298   0.168   6.545 -0.0654  1.0547  0.3888
  115OSM    H4S11979   4.382   0.119   6.596  0.9692 -2.5260 -4.2036
  115OSM    C5S11980   4.180   0.202   6.593 -0.5345  0.0170 -0.1162
  115OSM    H5S11981   4.096   0.211   6.522 -0.5877 -0.0518 -0.0626
  115OSM    C6S11982   4.148   0.226   6.742 -0.0337  0.2237 -0.3873
  115OSM    H6S11983   4.065   0.153   6.758  0.9354 -0.4917  1.6262
  115OSM    H6T11984   4.105   0.328   6.740  2.6678  1.5461 -4.4131
  115OSM    C7S11985   4.261   0.210   6.838  0.0676  0.1405  0.2934
  115OSM    H7S11986   4.350   0.264   6.798 -1.4480  1.6528 -1.2078
  115OSM    H7T11987   4.295   0.105   6.846  0.7838  0.1469 -2.0571
  115OSM    C8S11988   4.214   0.273   6.969  0.4264 -0.3261  0.2258
  115OSM    H8S11989   4.110   0.236   6.979 -0.1769  1.7373  2.5402
  115OSM    H8T11990   4.219   0.384   6.965  1.1130 -0.3515  0.2065
  115OSM    C9S11991   4.301   0.221   7.086 -0.7294 -0.7350  0.0747
  115OSM    H9S11992   4.401   0.268   7.069 -1.4858  1.0655  0.4123
  115OSM    H9T11993   4.319   0.111   7.075 -0.5670 -0.6211 -0.9255
  115OSM   C10S11994   4.256   0.249   7.227  0.7046  0.2956  0.2059
  115OSM   H10S11995   4.160   0.196   7.245  0.2555  1.0517  0.0710
  115OSM   H10T11996   4.229   0.357   7.231 -1.2268 -0.1438 -0.0963
  115OSM   C11S11997   4.361   0.209   7.333  0.1158  1.3226 -0.1054
  115OSM   H11S11998   4.466   0.246   7.328  1.3753 -2.0276 -1.3372
  115OSM   H11T11999   4.384   0.103   7.312 -0.1987  1.1060  0.6201
  115OSM   C12S12000   4.302   0.211   7.479 -0.2959  0.5166 -0.3974
  115OSM   H12S12001   4.214   0.143   7.470  0.6499 -0.6525 -1.2929
  115OSM   H12T12002   4.283   0.315   7.512  0.4607  0.2510  0.9760
  115OSM   C13S12003   4.382   0.139   7.588  0.0821  0.1222 -0.7915
  115OSM   H13S12004   4.453   0.210   7.634 -0.8071  1.0249 -0.7658
  115OSM   H13T12005   4.434   0.046   7.555 -0.8725 -0.7961  0.1723
  115OSM   C14S12006   4.298   0.096   7.710  0.2387  0.0517  0.5674
  115OSM   H14S12007   4.218   0.024   7.681  0.4952 -0.5122  1.2289
  115OSM   H14T12008   4.246   0.186   7.749  1.2045 -0.0031  2.0574
  115OSM   C15S12009   4.387   0.032   7.818  0.0079 -0.0828 -0.0135
  115OSM   H15S12010   4.470   0.095   7.859  3.0775 -1.2050 -3.9357
  115OSM   H15T12011   4.437  -0.053   7.768 -0.6068  0.4188 -1.5517
  115OSM   C16S12012   4.308  -0.023   7.943  0.5857  0.3303 -0.7971
  115OSM   H16S12013   4.230  -0.087   7.895  0.3865  0.7183 -0.9949
  115OSM   H16T12014   4.253   0.051   8.005 -2.5375 -4.1487  2.4070
  115OSM   C17S12015   4.404  -0.099   8.032  0.0093  0.0185 -0.3683
  115OSM   H17S12016   4.499  -0.050   8.063  0.6034 -1.4937  0.2809
  115OSM   H17T12017   4.425  -0.193   7.977  0.2433  0.0858 -0.3974
  115OSM   C18S12018   4.339  -0.124   8.173  0.1753  0.4433  0.6584
  115OSM   H18S12019   4.239  -0.167   8.152 -0.3984  1.3200  1.4850
  115OSM   H18T12020   4.326  -0.032   8.235  1.4819 -0.4279  2.3244
  115OSM   H18U12021   4.403  -0.177   8.247 -0.1007  1.6882  1.8311
  115OSM    C1F12022   4.563   0.451   6.387  0.0289  0.9510  0.4307
  115OSM     OF12023   4.490   0.534   6.340  0.5713 -0.0961 -0.0552
  115OSM    C2F12024   4.697   0.482   6.443  0.0387 -0.0214  0.0654
  115OSM    H2F12025   4.771   0.475   6.361  0.3019 -1.5096  0.4175
  115OSM    H2G12026   4.719   0.396   6.509  1.0762 -0.0708 -0.3270
  115OSM    C3F12027   4.695   0.613   6.519  0.3822 -0.7451 -0.1174
  115OSM    H3F12028   4.604   0.636   6.579  0.0343  0.2771 -1.0107
  115OSM    H3G12029   4.707   0.700   6.451 -0.3746 -0.6021 -0.0818
  115OSM    C4F12030   4.810   0.625   6.618  0.5451  0.2404  0.1096
  115OSM    H4F12031   4.897   0.645   6.551  0.2530 -1.3592 -0.7867
  115OSM    H4G12032   4.839   0.530   6.666  0.0641 -0.2345 -0.5247
  115OSM    C5F12033   4.782   0.741   6.710  0.1786 -0.2696  0.4111
  115OSM    H5F12034   4.712   0.805   6.652  0.6736  0.1419  0.2676
  115OSM    H5G12035   4.878   0.795   6.723 -0.7019  1.0220  1.9549
  115OSM    C6F12036   4.723   0.709   6.845  0.4637 -0.4343 -0.3679
  115OSM    H6F12037   4.623   0.662   6.835  0.1501 -0.3011  1.6672
  115OSM    H6G12038   4.698   0.801   6.902 -1.3582  0.9718 -3.1893
  115OSM    C7F12039   4.802   0.608   6.929  0.1240 -0.2103  0.2962
  115OSM    H7F12040   4.799   0.510   6.876 -2.1514  0.7835 -1.6329
  115OSM    H7G12041   4.742   0.588   7.020 -1.4774  0.2791 -0.6199
  115OSM    C8F12042   4.945   0.655   6.963 -0.0721  0.3787  0.1349
  115OSM    H8F12043   4.930   0.758   7.002  0.9872  1.0288 -1.0760
  115OSM    H8G12044   5.010   0.660   6.873 -1.1781 -1.0387 -0.7912
  115OSM    C9F12045   5.007   0.578   7.076 -0.5034  0.3569 -0.3150
  115OSM    H9F12046   5.073   0.498   7.040 -0.2304  0.7415 -0.6782
  115OSM   C10F12047   4.988   0.577   7.205 -0.2318  0.0620  0.2950
  115OSM   H10F12048   5.031   0.499   7.270 -1.4625 -0.0050  1.0764
  115OSM   C11F12049   4.892   0.662   7.290  0.0396  0.4794 -0.5622
  115OSM   H11F12050   4.810   0.589   7.300  0.8623 -0.8059 -2.4638
  115OSM   H11G12051   4.854   0.749   7.232 -0.6379  1.0013  0.6303
  115OSM   C12F12052   4.946   0.719   7.421 -0.8392 -0.3115  0.6507
  115OSM   H12F12053   4.868   0.781   7.470  0.8718  2.1033  0.4832
  115OSM   H12G12054   5.023   0.795   7.400  0.7811 -1.4609  2.1081
  115OSM   C13F12055   4.992   0.608   7.519 -0.3013 -0.0868 -0.1962
  115OSM   H13F12056   5.084   0.565   7.475  1.2071  2.5230  0.1727
  115OSM   H13G12057   4.916   0.527   7.523 -3.9607  3.0877  2.4143
  115OSM   C14F12058   5.014   0.641   7.665  0.1770  0.7137  0.0134
  115OSM   H14F12059   4.939   0.708   7.713  0.8423  2.1433 -0.8773
  115OSM   H14G12060   5.098   0.713   7.664 -1.2555  2.5836 -3.2817
  115OSM   C15F12061   5.041   0.520   7.751 -0.4018 -0.2759  0.4476
  115OSM   H15F12062   5.122   0.453   7.715 -1.1343 -1.1265  0.3589
  115OSM   H15G12063   4.960   0.445   7.742  1.1568 -2.2129  1.5386
  115OSM   C16F12064   5.060   0.556   7.895 -0.4257  0.5081 -0.2013
  115OSM   H16F12065   4.982   0.624   7.937 -0.0647 -0.6003  2.4694
  115OSM   H16G12066   5.160   0.604   7.893 -1.2365  2.2597 -1.4868
  115OSM   C17F12067   5.054   0.433   7.990  0.2406 -0.2116  0.0936
  115OSM   H17F12068   5.120   0.355   7.946 -0.0791  1.0349 -2.8625
  115OSM   H17G12069   4.954   0.386   7.980 -0.4431  1.3746 -0.9101
  115OSM   C18F12070   5.099   0.463   8.132  0.0999 -0.0227  0.5477
  115OSM   H18F12071   5.031   0.538   8.178  1.9734  1.4613  1.0803
  115OSM   H18G12072   5.199   0.513   8.130  0.3943 -0.5402  1.4632
  115OSM   H18H12073   5.101   0.369   8.191 -0.7776  0.3619  1.2063
  116OSM      N12074   3.122   4.323   5.760  0.3484 -0.1267 -0.2471
  116OSM    C1512075   3.136   4.214   5.660 -0.3533  0.4381 -0.3427
  116OSM   H15A12076   3.102   4.243   5.562 -0.0675 -0.3720 -0.6989
  116OSM   H15B12077   3.091   4.118   5.680 -1.9961  0.9738 -1.2577
  116OSM   H15C12078   3.243   4.206   5.647  0.6569  2.1284  4.8101
  116OSM    C1412079   3.168   4.448   5.702  0.4522  0.9233 -0.3996
  116OSM   H14A12080   3.274   4.451   5.687  1.4430  0.1036  4.5298
  116OSM   H14B12081   3.141   4.532   5.766  0.4209 -0.8208  2.0286
  116OSM   H14C12082   3.113   4.468   5.611 -2.9954  2.1309  1.7120
  116OSM    C1312083   2.977   4.334   5.795  0.2554  0.6670  0.8007
  116OSM   H13A12084   2.953   4.408   5.870 -0.2972  2.6181 -1.2320
  116OSM   H13B12085   2.945   4.236   5.828 -3.7557  1.5309  0.0195
  116OSM   H13C12086   2.928   4.350   5.700  0.5270  0.9775  0.7136
  116OSM    C1212087   3.201   4.292   5.889  0.7516  0.6374 -0.7257
  116OSM   H12A12088   3.209   4.384   5.946  3.0576  0.9148 -1.3701
  116OSM   H12B12089   3.302   4.271   5.858  0.3958  0.2281 -1.6543
  116OSM    C1112090   3.154   4.183   5.988 -0.2150 -0.9485 -0.6849
  116OSM   H11A12091   3.236   4.177   6.063 -0.4267 -0.6415 -0.4280
  116OSM   H11B12092   3.161   4.088   5.930  2.9637  0.6208 -3.2042
  116OSM      P12093   2.987   4.315   6.151  0.2521 -0.0936  0.4315
  116OSM    O1312094   3.093   4.419   6.152 -0.1965 -0.1671  0.5810
  116OSM    O1412095   2.855   4.363   6.103 -0.0335  0.1580 -0.7157
  116OSM    O1112096   2.967   4.255   6.296  0.3289  0.3075  0.1070
  116OSM    O1212097   3.025   4.197   6.056 -0.3922  0.3267  0.1219
  116OSM    C1S12098   3.024   4.124   6.327  0.3640  0.1833 -0.2875
  116OSM    H1S12099   3.129   4.118   6.294 -0.6030 -0.5484 -3.5852
  116OSM    H1T12100   2.972   4.040   6.276  0.9084 -0.0593 -0.4501
  116OSM     NF12101   3.077   3.974   6.518 -0.8144 -0.0098 -0.1790
  116OSM    HNF12102   3.029   3.887   6.526 -1.4563  0.4598  1.5680
  116OSM    C2S12103   3.007   4.097   6.471  0.2378  0.3704 -0.9308
  116OSM    H2S12104   3.053   4.180   6.529 -0.7617 -0.3893  1.0625
  116OSM    C3S12105   2.855   4.097   6.516  0.4191 -1.9166 -0.2796
  116OSM    H3S12106   2.794   4.032   6.450 -1.1210 -0.8181  0.0108
  116OSM     O312107   2.792   4.224   6.488  0.2279  0.4322  0.3985
  116OSM    HO312108   2.849   4.251   6.416 -1.7107 -2.5758 -2.5396
  116OSM    C4S12109   2.838   4.055   6.660 -0.4171  0.0014 -0.1199
  116OSM    H4S12110   2.794   3.955   6.674  1.1343 -0.7039 -0.0601
  116OSM    C5S12111   2.859   4.134   6.770  0.5439  0.4357  0.1385
  116OSM    H5S12112   2.898   4.236   6.759 -1.1327  0.9669 -1.4797
  116OSM    C6S12113   2.835   4.084   6.913  0.6348  0.1729 -0.5234
  116OSM    H6S12114   2.922   4.045   6.971 -0.8359  0.0307  1.6871
  116OSM    H6T12115   2.765   3.998   6.908 -0.8209  1.3440 -0.9120
  116OSM    C7S12116   2.774   4.194   7.007 -0.3862 -0.3562 -0.4643
  116OSM    H7S12117   2.693   4.253   6.958 -2.0358 -1.5992  0.6435
  116OSM    H7T12118   2.860   4.263   7.018 -0.4623  0.0159 -1.8881
  116OSM    C8S12119   2.719   4.132   7.136  0.2354 -0.3474  0.1711
  116OSM    H8S12120   2.635   4.065   7.107  1.5044 -2.1363  0.4933
  116OSM    H8T12121   2.672   4.219   7.186 -2.3886 -1.1645 -0.6744
  116OSM    C9S12122   2.808   4.060   7.231  0.5099  0.2156 -0.1072
  116OSM    H9S12123   2.912   4.081   7.201  0.4368  1.1171  0.2330
  116OSM    H9T12124   2.791   3.951   7.220  1.1881  0.1011 -0.0162
  116OSM   C10S12125   2.791   4.105   7.378 -1.1669 -0.2103  0.2185
  116OSM   H10S12126   2.687   4.094   7.416 -0.8551 -2.5954  0.5262
  116OSM   H10T12127   2.821   4.212   7.384 -1.0225 -0.3194  2.7137
  116OSM   C11S12128   2.885   4.027   7.470 -0.5055 -0.6291 -0.5196
  116OSM   H11S12129   2.991   4.045   7.442 -0.8898 -0.4172 -1.9019
  116OSM   H11T12130   2.870   3.917   7.457  1.2757 -0.7939 -1.6979
  116OSM   C12S12131   2.863   4.064   7.621 -0.0307  0.5242 -0.0791
  116OSM   H12S12132   2.822   4.167   7.618  0.7265  0.8254 -0.5039
  116OSM   H12T12133   2.959   4.087   7.672 -0.0814 -1.3499  0.9529
  116OSM   C13S12134   2.761   3.972   7.694 -0.2498 -0.1455  0.7117
  116OSM   H13S12135   2.811   3.873   7.691  0.1593  0.0774 -0.1124
  116OSM   H13T12136   2.666   3.955   7.638  0.5164 -1.6747 -0.1895
  116OSM   C14S12137   2.753   3.987   7.848  0.2834 -0.3255  0.4869
  116OSM   H14S12138   2.679   3.915   7.888  0.4302 -0.6224  0.2346
  116OSM   H14T12139   2.719   4.091   7.866  0.8034 -0.2848  1.2716
  116OSM   C15S12140   2.888   3.966   7.919  0.1071  0.6669  0.1071
  116OSM   H15S12141   2.955   4.047   7.882 -2.0819  2.6284  0.2297
  116OSM   H15T12142   2.919   3.861   7.901 -1.0817 -0.1255  2.2657
  116OSM   C16S12143   2.871   3.989   8.067  0.0404  0.3168  0.2006
  116OSM   H16S12144   2.790   3.922   8.102  1.4071 -1.0667  0.8462
  116OSM   H16T12145   2.843   4.094   8.090  0.8611  0.3032  1.3155
  116OSM   C17S12146   3.002   3.972   8.149  0.1746  0.0752  0.5840
  116OSM   H17S12147   3.085   4.037   8.115  0.4012 -0.3306  0.3522
  116OSM   H17T12148   3.027   3.864   8.141  0.0972  0.1667 -1.3865
  116OSM   C18S12149   2.963   3.997   8.301 -0.1372  0.1304  0.4637
  116OSM   H18S12150   2.927   4.100   8.320 -0.2949 -0.2146  2.1855
  116OSM   H18T12151   3.054   3.971   8.359  1.0393 -0.9562 -1.7267
  116OSM   H18U12152   2.879   3.931   8.329 -1.4852  1.9946  0.9931
  116OSM    C1F12153   3.211   3.960   6.498 -0.4116 -0.5185  0.7774
  116OSM     OF12154   3.288   4.056   6.488 -0.1036 -0.2767 -0.3476
  116OSM    C2F12155   3.266   3.819   6.477  0.0334 -0.6187 -0.1714
  116OSM    H2F12156   3.309   3.822   6.375  1.5632 -1.6062  0.4218
  116OSM    H2G12157   3.191   3.738   6.492 -0.5603  0.1829  1.4877
  116OSM    C3F12158   3.379   3.784   6.577 -0.8332 -0.6359  0.2444
  116OSM    H3F12159   3.453   3.866   6.591  0.2637 -1.8285  1.8141
  116OSM    H3G12160   3.432   3.693   6.542 -1.4358 -0.1467 -2.1423
  116OSM    C4F12161   3.308   3.744   6.704 -0.1739  0.4207 -0.6510
  116OSM    H4F12162   3.263   3.643   6.689 -3.3062  1.3728  1.3025
  116OSM    H4G12163   3.226   3.813   6.733  0.2465 -0.8304  4.4296
  116OSM    C5F12164   3.404   3.729   6.826 -0.9674 -0.3579 -0.3160
  116OSM    H5F12165   3.458   3.826   6.835 -0.0592 -0.9927  1.5076
  116OSM    H5G12166   3.476   3.648   6.805  1.6307  1.3062  1.5729
  116OSM    C6F12167   3.327   3.695   6.961  0.1668 -0.3732  0.0073
  116OSM    H6F12168   3.265   3.604   6.947 -2.1666  0.9308  1.2551
  116OSM    H6G12169   3.250   3.771   6.988  1.9093  1.3431  0.3858
  116OSM    C7F12170   3.418   3.683   7.088 -0.5080 -0.2382 -0.2768
  116OSM    H7F12171   3.428   3.784   7.132  1.2886 -1.1277  1.5386
  116OSM    H7G12172   3.521   3.653   7.058  0.9595  1.8334  2.3025
  116OSM    C8F12173   3.371   3.594   7.207  0.3678  0.5582 -0.3557
  116OSM    H8F12174   3.437   3.607   7.296  0.0441  0.1478 -0.0558
  116OSM    H8G12175   3.388   3.489   7.176 -0.8687  0.9994 -2.7212
  116OSM    C9F12176   3.231   3.607   7.258 -0.0125  0.0336  0.2739
  116OSM    H9F12177   3.161   3.608   7.173  0.7957 -2.0380 -0.4875
  116OSM   C10F12178   3.188   3.609   7.385  0.1564 -0.5526 -0.1711
  116OSM   H10F12179   3.081   3.613   7.405  0.1041 -0.8906 -0.3825
  116OSM   C11F12180   3.271   3.609   7.506 -0.0221 -0.5219 -0.4041
  116OSM   H11F12181   3.224   3.669   7.587 -2.9840 -2.1606 -0.7432
  116OSM   H11G12182   3.359   3.674   7.486  0.1636 -1.1382 -1.7095
  116OSM   C12F12183   3.307   3.464   7.551 -0.5549 -0.3073  0.0876
  116OSM   H12F12184   3.365   3.419   7.467 -0.1111  0.8588 -0.2548
  116OSM   H12G12185   3.220   3.395   7.555 -0.1274 -0.7954  1.9550
  116OSM   C13F12186   3.400   3.455   7.672  0.3693  0.2592  0.9450
  116OSM   H13F12187   3.485   3.527   7.679  1.1528 -0.6225  0.7748
  116OSM   H13G12188   3.451   3.357   7.658  0.3132  0.5530 -2.0252
  116OSM   C14F12189   3.310   3.453   7.796 -0.8513 -0.6429  0.4169
  116OSM   H14F12190   3.233   3.373   7.795 -2.2956  0.6732  0.8414
  116OSM   H14G12191   3.251   3.547   7.787 -1.1922 -0.8276  0.6618
  116OSM   C15F12192   3.393   3.461   7.925 -0.1496  0.4079 -0.0936
  116OSM   H15F12193   3.471   3.382   7.927 -0.3982  0.1617  0.0410
  116OSM   H15G12194   3.313   3.438   8.000 -0.9663 -0.0387 -1.0748
  116OSM   C16F12195   3.457   3.597   7.951  0.5579 -0.4993 -0.0709
  116OSM   H16F12196   3.386   3.676   7.921  1.9478  0.7742 -0.1088
  116OSM   H16G12197   3.553   3.603   7.895  1.5378 -1.9177  1.3509
  116OSM   C17F12198   3.485   3.618   8.103 -0.6619 -0.0106 -0.2950
  116OSM   H17F12199   3.395   3.626   8.167  0.0337  1.7788  0.5233
  116OSM   H17G12200   3.536   3.717   8.110 -0.5516 -0.0396 -0.6191
  116OSM   C18F12201   3.575   3.503   8.161  0.2736  0.4542  0.4421
  116OSM   H18F12202   3.680   3.504   8.125 -0.3799 -1.3949 -1.7674
  116OSM   H18G12203   3.516   3.411   8.138  1.7308 -0.2934 -0.4334
  116OSM   H18H12204   3.575   3.505   8.272 -0.3668  1.3967  0.4390
  117OSM      N12205   0.724   4.401   5.848  0.8572  0.3880 -0.1180
  117OSM    C1512206   0.582   4.450   5.862  0.3221  0.4112 -0.1786
  117OSM   H15A12207   0.533   4.439   5.766  0.2162  1.8960 -0.3096
  117OSM   H15B12208   0.574   4.556   5.876  2.3752  0.6392 -0.4889
  117OSM   H15C12209   0.522   4.391   5.930 -1.5215 -1.4174 -3.1707
  117OSM    C1412210   0.727   4.250   5.835 -0.4296 -0.3119 -0.2033
  117OSM   H14A12211   0.709   4.193   5.925  0.9951  0.7840  0.8335
  117OSM   H14B12212   0.828   4.219   5.814 -0.2705  0.0278  0.0418
  117OSM   H14C12213   0.655   4.216   5.762 -0.9492  1.1230 -0.3887
  117OSM    C1312214   0.796   4.467   5.738  0.2062  0.0057  0.3220
  117OSM   H13A12215   0.885   4.415   5.707 -0.3105 -1.2534  0.8980
  117OSM   H13B12216   0.822   4.570   5.761  0.1718  0.7419 -2.5432
  117OSM   H13C12217   0.738   4.467   5.647 -0.9161 -1.3735  1.0057
  117OSM    C1212218   0.794   4.436   5.978 -0.8702 -0.0969  0.2610
  117OSM   H12A12219   0.807   4.542   5.993  1.1169 -0.0103 -1.5470
  117OSM   H12B12220   0.897   4.407   5.969 -0.9389 -0.0541 -0.7693
  117OSM    C1112221   0.735   4.376   6.109 -0.1026  0.4837 -0.6207
  117OSM   H11A12222   0.625   4.388   6.112 -0.0565  0.8769  2.5263
  117OSM   H11B12223   0.763   4.440   6.195 -0.0331 -0.5130  0.1112
  117OSM      P12224   0.663   4.143   6.199  0.1198  0.5713  0.3775
  117OSM    O1312225   0.563   4.130   6.097 -0.0373 -0.4693  0.3429
  117OSM    O1412226   0.717   4.026   6.266  0.6279  0.3415 -0.5000
  117OSM    O1112227   0.603   4.240   6.309 -0.0739  0.4063  0.1947
  117OSM    O1212228   0.778   4.237   6.134 -0.4412 -0.1182  0.0196
  117OSM    C1S12229   0.497   4.210   6.395  0.2061  0.6697  0.3667
  117OSM    H1S12230   0.480   4.101   6.390 -0.8364  0.8480 -0.1971
  117OSM    H1T12231   0.406   4.261   6.356  0.1254 -0.3667 -0.8766
  117OSM     NF12232   0.410   4.229   6.634 -0.1632  0.0968  0.3663
  117OSM    HNF12233   0.366   4.310   6.672  2.0544 -0.5218  4.9886
  117OSM    C2S12234   0.525   4.257   6.536  0.6650 -0.2828 -0.6586
  117OSM    H2S12235   0.616   4.211   6.581 -0.2251 -0.7255  0.7535
  117OSM    C3S12236   0.556   4.414   6.542  0.6172 -0.1151  0.0357
  117OSM    H3S12237   0.467   4.466   6.500  0.9071  0.4837  0.1598
  117OSM     O312238   0.646   4.456   6.439 -0.7041 -0.0378 -0.7237
  117OSM    HO312239   0.678   4.377   6.394  1.7659  0.3761  0.1544
  117OSM    C4S12240   0.599   4.468   6.677  0.3900 -0.2977  0.8014
  117OSM    H4S12241   0.516   4.469   6.749 -0.7494  0.4975 -0.4775
  117OSM    C5S12242   0.719   4.508   6.719 -0.5519 -0.1079 -0.4407
  117OSM    H5S12243   0.801   4.516   6.646 -1.7675 -3.2309 -2.3456
  117OSM    C6S12244   0.750   4.559   6.860 -0.4130  0.6557 -0.2039
  117OSM    H6S12245   0.796   4.660   6.851 -0.8135  0.9105  0.5781
  117OSM    H6T12246   0.811   4.480   6.908 -1.3530 -0.2416 -0.4535
  117OSM    C7S12247   0.633   4.568   6.958  0.6457 -0.4646  0.2350
  117OSM    H7S12248   0.579   4.471   6.960 -0.7271  0.2087 -1.6067
  117OSM    H7T12249   0.554   4.641   6.929 -1.1829 -1.2038  2.9510
  117OSM    C8S12250   0.678   4.617   7.098  0.2249 -0.6389 -0.2941
  117OSM    H8S12251   0.730   4.715   7.088 -1.8569  0.6543  0.8067
  117OSM    H8T12252   0.762   4.557   7.139  0.5949 -0.4252 -0.7364
  117OSM    C9S12253   0.556   4.630   7.193 -0.0628 -0.5752  0.1237
  117OSM    H9S12254   0.498   4.538   7.215  1.6965 -1.5914  0.6960
  117OSM    H9T12255   0.484   4.704   7.152 -1.7351 -1.5488  1.2362
  117OSM   C10S12256   0.610   4.662   7.325  0.3314 -0.2118 -0.3726
  117OSM   H10S12257   0.653   4.765   7.320 -3.9567  2.1221  3.4368
  117OSM   H10T12258   0.679   4.577   7.345 -0.4101 -0.8950 -0.6784
  117OSM   C11S12259   0.501   4.657   7.430  0.0780  0.6753  0.4617
  117OSM   H11S12260   0.465   4.552   7.424 -0.2598  0.5224  3.5017
  117OSM   H11T12261   0.420   4.725   7.394  0.1187  0.2671 -0.4367
  117OSM   C12S12262   0.538   4.693   7.583  0.2328 -0.0143  0.7079
  117OSM   H12S12263   0.587   4.792   7.573  1.0852 -0.5766 -1.0743
  117OSM   H12T12264   0.616   4.621   7.617 -0.2618 -0.9797 -0.1511
  117OSM   C13S12265   0.403   4.708   7.664  0.8904 -0.1698  0.1239
  117OSM   H13S12266   0.346   4.613   7.671  1.0342 -0.1405  2.1015
  117OSM   H13T12267   0.329   4.769   7.608  2.3132 -0.4835 -2.2551
  117OSM   C14S12268   0.429   4.752   7.805  0.3475 -0.4903 -0.6728
  117OSM   H14S12269   0.463   4.857   7.795 -1.4820 -0.0366 -2.7928
  117OSM   H14T12270   0.514   4.692   7.844  2.7143  2.9006 -0.1680
  117OSM   C15S12271   0.299   4.748   7.897 -0.3414  0.9119 -0.4530
  117OSM   H15S12272   0.257   4.646   7.895  1.5038 -0.0063  2.0489
  117OSM   H15T12273   0.216   4.815   7.865 -2.9864 -1.2258  1.5640
  117OSM   C16S12274   0.335   4.773   8.046 -0.2573 -0.3450  0.0829
  117OSM   H16S12275   0.391   4.869   8.047  0.3416 -0.6796 -0.8562
  117OSM   H16T12276   0.404   4.693   8.080  0.3690 -0.6452 -1.7997
  117OSM   C17S12277   0.218   4.771   8.146 -0.1771  0.6638 -0.0351
  117OSM   H17S12278   0.161   4.677   8.129  1.4452 -1.0051  3.0675
  117OSM   H17T12279   0.154   4.858   8.121 -0.0884  0.0664 -2.6577
  117OSM   C18S12280   0.265   4.777   8.290 -0.1879 -0.1918 -0.3841
  117OSM   H18S12281   0.300   4.882   8.300  1.8685 -0.8162 -0.5358
  117OSM   H18T12282   0.348   4.709   8.319 -0.2167 -0.4937 -0.9887
  117OSM   H18U12283   0.185   4.763   8.365  1.2514  2.9162  1.9306
  117OSM    C1F12284   0.359   4.110   6.667  0.0257 -0.6583  0.5181
  117OSM     OF12285   0.395   4.009   6.610  0.2032  0.2584 -0.6921
  117OSM    C2F12286   0.264   4.114   6.787 -0.4701  0.1955 -0.4920
  117OSM    H2F12287   0.179   4.183   6.764 -2.7557 -2.7054 -1.3192
  117OSM    H2G12288   0.330   4.150   6.869 -0.9454 -1.2363  0.5557
  117OSM    C3F12289   0.203   3.972   6.825 -0.5521  0.4680  0.1627
  117OSM    H3F12290   0.283   3.896   6.840  0.8778  1.9331  0.1977
  117OSM    H3G12291   0.141   3.933   6.741  0.3510  0.5246 -0.5492
  117OSM    C4F12292   0.111   3.972   6.949 -0.9488  0.0915  0.2679
  117OSM    H4F12293   0.054   3.877   6.939  2.2345 -2.1781  1.8325
  117OSM    H4G12294   0.038   4.055   6.957  0.2392  1.1371  0.5209
  117OSM    C5F12295   0.186   3.961   7.078 -0.2294  0.9895  0.1234
  117OSM    H5F12296   0.259   4.041   7.103  0.8049 -0.5050  2.2505
  117OSM    H5G12297   0.257   3.876   7.070  1.6678  2.5043  0.1073
  117OSM    C6F12298   0.091   3.942   7.204  0.3683 -0.5749 -0.3905
  117OSM    H6F12299   0.031   3.851   7.186 -0.4498 -0.9827  3.4883
  117OSM    H6G12300   0.037   4.039   7.210 -0.5116 -1.1026  0.6506
  117OSM    C7F12301   0.161   3.899   7.336 -0.2811  0.0215 -0.6538
  117OSM    H7F12302   0.234   3.974   7.374  1.0738 -1.8410  0.6387
  117OSM    H7G12303   0.227   3.817   7.299  0.4768  1.2066 -2.0715
  117OSM    C8F12304   0.066   3.846   7.448 -0.0217 -0.1563  0.4874
  117OSM    H8F12305  -0.010   3.791   7.388  1.2106 -1.3568 -0.0189
  117OSM    H8G12306   0.023   3.933   7.502  0.6895  0.7673 -0.4171
  117OSM    C9F12307   0.145   3.759   7.549 -0.1099  0.7570 -0.0666
  117OSM    H9F12308   0.222   3.697   7.501  0.8897  1.6810  0.3039
  117OSM   C10F12309   0.137   3.745   7.687 -0.2845 -0.2917 -0.1854
  117OSM   H10F12310   0.216   3.704   7.752  0.2845 -1.6959 -1.6831
  117OSM   C11F12311   0.030   3.824   7.759  0.3030  0.2516  0.6079
  117OSM   H11F12312  -0.063   3.809   7.699  0.5532  1.1718 -0.0247
  117OSM   H11G12313   0.047   3.934   7.760  0.5940  0.2042  1.1424
  117OSM   C12F12314  -0.019   3.772   7.897 -0.0777  0.4165 -0.0891
  117OSM   H12F12315   0.052   3.781   7.982 -1.4028  0.6506  1.0500
  117OSM   H12G12316  -0.065   3.670   7.897 -0.2827  0.5087 -0.5826
  117OSM   C13F12317  -0.125   3.855   7.964  0.0364 -0.4354  0.6498
  117OSM   H13F12318  -0.221   3.845   7.908  1.2574  4.0371 -2.8385
  117OSM   H13G12319  -0.084   3.957   7.950  0.5102 -1.0295 -4.0637
  117OSM   C14F12320  -0.155   3.839   8.113 -0.1765 -0.0926  0.1732
  117OSM   H14F12321  -0.181   3.734   8.138  0.6474  0.3275  3.2875
  117OSM   H14G12322  -0.248   3.898   8.130 -1.4772 -1.9912  0.0189
  117OSM   C15F12323  -0.046   3.881   8.214  0.0929 -0.2738 -0.0199
  117OSM   H15F12324  -0.032   3.987   8.185 -2.0780 -0.4344 -1.8414
  117OSM   H15G12325   0.047   3.822   8.201 -0.8855 -1.8153 -0.2701
  117OSM   C16F12326  -0.100   3.890   8.365  0.4050  0.0748  0.5871
  117OSM   H16F12327  -0.206   3.923   8.363  0.3478 -0.0220 -1.9735
  117OSM   H16G12328  -0.035   3.963   8.418 -3.2276  1.5604  3.3836
  117OSM   C17F12329  -0.102   3.743   8.428  0.0187 -0.0611  0.1850
  117OSM   H17F12330  -0.171   3.684   8.364 -0.0828  0.2308  0.0186
  117OSM   H17G12331  -0.005   3.691   8.420  0.2073  0.5475 -3.0006
  117OSM   C18F12332  -0.143   3.744   8.576  0.5812 -0.1084 -0.4790
  117OSM   H18F12333  -0.164   3.643   8.618  2.1021  0.5522  2.0476
  117OSM   H18G12334  -0.238   3.800   8.588  0.7714  0.7586 -2.4944
  117OSM   H18H12335  -0.066   3.797   8.635 -0.4846  0.0531  0.8061
  118OSM      N12336   0.455   1.905   6.048 -0.4988  0.2041 -0.2328
  118OSM    C1512337   0.422   2.038   6.000  0.3910 -0.2576 -0.1437
  118OSM   H15A12338   0.439   2.038   5.893  0.1437 -0.0446 -0.1856
  118OSM   H15B12339   0.485   2.118   6.036 -0.6214  0.2531  0.5375
  118OSM   H15C12340   0.318   2.067   6.007  0.0295 -1.2261 -1.1073
  118OSM    C1412341   0.344   1.804   6.038 -0.7160  0.7776 -0.2029
  118OSM   H14A12342   0.257   1.851   6.081 -0.1151  0.3553  1.6088
  118OSM   H14B12343   0.377   1.717   6.094  0.4449  1.1209 -0.3340
  118OSM   H14C12344   0.333   1.776   5.935  1.6786  0.6831 -0.5025
  118OSM    C1312345   0.576   1.857   5.976  0.1983  0.1476 -0.3656
  118OSM   H13A12346   0.661   1.921   5.994 -0.3743  1.0433 -0.7631
  118OSM   H13B12347   0.561   1.849   5.869  0.1245  2.0691 -0.5407
  118OSM   H13C12348   0.605   1.763   6.019  3.3892  2.1505  2.3419
  118OSM    C1212349   0.492   1.921   6.197 -0.4125 -0.0412 -0.1052
  118OSM   H12A12350   0.428   1.997   6.239  0.8974  1.2792 -0.3829
  118OSM   H12B12351   0.586   1.971   6.217 -0.1227 -0.9177  0.7988
  118OSM    C1112352   0.491   1.790   6.280 -0.0032  0.1140  0.2886
  118OSM   H11A12353   0.392   1.741   6.293  0.5021 -0.7594  0.9005
  118OSM   H11B12354   0.522   1.836   6.376 -1.0668  1.6455 -0.0476
  118OSM      P12355   0.559   1.539   6.226  0.0294  0.2861 -0.3260
  118OSM    O1312356   0.471   1.516   6.112  0.6394  0.7482 -0.1183
  118OSM    O1412357   0.681   1.459   6.242 -0.0720 -0.3817 -0.0303
  118OSM    O1112358   0.478   1.512   6.355 -0.2590  0.3304 -0.1615
  118OSM    O1212359   0.584   1.696   6.233 -0.2847  0.4016  0.5176
  118OSM    C1S12360   0.448   1.383   6.406  0.2976  0.2495  0.9769
  118OSM    H1S12361   0.538   1.319   6.390 -0.5349 -0.2462 -2.6088
  118OSM    H1T12362   0.369   1.337   6.343  1.8019 -0.1525 -0.7059
  118OSM     NF12363   0.421   1.249   6.615 -0.4043 -0.5020  0.0630
  118OSM    HNF12364   0.335   1.216   6.653 -0.2956 -2.6718 -1.4248
  118OSM    C2S12365   0.414   1.385   6.555 -0.7025 -0.3634 -0.1060
  118OSM    H2S12366   0.490   1.445   6.609 -0.8093 -0.4671  0.1580
  118OSM    C3S12367   0.279   1.458   6.572 -0.3609 -0.2200  0.0635
  118OSM    H3S12368   0.198   1.409   6.515 -1.4111 -0.2597  1.5270
  118OSM     O312369   0.291   1.595   6.529  0.4332 -0.0336  0.5362
  118OSM    HO312370   0.366   1.596   6.469 -0.2971  0.6117 -0.3946
  118OSM    C4S12371   0.243   1.469   6.715  0.3382 -0.3471  0.1723
  118OSM    H4S12372   0.185   1.379   6.736  0.7913 -0.9488 -1.0153
  118OSM    C5S12373   0.287   1.554   6.811  0.7436 -0.2490  0.5513
  118OSM    H5S12374   0.367   1.627   6.787 -1.9062  2.6130 -0.2165
  118OSM    C6S12375   0.237   1.542   6.947  0.3852  1.0477 -0.6307
  118OSM    H6S12376   0.321   1.543   7.020  0.0986  2.2408 -0.3041
  118OSM    H6T12377   0.187   1.446   6.971 -1.6583  2.3467  0.5822
  118OSM    C7S12378   0.143   1.665   6.973  0.0181 -0.5034 -0.3828
  118OSM    H7S12379   0.060   1.675   6.899  0.0380 -0.6718 -0.4290
  118OSM    H7T12380   0.200   1.759   6.959 -1.0046 -0.0067 -1.3867
  118OSM    C8S12381   0.078   1.677   7.115 -0.2055  0.2092 -0.8680
  118OSM    H8S12382   0.029   1.581   7.141  0.1186  0.9469  3.0516
  118OSM    H8T12383   0.011   1.764   7.128  0.9327  1.4543 -2.7637
  118OSM    C9S12384   0.191   1.693   7.212 -0.9153  0.2826 -0.5817
  118OSM    H9S12385   0.274   1.766   7.197  1.6914 -1.7975  2.4278
  118OSM    H9T12386   0.234   1.591   7.219 -2.5539 -0.3861  0.1226
  118OSM   C10S12387   0.137   1.711   7.359  0.7131 -0.0126  0.1728
  118OSM   H10S12388   0.100   1.611   7.392  1.8357 -0.1113  1.2012
  118OSM   H10T12389   0.050   1.780   7.369  1.2127  0.8489 -1.1322
  118OSM   C11S12390   0.244   1.756   7.459 -0.3052 -0.0479 -0.4343
  118OSM   H11S12391   0.293   1.848   7.420 -2.6071  1.0174 -0.9982
  118OSM   H11T12392   0.317   1.673   7.453 -1.1814 -0.8604 -0.0992
  118OSM   C12S12393   0.200   1.759   7.609  0.5242  0.7371  0.0783
  118OSM   H12S12394   0.162   1.659   7.635  2.8771 -0.4503 -0.7455
  118OSM   H12T12395   0.128   1.843   7.614 -0.7017 -0.3789  2.7962
  118OSM   C13S12396   0.320   1.760   7.712  0.9047 -0.2784 -0.9641
  118OSM   H13S12397   0.362   1.860   7.685  1.3480  0.0553  0.8362
  118OSM   H13T12398   0.387   1.672   7.710  2.6491  0.8777  1.0119
  118OSM   C14S12399   0.266   1.773   7.857 -0.6627 -0.1997 -0.3904
  118OSM   H14S12400   0.194   1.696   7.892 -1.5264  1.9457  3.0893
  118OSM   H14T12401   0.212   1.870   7.866  0.9491  0.9741 -2.5441
  118OSM   C15S12402   0.390   1.797   7.948  0.7701 -0.1749  0.2051
  118OSM   H15S12403   0.453   1.871   7.894 -1.2962  2.5686  1.3025
  118OSM   H15T12404   0.447   1.702   7.944 -1.8640 -1.8845  0.8757
  118OSM   C16S12405   0.353   1.828   8.093  0.5556 -0.7054  0.2163
  118OSM   H16S12406   0.281   1.753   8.132 -0.8712  1.0112  1.0135
  118OSM   H16T12407   0.293   1.922   8.097  0.6563 -0.5529 -1.2359
  118OSM   C17S12408   0.469   1.830   8.193  0.2010 -0.0149 -0.4086
  118OSM   H17S12409   0.540   1.901   8.146 -0.4016  0.4388 -0.6389
  118OSM   H17T12410   0.521   1.732   8.183  0.8578  0.1321  1.1988
  118OSM   C18S12411   0.427   1.855   8.337  0.3008  0.8212 -0.6532
  118OSM   H18S12412   0.352   1.937   8.346 -0.8524 -0.2295 -0.2986
  118OSM   H18T12413   0.518   1.881   8.395  1.1927 -1.3429 -1.0046
  118OSM   H18U12414   0.375   1.776   8.396 -1.8236  1.7348 -1.1831
  118OSM    C1F12415   0.534   1.182   6.635  1.0405  0.0370  0.0891
  118OSM     OF12416   0.638   1.213   6.588 -0.6999  0.5842  0.5844
  118OSM    C2F12417   0.523   1.067   6.731 -0.4175  0.8904 -0.2639
  118OSM    H2F12418   0.571   0.982   6.676 -2.0432 -0.8489  0.8813
  118OSM    H2G12419   0.415   1.052   6.749 -0.2732  1.0865  0.8173
  118OSM    C3F12420   0.596   1.102   6.864 -0.6289 -0.6116  0.0488
  118OSM    H3F12421   0.706   1.094   6.846 -0.3315 -0.3681  1.5823
  118OSM    H3G12422   0.594   1.016   6.934 -0.1192 -1.9506 -1.5310
  118OSM    C4F12423   0.551   1.221   6.950  0.2205  0.7226 -0.4390
  118OSM    H4F12424   0.440   1.224   6.956  0.2178  0.4872 -0.3391
  118OSM    H4G12425   0.574   1.309   6.886  2.2787  0.9454  0.5355
  118OSM    C5F12426   0.621   1.220   7.086 -0.3374  0.3282 -0.2394
  118OSM    H5F12427   0.732   1.216   7.078 -0.2477 -0.1982  1.0654
  118OSM    H5G12428   0.579   1.127   7.131 -1.2067 -0.2820 -2.2139
  118OSM    C6F12429   0.578   1.350   7.164  0.5766  0.0174  0.4013
  118OSM    H6F12430   0.595   1.334   7.273  2.2140 -0.1212  0.1563
  118OSM    H6G12431   0.472   1.373   7.139  0.5495 -2.1145 -1.7468
  118OSM    C7F12432   0.673   1.468   7.123  0.2168 -0.3037 -0.9198
  118OSM    H7F12433   0.616   1.498   7.033 -1.3330 -1.5657 -0.4093
  118OSM    H7G12434   0.767   1.416   7.094  1.1657  1.4395 -1.0763
  118OSM    C8F12435   0.677   1.576   7.236  0.8245  0.3992 -1.0819
  118OSM    H8F12436   0.751   1.542   7.311  1.9672 -0.3420 -2.5029
  118OSM    H8G12437   0.575   1.585   7.277  1.6881  1.6617  0.9453
  118OSM    C9F12438   0.719   1.706   7.186  0.1973  0.1531  0.5849
  118OSM    H9F12439   0.754   1.701   7.081  1.6458  0.1111  1.0479
  118OSM   C10F12440   0.710   1.813   7.257  0.4960 -0.3333  0.3379
  118OSM   H10F12441   0.734   1.910   7.211  1.1736 -1.0975 -0.9680
  118OSM   C11F12442   0.654   1.822   7.393  0.2350  0.1076  0.4204
  118OSM   H11F12443   0.586   1.743   7.432  0.9212 -0.8904 -0.3309
  118OSM   H11G12444   0.599   1.918   7.397  1.0771  0.5680  2.8417
  118OSM   C12F12445   0.763   1.839   7.505  0.8673  0.8143  0.0928
  118OSM   H12F12446   0.844   1.907   7.473  1.2229 -0.3501 -1.6349
  118OSM   H12G12447   0.794   1.733   7.514 -0.8039  0.3289  0.4494
  118OSM   C13F12448   0.694   1.903   7.630  0.1774 -0.3753  0.4464
  118OSM   H13F12449   0.601   1.844   7.642  1.2553 -2.4093 -0.6974
  118OSM   H13G12450   0.662   2.006   7.603  0.7570 -0.5952 -1.2384
  118OSM   C14F12451   0.779   1.921   7.756  0.6249  0.3251  0.5628
  118OSM   H14F12452   0.713   1.979   7.824 -0.2383 -0.4505  0.4148
  118OSM   H14G12453   0.876   1.972   7.738  0.9196 -1.0981 -2.3318
  118OSM   C15F12454   0.813   1.789   7.825 -0.1422 -0.0555 -0.0687
  118OSM   H15F12455   0.883   1.732   7.760 -2.2632  0.5677 -3.0896
  118OSM   H15G12456   0.723   1.725   7.838  0.0138  0.0268  1.6522
  118OSM   C16F12457   0.873   1.808   7.966 -0.6344 -0.1216  0.2854
  118OSM   H16F12458   0.791   1.845   8.031  0.3844  0.1172  1.4545
  118OSM   H16G12459   0.963   1.873   7.965  0.8700 -2.0576 -2.4172
  118OSM   C17F12460   0.908   1.671   8.018  0.2459  0.7071  0.7887
  118OSM   H17F12461   0.989   1.678   8.095  0.9545 -0.8743  0.2306
  118OSM   H17G12462   0.951   1.613   7.934 -0.5927 -0.0119  0.8428
  118OSM   C18F12463   0.781   1.590   8.061  0.1307  0.2275  0.2670
  118OSM   H18F12464   0.732   1.574   7.962 -0.3267  1.5075  0.2687
  118OSM   H18G12465   0.716   1.655   8.123 -1.1468 -0.1399 -0.6442
  118OSM   H18H12466   0.798   1.490   8.105 -1.0530 -0.5001 -0.8732
  119OSM      N12467   5.512   4.026   5.870 -0.5426 -0.3730 -0.2818
  119OSM    C1512468   5.432   4.121   5.958 -0.0673  0.7267 -0.1287
  119OSM   H15A12469   5.344   4.072   5.996  1.0475 -0.8007  0.5760
  119OSM   H15B12470   5.403   4.210   5.903  2.0738  1.3588 -0.3446
  119OSM   H15C12471   5.494   4.153   6.040 -0.6468 -2.7260  1.8268
  119OSM    C1412472   5.561   3.914   5.944  0.1752 -0.1541 -0.5809
  119OSM   H14A12473   5.640   3.865   5.888  0.8819  1.1104 -0.7268
  119OSM   H14B12474   5.485   3.849   5.985  1.2908 -0.1328  1.6446
  119OSM   H14C12475   5.615   3.952   6.029 -0.4485 -0.4842 -0.0276
  119OSM    C1312476   5.427   3.966   5.760 -0.0311 -0.1232 -0.4259
  119OSM   H13A12477   5.376   4.041   5.702 -0.4532  0.8364  1.1373
  119OSM   H13B12478   5.350   3.903   5.802 -0.1385 -0.0886 -0.5713
  119OSM   H13C12479   5.490   3.913   5.689 -1.2616 -2.3798  0.0774
  119OSM    C1212480   5.640   4.096   5.816  0.0189 -0.4257  0.5986
  119OSM   H12A12481   5.605   4.179   5.756  1.5376 -0.1066  0.0999
  119OSM   H12B12482   5.700   4.035   5.751  3.3843  0.2381  2.8318
  119OSM    C1112483   5.741   4.163   5.920  0.1921  0.2282  0.4891
  119OSM   H11A12484   5.818   4.219   5.864  1.2767  0.0912  1.8088
  119OSM   H11B12485   5.800   4.081   5.965  1.0387  0.3320 -0.4175
  119OSM      P12486   5.647   4.400   5.975 -0.2780 -0.4697 -0.3079
  119OSM    O1312487   5.697   4.421   5.831 -0.0398  0.1644 -0.7267
  119OSM    O1412488   5.506   4.429   6.004  0.0565  0.0858 -0.3279
  119OSM    O1112489   5.745   4.485   6.071 -0.6493  0.1460  0.2437
  119OSM    O1212490   5.680   4.252   6.016  0.2865 -0.0867 -0.0354
  119OSM    C1S12491   5.706   4.522   6.205  0.6135 -0.0369  0.2551
  119OSM    H1S12492   5.599   4.548   6.219  0.5429  1.7882 -2.7677
  119OSM    H1T12493   5.759   4.616   6.228 -1.4189  0.8839  1.4809
  119OSM     NF12494   5.683   4.455   6.445 -0.2149  0.3826 -0.0642
  119OSM    HNF12495   5.735   4.522   6.498 -2.0868  2.1143 -0.3228
  119OSM    C2S12496   5.736   4.418   6.317  0.2201  0.2988 -0.3165
  119OSM    H2S12497   5.691   4.318   6.295  1.6697 -0.9894  2.1216
  119OSM    C3S12498   5.887   4.381   6.318  0.0489 -0.4833  0.0911
  119OSM    H3S12499   5.950   4.472   6.317  0.4633 -0.7462  1.1627
  119OSM     O312500   5.922   4.312   6.199 -0.1684 -0.0732  0.2569
  119OSM    HO312501   5.845   4.311   6.142  2.2764  1.5256 -3.4836
  119OSM    C4S12502   5.918   4.300   6.444 -0.3063 -0.0253 -0.4788
  119OSM    H4S12503   5.863   4.205   6.452 -1.4529  0.6473 -0.1964
  119OSM    C5S12504   6.013   4.334   6.536 -0.0960  0.8205 -0.1882
  119OSM    H5S12505   6.076   4.422   6.515 -1.0449  1.6880  0.5245
  119OSM    C6S12506   6.031   4.247   6.661  0.0532 -0.1586  0.2052
  119OSM    H6S12507   6.107   4.166   6.653  0.2828  0.0548  0.1889
  119OSM    H6T12508   5.936   4.198   6.688 -0.5138  1.3204  0.9973
  119OSM    C7S12509   6.054   4.345   6.780  0.4016 -0.8513  0.0797
  119OSM    H7S12510   5.971   4.419   6.769  0.8734 -0.4461 -0.9162
  119OSM    H7T12511   6.148   4.401   6.762 -1.4411  3.6748  2.7000
  119OSM    C8S12512   6.042   4.271   6.922 -0.0146  0.1932  0.3024
  119OSM    H8S12513   6.096   4.175   6.910  0.0350  0.1030  1.1795
  119OSM    H8T12514   5.935   4.242   6.923 -0.7698  2.7048  0.4264
  119OSM    C9S12515   6.085   4.353   7.053  0.0404  0.5042 -0.1214
  119OSM    H9S12516   6.036   4.451   7.071 -2.1838 -0.7315  0.9200
  119OSM    H9T12517   6.193   4.371   7.033  0.3340 -0.2414  0.6923
  119OSM   C10S12518   6.065   4.280   7.196  0.3776 -0.7344  0.7237
  119OSM   H10S12519   6.123   4.185   7.189  1.2117 -0.1408 -1.7683
  119OSM   H10T12520   5.957   4.261   7.209  0.3837 -1.1349  0.2197
  119OSM   C11S12521   6.126   4.369   7.307 -0.0346  0.2216 -0.9584
  119OSM   H11S12522   6.081   4.470   7.296 -1.6511 -0.6616 -3.2099
  119OSM   H11T12523   6.237   4.374   7.304  0.0875  0.4019  1.7720
  119OSM   C12S12524   6.093   4.313   7.443  0.1271  0.1143 -0.0498
  119OSM   H12S12525   6.119   4.205   7.450  0.9784  0.2687 -0.6949
  119OSM   H12T12526   5.983   4.315   7.460 -0.1304  4.1557 -1.1541
  119OSM   C13S12527   6.170   4.384   7.553 -0.1092 -0.9542 -0.0808
  119OSM   H13S12528   6.164   4.492   7.525  1.1602 -0.7950  0.1686
  119OSM   H13T12529   6.278   4.360   7.544  0.8512  2.4297  0.9049
  119OSM   C14S12530   6.118   4.347   7.694 -0.7806  0.0076 -1.0831
  119OSM   H14S12531   6.104   4.236   7.696 -2.4023  0.1950  0.6879
  119OSM   H14T12532   6.026   4.407   7.708  0.0297  0.7961  1.2767
  119OSM   C15S12533   6.216   4.393   7.809 -0.0215  0.0253  0.1785
  119OSM   H15S12534   6.234   4.502   7.794 -1.2430 -0.0980 -2.9897
  119OSM   H15T12535   6.307   4.336   7.779 -0.0451 -0.0461  0.2444
  119OSM   C16S12536   6.185   4.353   7.956 -0.3298  0.2713  0.5790
  119OSM   H16S12537   6.189   4.242   7.965 -1.3101  0.2014  0.3095
  119OSM   H16T12538   6.092   4.407   7.986 -0.3918  0.7372 -0.4048
  119OSM   C17S12539   6.288   4.399   8.051  0.0548 -0.1809  0.1193
  119OSM   H17S12540   6.257   4.406   8.158  0.4285  1.7588  0.1384
  119OSM   H17T12541   6.298   4.506   8.022 -2.9282  0.2682  0.4316
  119OSM   C18S12542   6.411   4.310   8.042 -0.5424 -0.1046 -0.4104
  119OSM   H18S12543   6.499   4.369   8.077  0.2981  0.7360 -3.6153
  119OSM   H18T12544   6.431   4.276   7.938  2.8794  1.3263 -0.3763
  119OSM   H18U12545   6.398   4.232   8.120 -2.6267  2.3474  1.8946
  119OSM    C1F12546   5.555   4.439   6.474 -0.3817 -0.4212 -0.7140
  119OSM     OF12547   5.482   4.394   6.390  0.0017 -0.2677  0.8260
  119OSM    C2F12548   5.503   4.486   6.600 -0.6873 -0.1310 -0.2156
  119OSM    H2F12549   5.397   4.520   6.595 -0.9528 -0.5470  1.6458
  119OSM    H2G12550   5.558   4.576   6.633 -2.5741  1.2435 -0.6506
  119OSM    C3F12551   5.481   4.368   6.702  0.3555 -0.2438  0.4609
  119OSM    H3F12552   5.442   4.282   6.642  0.7353 -0.5388  0.6286
  119OSM    H3G12553   5.400   4.408   6.766 -0.7935  0.3290 -1.2812
  119OSM    C4F12554   5.603   4.313   6.775  0.1422  0.0787  0.6822
  119OSM    H4F12555   5.653   4.398   6.825 -0.8868  2.0348 -1.4446
  119OSM    H4G12556   5.668   4.261   6.700  0.9266  0.7368  0.8894
  119OSM    C5F12557   5.577   4.211   6.886 -0.5717 -0.9144  0.1643
  119OSM    H5F12558   5.661   4.159   6.937  0.0789  0.9634  1.0956
  119OSM    H5G12559   5.516   4.129   6.842  1.1502 -0.9269 -2.3956
  119OSM    C6F12560   5.503   4.274   7.003 -0.1447 -0.5603  0.1275
  119OSM    H6F12561   5.479   4.196   7.079  0.8265  0.5267  1.5957
  119OSM    H6G12562   5.403   4.311   6.970 -0.1031  0.1935  0.7997
  119OSM    C7F12563   5.592   4.373   7.085  0.2179 -0.8893 -0.1987
  119OSM    H7F12564   5.609   4.460   7.018 -0.7002 -1.4150 -1.1399
  119OSM    H7G12565   5.693   4.332   7.110 -1.0557 -2.4155  3.0594
  119OSM    C8F12566   5.529   4.430   7.214  0.8318 -0.1565  0.3241
  119OSM    H8F12567   5.428   4.474   7.202  0.1536 -0.8983  2.7742
  119OSM    H8G12568   5.599   4.509   7.251  1.1554 -0.0158 -0.5584
  119OSM    C9F12569   5.530   4.332   7.328 -0.7098 -0.0837  0.2639
  119OSM    H9F12570   5.468   4.243   7.306  0.5967 -0.9658  0.0548
  119OSM   C10F12571   5.597   4.336   7.441 -0.2268  0.0360 -0.2561
  119OSM   H10F12572   5.582   4.258   7.517 -2.3402  0.2061 -0.4326
  119OSM   C11F12573   5.697   4.443   7.483 -0.6221  0.5504  0.2450
  119OSM   H11F12574   5.750   4.490   7.397 -0.0983 -0.1464  0.1730
  119OSM   H11G12575   5.779   4.380   7.525  0.9083  0.9869 -1.9217
  119OSM   C12F12576   5.651   4.545   7.578  0.1289  0.0078 -0.0777
  119OSM   H12F12577   5.552   4.582   7.542  0.5217  0.8826 -0.2910
  119OSM   H12G12578   5.716   4.634   7.569 -0.4746  0.8769  2.9713
  119OSM   C13F12579   5.643   4.496   7.726  0.4598  0.3411  0.4667
  119OSM   H13F12580   5.736   4.453   7.768  0.2806  1.5224  2.1835
  119OSM   H13G12581   5.562   4.421   7.740  0.4176  0.2624 -0.1772
  119OSM   C14F12582   5.606   4.621   7.812 -0.0221 -0.8633 -0.1353
  119OSM   H14F12583   5.526   4.688   7.774  1.6510  0.2173 -1.9448
  119OSM   H14G12584   5.696   4.685   7.801 -2.4743  2.8506 -0.7379
  119OSM   C15F12585   5.574   4.580   7.951  0.3322  0.5838 -0.2308
  119OSM   H15F12586   5.666   4.525   7.981  0.7548  1.3987  0.0071
  119OSM   H15G12587   5.481   4.520   7.944 -0.4899  1.9242 -1.2404
  119OSM   C16F12588   5.541   4.705   8.037  0.3496  0.8008  0.0602
  119OSM   H16F12589   5.446   4.755   8.008 -0.8804 -1.5433 -0.2373
  119OSM   H16G12590   5.625   4.778   8.035 -0.0737  1.2904 -1.5693
  119OSM   C17F12591   5.515   4.648   8.180  0.4151 -0.1896 -0.0750
  119OSM   H17F12592   5.431   4.575   8.172  0.4071 -0.1255 -0.6532
  119OSM   H17G12593   5.466   4.728   8.239  0.0730 -0.5050  0.0729
  119OSM   C18F12594   5.634   4.589   8.252 -0.3561 -0.1397 -0.4124
  119OSM   H18F12595   5.601   4.547   8.350 -0.0286  2.0392  0.6854
  119OSM   H18G12596   5.718   4.661   8.249 -0.4579 -0.0372 -0.8838
  119OSM   H18H12597   5.666   4.506   8.185  0.9733 -0.0257  0.0636
  120OSM      N12598   2.130   4.846   6.037  0.6498  0.3664 -0.3261
  120OSM    C1512599   2.077   4.932   5.923 -0.5025 -0.3127 -0.0369
  120OSM   H15A12600   2.028   5.020   5.961  1.0264  0.1336  1.0132
  120OSM   H15B12601   2.002   4.879   5.867  1.3326 -2.9763 -0.1696
  120OSM   H15C12602   2.159   4.962   5.860 -1.3365  0.6425 -0.6864
  120OSM    C1412603   2.022   4.772   6.106  0.6562 -0.2732  0.0030
  120OSM   H14A12604   2.048   4.734   6.204 -2.2817 -0.0392  0.9469
  120OSM   H14B12605   1.970   4.693   6.055 -0.4292 -0.8801  1.9157
  120OSM   H14C12606   1.947   4.847   6.128 -1.1413 -1.7545 -0.9551
  120OSM    C1312607   2.218   4.732   5.982 -0.7236 -0.8782  0.3454
  120OSM   H13A12608   2.235   4.656   6.057 -3.6742 -3.2518 -1.1734
  120OSM   H13B12609   2.316   4.768   5.955 -0.7402 -1.3641 -0.3854
  120OSM   H13C12610   2.165   4.690   5.898 -1.0341 -1.0674  0.6281
  120OSM    C1212611   2.210   4.935   6.130  0.1421 -0.4043  0.5252
  120OSM   H12A12612   2.265   5.002   6.066 -0.7639  0.1970  0.3613
  120OSM   H12B12613   2.279   4.875   6.188  1.8974 -1.2856 -2.2483
  120OSM    C1112614   2.125   5.023   6.229  0.8123  1.4539 -0.1580
  120OSM   H11A12615   2.210   5.056   6.293  1.7439 -1.0762  0.0229
  120OSM   H11B12616   2.067   4.951   6.291  2.0390  0.7246  0.1657
  120OSM      P12617   2.122   5.251   6.110 -0.2341  0.2464  0.0269
  120OSM    O1312618   2.265   5.222   6.092 -0.7196 -0.4344 -0.4706
  120OSM    O1412619   2.039   5.309   5.998  0.1963  0.5776  0.2779
  120OSM    O1112620   2.122   5.344   6.236 -0.8007  0.1270  0.9021
  120OSM    O1212621   2.052   5.128   6.168 -0.2435  0.5351 -0.4291
  120OSM    C1S12622   2.007   5.378   6.315 -0.6980 -0.1750 -0.7978
  120OSM    H1S12623   1.912   5.369   6.259 -1.5456 -0.9023  0.6779
  120OSM    H1T12624   2.017   5.483   6.349 -2.6139  0.0593 -0.8477
  120OSM     NF12625   1.892   5.340   6.538  0.3097 -0.0867  0.8640
  120OSM    HNF12626   1.919   5.374   6.627  1.2459 -1.7214  1.2412
  120OSM    C2S12627   2.010   5.303   6.457  0.3374  0.4148  0.1857
  120OSM    H2S12628   2.002   5.196   6.431  0.8019  0.2274  0.7952
  120OSM    C3S12629   2.144   5.322   6.530 -0.3298 -0.6998 -0.0256
  120OSM    H3S12630   2.143   5.425   6.571 -2.3225  0.4835 -2.7095
  120OSM     O312631   2.265   5.301   6.455  0.2833 -0.3450  0.3211
  120OSM    HO312632   2.233   5.313   6.366  2.2456  0.2299 -0.3456
  120OSM    C4S12633   2.136   5.223   6.643  0.6135  0.0474 -0.6328
  120OSM    H4S12634   2.103   5.269   6.737 -0.2882  1.3876 -1.5691
  120OSM    C5S12635   2.166   5.094   6.649  0.3306 -0.2779  0.1104
  120OSM    H5S12636   2.213   5.060   6.555  1.5868  2.8109 -0.5096
  120OSM    C6S12637   2.156   4.997   6.774  0.4078 -0.1131  0.1152
  120OSM    H6S12638   2.252   4.992   6.829  0.7269  0.7785 -0.3372
  120OSM    H6T12639   2.138   4.891   6.744  0.6407 -0.5345  1.3907
  120OSM    C7S12640   2.043   5.021   6.878 -0.1286  0.1745 -0.3387
  120OSM    H7S12641   1.946   5.015   6.824 -1.0436  0.7527  1.2096
  120OSM    H7T12642   2.053   5.125   6.914  0.6972 -0.1222  0.3358
  120OSM    C8S12643   2.037   4.928   7.000 -0.2590  0.1222  0.3888
  120OSM    H8S12644   2.129   4.930   7.062 -0.5694 -1.3569  0.9169
  120OSM    H8T12645   2.016   4.825   6.965  0.5043 -1.2851  3.6629
  120OSM    C9S12646   1.919   4.969   7.088 -0.0206 -0.4574  0.1390
  120OSM    H9S12647   1.823   4.957   7.034  1.1083 -1.3845 -1.7825
  120OSM    H9T12648   1.939   5.076   7.106  0.6006 -0.3980 -0.8395
  120OSM   C10S12649   1.925   4.883   7.216  0.6044 -1.1586  0.3634
  120OSM   H10S12650   2.027   4.861   7.254  1.5049  2.5298  0.4978
  120OSM   H10T12651   1.867   4.791   7.194 -2.7461  0.8964 -0.1636
  120OSM   C11S12652   1.832   4.942   7.329 -0.0054 -0.5388 -0.4035
  120OSM   H11S12653   1.746   4.981   7.270  1.2556 -0.7321 -2.4491
  120OSM   H11T12654   1.884   5.027   7.378  0.4818 -0.2684 -1.3759
  120OSM   C12S12655   1.797   4.835   7.432 -0.5793  0.0256 -0.4139
  120OSM   H12S12656   1.750   4.747   7.382  1.3712 -2.3048  1.5947
  120OSM   H12T12657   1.718   4.872   7.501 -1.1538 -1.3048 -0.3223
  120OSM   C13S12658   1.912   4.756   7.508  0.4787  0.6980 -0.0472
  120OSM   H13S12659   1.982   4.831   7.550 -0.2956 -0.2736  3.2096
  120OSM   H13T12660   1.966   4.675   7.455 -1.9401  0.5299 -2.5162
  120OSM   C14S12661   1.844   4.672   7.618  0.3879 -0.2463  0.2776
  120OSM   H14S12662   1.796   4.587   7.566  0.5863  1.3005 -2.5891
  120OSM   H14T12663   1.767   4.741   7.658 -1.8599 -2.1973 -0.4239
  120OSM   C15S12664   1.942   4.614   7.716  0.1624  0.2358  1.1973
  120OSM   H15S12665   2.009   4.694   7.753 -0.1333  0.5929  0.9582
  120OSM   H15T12666   2.007   4.544   7.659  0.0949 -0.6752  2.1910
  120OSM   C16S12667   1.862   4.542   7.828  0.3200 -0.3753 -0.2132
  120OSM   H16S12668   1.808   4.454   7.787  0.7079 -1.4297  1.4426
  120OSM   H16T12669   1.793   4.616   7.873  0.2979  0.4518 -1.5582
  120OSM   C17S12670   1.950   4.485   7.945  0.7213 -0.1578 -0.2294
  120OSM   H17S12671   2.010   4.566   7.992 -0.4224  0.2331  0.5780
  120OSM   H17T12672   2.017   4.401   7.916  1.4661 -0.9440  3.2914
  120OSM   C18S12673   1.873   4.424   8.059  0.0590 -0.1192 -0.4062
  120OSM   H18S12674   1.826   4.500   8.125  1.0604 -0.1047  0.3239
  120OSM   H18T12675   1.949   4.376   8.125  1.6644 -0.6689 -2.5662
  120OSM   H18U12676   1.797   4.353   8.019 -0.4388  0.6369 -0.8191
  120OSM    C1F12677   1.763   5.316   6.511  0.7052  0.3154 -0.3056
  120OSM     OF12678   1.734   5.263   6.405  1.2640  0.2601 -0.1797
  120OSM    C2F12679   1.663   5.363   6.607 -0.1747  0.1336  0.0077
  120OSM    H2F12680   1.567   5.391   6.558 -0.3240 -1.8825 -0.9762
  120OSM    H2G12681   1.703   5.452   6.659 -0.5474 -0.2979  1.0643
  120OSM    C3F12682   1.630   5.259   6.725  0.1967  0.5929 -0.1077
  120OSM    H3F12683   1.569   5.175   6.684 -2.2763  1.9180  0.6693
  120OSM    H3G12684   1.549   5.309   6.782 -1.2092  0.6120 -2.0134
  120OSM    C4F12685   1.744   5.211   6.816  0.5236  0.2679 -0.2314
  120OSM    H4F12686   1.841   5.208   6.763  0.4071 -1.7194 -0.4291
  120OSM    H4G12687   1.736   5.108   6.857 -0.8920  0.4801  0.0929
  120OSM    C5F12688   1.751   5.292   6.951 -0.3465  0.3483  0.1927
  120OSM    H5F12689   1.726   5.398   6.931 -0.2760  0.2103 -0.6649
  120OSM    H5G12690   1.855   5.292   6.991 -0.5677 -1.1816  0.8556
  120OSM    C6F12691   1.663   5.243   7.063 -0.4314 -0.0582 -0.0942
  120OSM    H6F12692   1.684   5.295   7.159  5.2427  0.0697 -1.0861
  120OSM    H6G12693   1.676   5.133   7.069  1.4061  0.1757  0.7027
  120OSM    C7F12694   1.516   5.271   7.039  0.3605 -0.1035 -0.1157
  120OSM    H7F12695   1.487   5.188   6.971  2.8821 -1.9213  0.8914
  120OSM    H7G12696   1.483   5.369   6.997 -1.7334 -0.7486 -0.0967
  120OSM    C8F12697   1.429   5.249   7.166 -0.4424 -0.0522  0.3688
  120OSM    H8F12698   1.470   5.152   7.203  2.6276  0.7854 -0.5490
  120OSM    H8G12699   1.322   5.237   7.137 -0.4933 -1.4381  1.0366
  120OSM    C9F12700   1.434   5.356   7.263  0.1099 -0.6832 -0.4768
  120OSM    H9F12701   1.410   5.458   7.228  0.9309 -0.3740 -0.1442
  120OSM   C10F12702   1.480   5.349   7.390  0.0599 -0.1748 -0.3357
  120OSM   H10F12703   1.471   5.445   7.442  1.0125 -2.1776  3.9181
  120OSM   C11F12704   1.523   5.233   7.468 -0.1159  0.8471  0.2172
  120OSM   H11F12705   1.626   5.206   7.436 -0.6053 -0.3876 -0.4137
  120OSM   H11G12706   1.464   5.142   7.443 -0.0010  0.9647 -0.5096
  120OSM   C12F12707   1.525   5.252   7.622  0.4180  0.1650  0.1369
  120OSM   H12F12708   1.602   5.328   7.651 -0.4281  0.0854  2.8107
  120OSM   H12G12709   1.543   5.161   7.683  0.1557 -0.0800 -0.1509
  120OSM   C13F12710   1.400   5.319   7.693 -0.2691 -0.2752  0.3926
  120OSM   H13F12711   1.321   5.242   7.704 -0.2312 -0.4619 -0.5646
  120OSM   H13G12712   1.361   5.400   7.628  2.0827 -0.0457 -0.8428
  120OSM   C14F12713   1.417   5.383   7.837 -0.2896  0.2446  0.5109
  120OSM   H14F12714   1.315   5.403   7.876 -0.9727 -0.8010 -0.6733
  120OSM   H14G12715   1.473   5.479   7.842  0.7932 -0.3831  0.6929
  120OSM   C15F12716   1.489   5.288   7.941  0.6559 -0.1107 -0.5993
  120OSM   H15F12717   1.586   5.256   7.897 -0.4415 -0.8350 -2.6199
  120OSM   H15G12718   1.436   5.193   7.963  0.9183 -0.1480 -0.1150
  120OSM   C16F12719   1.507   5.363   8.071 -0.3741 -0.6796 -0.6554
  120OSM   H16F12720   1.414   5.381   8.128  0.1435  0.4345 -0.1388
  120OSM   H16G12721   1.542   5.465   8.047 -0.3409 -0.3214  0.7960
  120OSM   C17F12722   1.620   5.309   8.154 -0.1705 -0.0112  0.0800
  120OSM   H17F12723   1.707   5.294   8.087  1.3521  1.3325  1.6509
  120OSM   H17G12724   1.601   5.212   8.204  0.0710  0.0720  0.3344
  120OSM   C18F12725   1.674   5.404   8.256 -0.1129  0.2093 -0.0851
  120OSM   H18F12726   1.766   5.357   8.297 -0.0202 -0.6162 -1.1982
  120OSM   H18G12727   1.595   5.424   8.332 -0.2128 -2.7088  0.6737
  120OSM   H18H12728   1.707   5.497   8.204  3.8707  0.1633  2.0426
  121OSM      N12729   6.064   0.823   5.874 -0.8321  0.2785  0.5361
  121OSM    C1512730   6.205   0.771   5.865  0.2364 -0.0631  0.5240
  121OSM   H15A12731   6.221   0.727   5.767 -0.9287 -0.0589  0.3096
  121OSM   H15B12732   6.221   0.698   5.943 -0.6798  0.4761  1.2473
  121OSM   H15C12733   6.267   0.857   5.882  0.4017 -0.2324  0.7803
  121OSM    C1412734   6.054   0.901   5.999  0.2654 -0.4724  0.3903
  121OSM   H14A12735   6.046   0.838   6.086  1.9037 -0.5259  0.5317
  121OSM   H14B12736   5.968   0.967   5.999  1.4366  1.2097  2.3355
  121OSM   H14C12737   6.131   0.974   6.022 -0.7569  0.0535  2.3883
  121OSM    C1312738   6.048   0.906   5.754  0.2694 -0.3487  0.1054
  121OSM   H13A12739   5.950   0.950   5.744  0.4277  0.0981  0.5052
  121OSM   H13B12740   6.069   0.853   5.662 -0.1049 -1.0989  0.4397
  121OSM   H13C12741   6.124   0.983   5.745  2.6228 -2.3569  1.5371
  121OSM    C1212742   5.965   0.710   5.883 -0.4197  0.0956 -0.4139
  121OSM   H12A12743   5.975   0.649   5.794  1.2644  0.5225 -0.5474
  121OSM   H12B12744   5.863   0.744   5.893  0.1726  1.4975  1.4087
  121OSM    C1112745   5.982   0.610   6.000 -0.4571 -0.7730 -0.7613
  121OSM   H11A12746   6.085   0.569   5.994  0.3924  0.8309  1.2767
  121OSM   H11B12747   5.919   0.520   5.985 -1.7200  0.0882 -0.8081
  121OSM      P12748   5.817   0.685   6.180 -0.2788 -0.1082  0.5217
  121OSM    O1312749   5.811   0.765   6.304 -0.3682  0.5700  0.1883
  121OSM    O1412750   5.738   0.721   6.061  0.4189  0.4747  0.3207
  121OSM    O1112751   5.783   0.537   6.216  0.3841  0.3975  0.1164
  121OSM    O1212752   5.964   0.672   6.128  0.2844 -0.1249  0.8543
  121OSM    C1S12753   5.872   0.473   6.305 -0.1671  0.2693 -0.2340
  121OSM    H1S12754   5.966   0.531   6.316 -1.8265  3.5075 -1.7774
  121OSM    H1T12755   5.883   0.372   6.261  1.9895  0.1984  0.3482
  121OSM     NF12756   5.910   0.398   6.532  1.3085  0.2584  0.5488
  121OSM    HNF12757   5.909   0.300   6.548  0.5508  0.0535 -0.6684
  121OSM    C2S12758   5.811   0.458   6.447  0.1289 -0.1390 -0.0069
  121OSM    H2S12759   5.788   0.554   6.496  0.9298  0.8037 -1.3923
  121OSM    C3S12760   5.677   0.367   6.431 -0.0802  0.5010  0.1230
  121OSM    H3S12761   5.699   0.271   6.380 -0.6539  0.5162 -0.1604
  121OSM     O312762   5.565   0.423   6.359  0.1631  0.3031 -0.2771
  121OSM    HO312763   5.595   0.510   6.330  0.3599  0.2294 -0.2997
  121OSM    C4S12764   5.633   0.316   6.564 -0.5429 -0.3071  1.0855
  121OSM    H4S12765   5.577   0.393   6.619 -2.9967 -0.6939 -0.7022
  121OSM    C5S12766   5.647   0.195   6.613  0.0054  0.2587  0.7804
  121OSM    H5S12767   5.702   0.118   6.556 -3.2968 -2.8066  1.4341
  121OSM    C6S12768   5.613   0.148   6.754 -0.0738 -0.4369 -0.0705
  121OSM    H6S12769   5.593   0.039   6.752 -1.7502 -0.1637  0.8513
  121OSM    H6T12770   5.523   0.198   6.795  2.3230  2.9995  1.4392
  121OSM    C7S12771   5.727   0.186   6.845  0.1873  0.6739  0.3045
  121OSM    H7S12772   5.747   0.295   6.849 -0.7663  0.9179 -0.7427
  121OSM    H7T12773   5.820   0.143   6.801  0.0848  2.0544 -1.3651
  121OSM    C8S12774   5.714   0.141   6.992  0.3181 -0.2185 -0.3700
  121OSM    H8S12775   5.699   0.031   6.988  0.8275 -0.2439 -2.3889
  121OSM    H8T12776   5.624   0.194   7.031  0.2496 -0.1637 -0.6035
  121OSM    C9S12777   5.833   0.165   7.084 -0.1632 -0.0334 -0.0930
  121OSM    H9S12778   5.836   0.276   7.080 -0.4097 -0.0587 -1.8281
  121OSM    H9T12779   5.925   0.108   7.056 -0.5211 -0.9024  0.4623
  121OSM   C10S12780   5.812   0.144   7.235  0.4742  0.7369 -0.5565
  121OSM   H10S12781   5.779   0.039   7.251 -2.2189  1.6659  0.5591
  121OSM   H10T12782   5.728   0.204   7.277  0.3387 -0.4663  0.9687
  121OSM   C11S12783   5.944   0.189   7.302  0.0557  0.8692  0.2369
  121OSM   H11S12784   5.979   0.282   7.252 -0.4294  0.9581  0.0628
  121OSM   H11T12785   6.022   0.114   7.276  1.4778  2.3457  0.0478
  121OSM   C12S12786   5.942   0.208   7.457 -0.5240  0.4011  0.1091
  121OSM   H12S12787   5.863   0.280   7.489 -1.4668 -0.5612  0.0032
  121OSM   H12T12788   6.034   0.265   7.480  1.7302 -2.9575  0.1432
  121OSM   C13S12789   5.936   0.081   7.540 -0.5501  0.0468  0.1327
  121OSM   H13S12790   6.037   0.036   7.545 -0.1667  0.7766 -0.6677
  121OSM   H13T12791   5.869   0.008   7.489  0.2707 -0.5264 -0.1451
  121OSM   C14S12792   5.884   0.115   7.681 -0.3186  0.6408 -0.3918
  121OSM   H14S12793   5.780   0.155   7.679 -0.5466  0.0542 -0.5573
  121OSM   H14T12794   5.954   0.188   7.725  1.3474  2.0447 -4.8685
  121OSM   C15S12795   5.882  -0.011   7.767 -0.3313 -0.0213 -0.0721
  121OSM   H15S12796   5.981  -0.061   7.763 -0.5502 -0.9559  3.1572
  121OSM   H15T12797   5.819  -0.088   7.717 -2.2033 -0.3354  2.5554
  121OSM   C16S12798   5.835   0.005   7.912 -1.0355 -0.9519  0.2261
  121OSM   H16S12799   5.724   0.007   7.899 -1.1546 -2.3414  0.7782
  121OSM   H16T12800   5.862   0.095   7.971 -0.4290 -1.2067  0.3459
  121OSM   C17S12801   5.853  -0.121   7.999  0.0594  0.5026 -0.2369
  121OSM   H17S12802   5.955  -0.166   8.001 -0.8302 -1.7396  2.3830
  121OSM   H17T12803   5.778  -0.199   7.971  0.2420  0.2525 -0.0412
  121OSM   C18S12804   5.831  -0.086   8.149 -0.1580 -0.3372  0.3800
  121OSM   H18S12805   5.883   0.010   8.170 -1.3820  0.5205 -0.3350
  121OSM   H18T12806   5.873  -0.168   8.210 -1.0032 -1.1540 -0.1060
  121OSM   H18U12807   5.723  -0.066   8.167 -0.6118 -1.7129 -0.6428
  121OSM    C1F12808   6.010   0.450   6.599 -0.1117  0.2773 -0.0106
  121OSM     OF12809   6.030   0.574   6.600 -0.5635 -0.2171 -0.1203
  121OSM    C2F12810   6.096   0.347   6.671 -0.2265  0.2293  0.3034
  121OSM    H2F12811   6.118   0.269   6.596 -0.3515 -1.7665  2.2432
  121OSM    H2G12812   6.029   0.308   6.751 -0.5328 -0.0400 -0.0795
  121OSM    C3F12813   6.241   0.391   6.721  0.3031 -0.2645  0.8036
  121OSM    H3F12814   6.295   0.437   6.636 -0.6020  0.1286  0.4201
  121OSM    H3G12815   6.308   0.306   6.744  2.2628  1.3830  1.4022
  121OSM    C4F12816   6.235   0.480   6.844 -0.1758 -0.0274  0.1176
  121OSM    H4F12817   6.159   0.558   6.821  1.5566  1.1101 -2.2063
  121OSM    H4G12818   6.325   0.545   6.844 -0.7726  0.9068  2.7995
  121OSM    C5F12819   6.187   0.414   6.967 -0.2068 -0.0362  0.0335
  121OSM    H5F12820   6.261   0.351   7.020 -0.7221  0.2463  1.1037
  121OSM    H5G12821   6.104   0.342   6.951 -0.5327  0.6941 -1.8428
  121OSM    C6F12822   6.139   0.520   7.065 -0.4149 -0.2830 -0.5682
  121OSM    H6F12823   6.209   0.606   7.062 -1.1792  0.4388  1.2171
  121OSM    H6G12824   6.142   0.480   7.168 -0.5243  0.6847 -0.1792
  121OSM    C7F12825   6.000   0.572   7.031 -0.1435 -0.0539  0.3395
  121OSM    H7F12826   5.922   0.502   7.069  0.2498 -0.4559  0.4270
  121OSM    H7G12827   5.988   0.605   6.926  2.2192  3.4909  0.9899
  121OSM    C8F12828   5.982   0.709   7.105  0.1439 -0.1101 -0.3235
  121OSM    H8F12829   6.052   0.783   7.060 -1.3870  1.2742 -0.5081
  121OSM    H8G12830   5.999   0.684   7.212  0.1783 -1.2066 -0.5670
  121OSM    C9F12831   5.841   0.762   7.094  0.8026  0.3837  0.1888
  121OSM    H9F12832   5.810   0.789   6.992  2.7063  1.9036 -0.0232
  121OSM   C10F12833   5.753   0.786   7.200 -0.8116  0.7077 -0.0587
  121OSM   H10F12834   5.652   0.830   7.192  0.3361  3.7754  0.8360
  121OSM   C11F12835   5.797   0.761   7.347 -0.1029 -0.2878 -0.6474
  121OSM   H11F12836   5.740   0.827   7.416  0.7222 -0.2451  0.0192
  121OSM   H11G12837   5.896   0.809   7.361  0.0513 -0.6241 -0.5677
  121OSM   C12F12838   5.785   0.616   7.404 -0.5450 -0.1601 -1.5947
  121OSM   H12F12839   5.843   0.543   7.344  0.0727  0.1495 -1.3878
  121OSM   H12G12840   5.677   0.594   7.392 -0.3647 -0.5463 -2.6563
  121OSM   C13F12841   5.828   0.592   7.554  0.5569  0.8473  0.9692
  121OSM   H13F12842   5.934   0.625   7.558  0.6857  0.3816  1.5727
  121OSM   H13G12843   5.822   0.482   7.568 -0.5907  0.6843 -0.6086
  121OSM   C14F12844   5.737   0.665   7.656  0.0986  0.3755  0.1029
  121OSM   H14F12845   5.638   0.616   7.656  0.5075 -0.5262  2.0712
  121OSM   H14G12846   5.715   0.771   7.633 -0.6070 -0.0316 -1.2103
  121OSM   C15F12847   5.785   0.645   7.799 -0.4131  0.1779 -0.1982
  121OSM   H15F12848   5.859   0.726   7.819 -0.9393  0.7327 -0.4832
  121OSM   H15G12849   5.828   0.544   7.818  0.2957  0.5487  0.2400
  121OSM   C16F12850   5.674   0.658   7.902 -0.0710  0.2346 -0.4638
  121OSM   H16F12851   5.584   0.596   7.882 -0.4661  1.5658 -3.4634
  121OSM   H16G12852   5.660   0.769   7.903  1.4996  0.4732  1.6695
  121OSM   C17F12853   5.721   0.630   8.042  0.1818 -0.2611 -0.1318
  121OSM   H17F12854   5.805   0.699   8.064  1.0664 -1.0546 -0.9189
  121OSM   H17G12855   5.759   0.526   8.051  0.7004  0.0029  0.9614
  121OSM   C18F12856   5.606   0.656   8.138  0.3466 -0.2376 -0.1406
  121OSM   H18F12857   5.613   0.643   8.248 -2.1094 -0.7702  0.0246
  121OSM   H18G12858   5.521   0.591   8.107 -2.4508  2.9275  0.2654
  121OSM   H18H12859   5.576   0.758   8.107 -0.3867 -0.6211 -0.7368
  122OSM      N12860   5.700   2.463   5.907  0.6718 -0.2841 -0.3036
  122OSM    C1512861   5.821   2.381   5.871  0.6511 -0.7552  0.1425
  122OSM   H15A12862   5.910   2.403   5.927  1.7237  0.0183 -1.7660
  122OSM   H15B12863   5.845   2.385   5.765 -2.1952 -0.7873 -0.5949
  122OSM   H15C12864   5.809   2.277   5.900  1.8205 -0.3541  2.1986
  122OSM    C1412865   5.733   2.602   5.862  0.1008  0.2201  0.3992
  122OSM   H14A12866   5.780   2.601   5.765 -4.6098 -1.7394 -2.1529
  122OSM   H14B12867   5.803   2.652   5.928  2.0360 -0.9916 -0.6269
  122OSM   H14C12868   5.644   2.661   5.852 -0.3307 -0.4560  0.2133
  122OSM    C1312869   5.581   2.417   5.828 -0.0486 -0.1098 -0.4920
  122OSM   H13A12870   5.543   2.323   5.866 -3.7023  1.8014  1.1817
  122OSM   H13B12871   5.603   2.412   5.722  3.3577  2.5354 -0.0745
  122OSM   H13C12872   5.486   2.470   5.828  0.2405  0.4698 -1.8650
  122OSM    C1212873   5.674   2.466   6.055 -0.1613 -0.2349 -0.3632
  122OSM   H12A12874   5.595   2.534   6.082 -0.5485 -1.1182  0.8010
  122OSM   H12B12875   5.762   2.511   6.098 -0.4971  1.2052 -1.1252
  122OSM    C1112876   5.650   2.338   6.141  0.2877 -0.3138  0.7645
  122OSM   H11A12877   5.634   2.363   6.248 -2.8963 -0.6255  0.4555
  122OSM   H11B12878   5.732   2.266   6.124  0.0418 -0.4008 -0.0932
  122OSM      P12879   5.388   2.330   6.115  0.3317  0.1404 -0.3339
  122OSM    O1312880   5.398   2.462   6.178  0.2210  0.2887  0.5770
  122OSM    O1412881   5.329   2.332   5.978 -0.3177  0.1210  0.7255
  122OSM    O1112882   5.320   2.232   6.213 -0.8625  0.3931  0.5530
  122OSM    O1212883   5.532   2.271   6.102  0.1422  0.0279 -0.0416
  122OSM    C1S12884   5.363   2.224   6.348 -0.0849 -0.1889  0.5386
  122OSM    H1S12885   5.345   2.318   6.404  0.6582  0.6030 -0.5003
  122OSM    H1T12886   5.471   2.200   6.357  0.2095  0.1060 -1.6334
  122OSM     NF12887   5.329   2.090   6.552 -0.1886  0.4588  0.5664
  122OSM    HNF12888   5.386   2.010   6.568 -0.2545 -0.0221 -1.3592
  122OSM    C2S12889   5.282   2.104   6.413  0.4919  0.4265  0.2611
  122OSM    H2S12890   5.175   2.135   6.409 -0.1960 -1.8786 -0.3184
  122OSM    C3S12891   5.300   1.976   6.329  0.6577 -0.1848 -0.0160
  122OSM    H3S12892   5.409   1.962   6.318  0.7240 -0.7157  1.1226
  122OSM     O312893   5.231   1.986   6.205 -0.0363  0.0032  0.0242
  122OSM    HO312894   5.235   2.081   6.189  2.6708 -0.0991 -0.4317
  122OSM    C4S12895   5.247   1.852   6.391  0.7214 -0.6395  0.1992
  122OSM    H4S12896   5.141   1.863   6.419  0.6134  0.1012 -0.4679
  122OSM    C5S12897   5.317   1.741   6.406  0.4860 -0.8094  0.3058
  122OSM    H5S12898   5.409   1.731   6.346 -0.5097 -2.2220 -1.0434
  122OSM    C6S12899   5.267   1.611   6.460 -0.6565 -0.5305  0.6186
  122OSM    H6S12900   5.288   1.533   6.384 -0.3458 -1.1597  1.3360
  122OSM    H6T12901   5.156   1.607   6.454 -0.5884 -0.4579 -1.6488
  122OSM    C7S12902   5.324   1.563   6.595 -0.4088  0.3196 -0.0945
  122OSM    H7S12903   5.292   1.458   6.613  1.8941 -0.7065 -1.5185
  122OSM    H7T12904   5.299   1.649   6.662  0.0025  0.7032 -0.4289
  122OSM    C8S12905   5.475   1.530   6.587  0.4124 -0.4342  0.1631
  122OSM    H8S12906   5.532   1.623   6.568 -0.7030  0.2737  0.2145
  122OSM    H8T12907   5.495   1.468   6.497  2.2641 -1.5834  1.2891
  122OSM    C9S12908   5.519   1.457   6.706  0.3233  0.0049  0.0127
  122OSM    H9S12909   5.630   1.444   6.704  0.1755 -1.4471  0.0287
  122OSM    H9T12910   5.475   1.356   6.692  0.2158 -0.0033  0.3985
  122OSM   C10S12911   5.480   1.507   6.852  0.9851 -0.3570 -0.0685
  122OSM   H10S12912   5.483   1.429   6.931 -2.0909  0.5914  1.1234
  122OSM   H10T12913   5.373   1.535   6.848  0.6006 -1.7041  0.3616
  122OSM   C11S12914   5.548   1.632   6.893 -0.2576  0.0482 -0.1515
  122OSM   H11S12915   5.544   1.710   6.814  2.1248  1.6612  1.2016
  122OSM   H11T12916   5.655   1.614   6.912  0.5412  2.0817 -2.2368
  122OSM   C12S12917   5.489   1.692   7.024 -0.7924 -0.3611 -0.5206
  122OSM   H12S12918   5.468   1.603   7.088  1.1397  0.5004  1.4303
  122OSM   H12T12919   5.395   1.743   6.997  0.4484  1.2254 -2.0213
  122OSM   C13S12920   5.588   1.789   7.094  0.3341  0.1317  0.3555
  122OSM   H13S12921   5.624   1.869   7.026 -0.0856  1.7807  1.9644
  122OSM   H13T12922   5.670   1.727   7.138  0.1433  0.9331  1.9335
  122OSM   C14S12923   5.526   1.857   7.221 -0.6136 -0.1238 -0.0919
  122OSM   H14S12924   5.451   1.791   7.270 -1.5697  0.8795 -0.1703
  122OSM   H14T12925   5.469   1.943   7.181  1.1803  1.9234  1.5060
  122OSM   C15S12926   5.634   1.910   7.314  0.0986 -0.6962 -0.4623
  122OSM   H15S12927   5.686   1.993   7.263 -1.5051  0.5514 -0.1277
  122OSM   H15T12928   5.712   1.832   7.332 -0.1741 -1.9951 -4.1543
  122OSM   C16S12929   5.576   1.968   7.441  0.4120 -0.3832 -0.7006
  122OSM   H16S12930   5.657   2.002   7.509 -1.3366 -0.2638  1.4365
  122OSM   H16T12931   5.526   1.884   7.494  0.4039  0.3036  0.3951
  122OSM   C17S12932   5.483   2.087   7.418 -0.5973 -0.4901  0.0532
  122OSM   H17S12933   5.399   2.071   7.347 -0.5573 -0.3195 -0.0322
  122OSM   H17T12934   5.556   2.164   7.386  2.0258 -2.0879  1.7946
  122OSM   C18S12935   5.413   2.147   7.538 -0.0818  0.0670 -0.2313
  122OSM   H18S12936   5.343   2.069   7.573 -2.7713  1.7619 -1.5134
  122OSM   H18T12937   5.375   2.244   7.500  0.0592  0.1051 -0.2793
  122OSM   H18U12938   5.486   2.175   7.617 -0.8560  0.4729  0.3539
  122OSM    C1F12939   5.307   2.178   6.649 -0.7622 -0.7996  0.9850
  122OSM     OF12940   5.237   2.276   6.632 -0.7129  0.0957  1.1245
  122OSM    C2F12941   5.377   2.155   6.776 -0.4192  0.3403 -0.5936
  122OSM    H2F12942   5.487   2.163   6.763 -0.0914 -0.7180  1.2816
  122OSM    H2G12943   5.356   2.052   6.810  1.4325 -0.5128 -1.8316
  122OSM    C3F12944   5.344   2.255   6.889  0.3774  0.1578  0.1326
  122OSM    H3F12945   5.238   2.283   6.871  0.4065 -0.7274 -1.6639
  122OSM    H3G12946   5.402   2.345   6.860 -0.1491  1.3247  2.4529
  122OSM    C4F12947   5.378   2.211   7.033 -0.1241  0.0420 -0.1389
  122OSM    H4F12948   5.489   2.208   7.030 -0.0965 -0.4949  0.9704
  122OSM    H4G12949   5.340   2.109   7.052  0.2393 -0.4617 -1.9333
  122OSM    C5F12950   5.322   2.308   7.142  0.2634 -0.1651  0.2794
  122OSM    H5F12951   5.345   2.277   7.246  0.2208 -0.4967  0.1921
  122OSM    H5G12952   5.212   2.313   7.134  0.2362  0.0989  0.8083
  122OSM    C6F12953   5.359   2.456   7.128 -0.1129 -0.2029  0.2040
  122OSM    H6F12954   5.340   2.490   7.024 -2.1126  0.9056  0.8855
  122OSM    H6G12955   5.469   2.464   7.142 -0.4124  2.2643  1.8454
  122OSM    C7F12956   5.296   2.553   7.222  0.1506 -0.1766 -0.2418
  122OSM    H7F12957   5.191   2.556   7.183  0.5390 -2.5213 -1.7182
  122OSM    H7G12958   5.338   2.652   7.194 -0.0068  0.2735  1.0781
  122OSM    C8F12959   5.311   2.521   7.368 -0.4516  0.4621  0.5786
  122OSM    H8F12960   5.274   2.416   7.376 -0.5090  0.4462  0.1042
  122OSM    H8G12961   5.237   2.590   7.413  0.1275  0.1894  2.0020
  122OSM    C9F12962   5.452   2.534   7.431  0.1326  0.2186 -0.4264
  122OSM    H9F12963   5.533   2.497   7.366  1.0868  1.6676 -0.0982
  122OSM   C10F12964   5.483   2.602   7.541 -0.7048  0.5023  0.0048
  122OSM   H10F12965   5.592   2.604   7.556 -0.8370  3.9388  1.5403
  122OSM   C11F12966   5.399   2.677   7.641  0.0293  0.3177  0.4686
  122OSM   H11F12967   5.292   2.693   7.615 -0.6299 -2.3938  1.1890
  122OSM   H11G12968   5.437   2.778   7.665  0.1586  0.6647 -1.0679
  122OSM   C12F12969   5.403   2.585   7.756 -0.5922  0.5242 -0.4932
  122OSM   H12F12970   5.505   2.561   7.794 -1.5209  0.7541  2.4627
  122OSM   H12G12971   5.349   2.491   7.735 -1.0747  0.1232  2.1239
  122OSM   C13F12972   5.350   2.660   7.881 -0.0764 -0.3411  0.6519
  122OSM   H13F12973   5.246   2.695   7.863  0.4541  0.3584 -1.4258
  122OSM   H13G12974   5.419   2.739   7.917  0.3919 -1.0370  1.2992
  122OSM   C14F12975   5.356   2.567   7.996 -0.0693  0.1258 -0.7105
  122OSM   H14F12976   5.455   2.517   8.006  0.2613  0.8919 -0.0604
  122OSM   H14G12977   5.285   2.481   7.993  2.7240 -2.6411  2.7990
  122OSM   C15F12978   5.330   2.621   8.140 -0.7361  0.4246 -0.4197
  122OSM   H15F12979   5.290   2.546   8.212 -1.7312  1.0597 -0.2853
  122OSM   H15G12980   5.250   2.698   8.133 -0.8043  0.3289 -0.6975
  122OSM   C16F12981   5.462   2.677   8.197  0.2619 -0.6160 -0.3990
  122OSM   H16F12982   5.484   2.775   8.148  0.7075 -1.4879 -2.0268
  122OSM   H16G12983   5.545   2.607   8.170 -0.3375 -0.6739 -2.2701
  122OSM   C17F12984   5.449   2.696   8.350 -0.2329  0.0214 -0.0567
  122OSM   H17F12985   5.550   2.726   8.385 -0.3427  1.5380 -0.9606
  122OSM   H17G12986   5.418   2.602   8.401 -1.5759 -0.0803 -1.0017
  122OSM   C18F12987   5.337   2.803   8.387 -1.1624 -0.2653 -0.2718
  122OSM   H18F12988   5.373   2.900   8.349 -1.0680  0.0376  0.5738
  122OSM   H18G12989   5.322   2.812   8.497  4.5305 -1.8471  0.9756
  122OSM   H18H12990   5.243   2.774   8.335 -0.5787 -0.6053 -1.1719
  123OSM      N12991   1.848   3.531   6.636  0.7140  0.8320  0.6196
  123OSM    C1512992   1.704   3.500   6.671  0.2499  0.2789  0.0831
  123OSM   H15A12993   1.647   3.592   6.676  1.0016  0.7573  0.0869
  123OSM   H15B12994   1.702   3.449   6.766  1.3265  0.8330  0.4238
  123OSM   H15C12995   1.674   3.438   6.588  3.6927 -2.8649  0.9016
  123OSM    C1412996   1.928   3.607   6.732 -0.1235 -0.5356  0.3593
  123OSM   H14A12997   1.892   3.709   6.740  1.1411 -0.1728  2.2933
  123OSM   H14B12998   2.025   3.623   6.686  0.4228  1.0739  1.9447
  123OSM   H14C12999   1.936   3.562   6.830 -0.9124 -1.5194 -0.0175
  123OSM    C1313000   1.917   3.392   6.621  0.0805  0.3468 -0.5028
  123OSM   H13A13001   1.855   3.321   6.568  0.3126 -3.1735  3.3636
  123OSM   H13B13002   1.935   3.348   6.718 -0.8877  0.9159 -0.0469
  123OSM   H13C13003   2.010   3.388   6.567  0.7587  0.1676  0.6315
  123OSM    C1213004   1.848   3.593   6.497  0.1838  0.3665  0.5476
  123OSM   H12A13005   1.803   3.515   6.438  2.0974  1.2867 -2.2997
  123OSM   H12B13006   1.950   3.603   6.463 -0.4911  1.9069 -1.1823
  123OSM    C1113007   1.760   3.724   6.468  0.4789 -0.2398 -0.1992
  123OSM   H11A13008   1.652   3.706   6.486  0.0179  2.3802 -0.0208
  123OSM   H11B13009   1.780   3.742   6.360 -0.0865 -2.7157 -0.7695
  123OSM      P13010   1.787   3.978   6.507  0.0303 -0.2545 -0.0673
  123OSM    O1313011   1.913   4.051   6.535 -0.3489  0.4368 -0.0687
  123OSM    O1413012   1.734   3.991   6.368  0.2565  0.4117 -0.6939
  123OSM    O1113013   1.684   4.030   6.621 -0.3599 -0.1957 -0.1666
  123OSM    O1213014   1.815   3.831   6.544  0.5436  0.0295  0.0498
  123OSM    C1S13015   1.667   3.947   6.740  0.0307 -1.0733  0.0031
  123OSM    H1S13016   1.741   3.865   6.754  2.8454  1.1103 -1.1273
  123OSM    H1T13017   1.563   3.906   6.733 -0.5491  0.4213 -0.5273
  123OSM     NF13018   1.681   3.953   6.997  0.2038 -0.1837 -0.4149
  123OSM    HNF13019   1.614   3.964   7.070  0.5290 -0.1302 -0.1208
  123OSM    C2S13020   1.665   4.033   6.871 -0.6404 -0.2609  0.2419
  123OSM    H2S13021   1.755   4.097   6.871 -1.2175  0.5926 -1.3107
  123OSM    C3S13022   1.547   4.132   6.861 -0.6805 -1.2180 -0.4424
  123OSM    H3S13023   1.454   4.072   6.869 -0.7434 -1.3865 -2.1499
  123OSM     O313024   1.541   4.206   6.735 -0.6210 -0.7000 -0.1723
  123OSM    HO313025   1.599   4.154   6.680  0.4683 -1.0700  1.2663
  123OSM    C4S13026   1.548   4.237   6.970  0.5148 -0.1538 -0.6829
  123OSM    H4S13027   1.633   4.306   6.957  1.8701 -1.7504 -0.6261
  123OSM    C5S13028   1.476   4.244   7.082  0.2400  0.0002 -0.8127
  123OSM    H5S13029   1.403   4.168   7.113 -1.0291  0.8987 -1.4858
  123OSM    C6S13030   1.492   4.343   7.195 -0.5369 -0.7131  0.3878
  123OSM    H6S13031   1.415   4.423   7.189  0.2703 -0.0629 -2.9381
  123OSM    H6T13032   1.588   4.398   7.195 -0.8411 -0.1715 -0.1204
  123OSM    C7S13033   1.461   4.275   7.329  1.0317 -0.3702  0.0292
  123OSM    H7S13034   1.530   4.192   7.356 -0.8611 -1.9047  0.3683
  123OSM    H7T13035   1.367   4.218   7.315  0.7572  0.4584 -1.7017
  123OSM    C8S13036   1.461   4.372   7.447 -0.6649 -0.4967 -0.0755
  123OSM    H8S13037   1.369   4.431   7.431 -0.8862 -0.6234  0.7087
  123OSM    H8T13038   1.552   4.434   7.430 -1.4473  0.6452 -0.2038
  123OSM    C9S13039   1.445   4.291   7.571 -0.2069 -0.0140  0.1696
  123OSM    H9S13040   1.516   4.206   7.566 -1.8169 -1.4676  1.0388
  123OSM    H9T13041   1.347   4.239   7.572  0.1746 -0.7703 -0.8154
  123OSM   C10S13042   1.478   4.369   7.697  0.3844 -0.5438 -0.0662
  123OSM   H10S13043   1.394   4.441   7.706 -0.8340 -2.1007  1.7477
  123OSM   H10T13044   1.577   4.419   7.702 -0.3341  0.8013  1.3645
  123OSM   C11S13045   1.464   4.287   7.826 -0.8026  0.4361  0.1014
  123OSM   H11S13046   1.540   4.205   7.830  1.2255  2.2605  0.7293
  123OSM   H11T13047   1.360   4.251   7.844 -1.0648  1.3084  0.3454
  123OSM   C12S13048   1.488   4.371   7.954 -0.3923 -0.0353  0.5465
  123OSM   H12S13049   1.415   4.452   7.933  0.3228  0.1638 -1.3813
  123OSM   H12T13050   1.591   4.412   7.944 -0.8103  1.0751  0.6931
  123OSM   C13S13051   1.490   4.308   8.091 -0.0254  0.2474 -0.4455
  123OSM   H13S13052   1.585   4.250   8.086  0.4515  0.8951  0.6234
  123OSM   H13T13053   1.402   4.243   8.107  1.3307 -1.5115  0.3134
  123OSM   C14S13054   1.495   4.407   8.211 -0.1837 -0.0062 -0.0261
  123OSM   H14S13055   1.402   4.467   8.200 -0.6861 -0.9634 -1.1994
  123OSM   H14T13056   1.572   4.487   8.214 -0.0113 -0.1539 -0.4934
  123OSM   C15S13057   1.492   4.329   8.347  0.2361  0.1699  0.1072
  123OSM   H15S13058   1.591   4.285   8.372 -1.0370 -2.2744  1.1871
  123OSM   H15T13059   1.418   4.247   8.337  1.2185 -0.5920 -1.1768
  123OSM   C16S13060   1.466   4.417   8.472  0.0686 -0.5590 -0.7789
  123OSM   H16S13061   1.371   4.467   8.441  0.9043  0.3992 -1.9195
  123OSM   H16T13062   1.540   4.500   8.472  1.0548 -1.3785  1.5887
  123OSM   C17S13063   1.457   4.343   8.600 -0.3284  0.0263 -0.5133
  123OSM   H17S13064   1.554   4.291   8.615 -0.6926  0.0939  2.6927
  123OSM   H17T13065   1.382   4.262   8.584  1.9248 -1.8253 -2.4585
  123OSM   C18S13066   1.432   4.416   8.732 -0.3830 -0.1876  0.3079
  123OSM   H18S13067   1.405   4.350   8.817  2.2273 -1.0506  0.5649
  123OSM   H18T13068   1.347   4.487   8.723  0.0264  0.1952 -0.6892
  123OSM   H18U13069   1.510   4.494   8.748  0.7470 -1.2407  0.0411
  123OSM    C1F13070   1.785   3.865   7.014 -0.3007 -0.0635  0.0515
  123OSM     OF13071   1.890   3.876   6.946 -0.5167  0.4834 -0.1061
  123OSM    C2F13072   1.771   3.749   7.112 -0.3472 -0.3235  0.2982
  123OSM    H2F13073   1.706   3.669   7.071 -1.2376  0.5397 -0.0129
  123OSM    H2G13074   1.720   3.787   7.203  1.9368 -2.3838  2.6166
  123OSM    C3F13075   1.910   3.693   7.151 -0.3076 -0.0211 -0.1230
  123OSM    H3F13076   1.962   3.778   7.202 -2.0265 -0.6018  2.8238
  123OSM    H3G13077   1.959   3.657   7.058  0.7167 -3.2874  1.5571
  123OSM    C4F13078   1.914   3.589   7.263 -0.2812  0.0702  0.3830
  123OSM    H4F13079   2.018   3.551   7.274 -0.7956 -1.2393  0.8237
  123OSM    H4G13080   1.853   3.503   7.229 -0.6828  0.8453 -0.9644
  123OSM    C5F13081   1.864   3.645   7.397  0.4191 -0.6336 -0.1524
  123OSM    H5F13082   1.756   3.670   7.392  1.1504  3.5333  0.9591
  123OSM    H5G13083   1.915   3.741   7.420 -0.7191 -0.1393  0.4150
  123OSM    C6F13084   1.898   3.545   7.513  0.7023 -0.0327  0.0381
  123OSM    H6F13085   2.006   3.519   7.509  1.0506  1.3974 -1.5481
  123OSM    H6G13086   1.834   3.457   7.492 -2.6042  2.0436  0.6192
  123OSM    C7F13087   1.844   3.601   7.645  0.2734  0.1214 -0.1409
  123OSM    H7F13088   1.733   3.604   7.642  0.1305 -0.3508  2.2545
  123OSM    H7G13089   1.886   3.703   7.654  1.8553 -0.4586 -0.6156
  123OSM    C8F13090   1.883   3.513   7.768 -0.2791 -0.3615 -0.0153
  123OSM    H8F13091   1.992   3.530   7.782 -0.2794  0.0822 -0.5373
  123OSM    H8G13092   1.866   3.407   7.741  1.9834 -0.1058 -2.9497
  123OSM    C9F13093   1.801   3.562   7.881  0.3652 -0.2794 -0.5545
  123OSM    H9F13094   1.768   3.666   7.875  2.1928  0.2950 -1.2394
  123OSM   C10F13095   1.769   3.496   7.999  0.6390 -0.6201  0.9279
  123OSM   H10F13096   1.712   3.548   8.078 -0.8282 -1.1255  0.2377
  123OSM   C11F13097   1.813   3.356   8.023  0.6204  0.4637  0.4874
  123OSM   H11F13098   1.837   3.307   7.926 -0.8246  0.7505 -0.0314
  123OSM   H11G13099   1.722   3.310   8.065 -0.6830 -0.0389 -2.5917
  123OSM   C12F13100   1.939   3.348   8.112 -0.5357 -0.3322 -0.1725
  123OSM   H12F13101   2.025   3.408   8.078 -0.9394 -0.1073 -0.8118
  123OSM   H12G13102   1.983   3.246   8.119  2.9803  1.1494  2.3734
  123OSM   C13F13103   1.918   3.369   8.257 -0.1066  0.2623 -0.4292
  123OSM   H13F13104   1.841   3.303   8.302  1.8280 -1.4022  0.6351
  123OSM   H13G13105   1.891   3.473   8.286  0.4379  0.2919 -0.0069
  123OSM   C14F13106   2.044   3.341   8.349  0.8535 -0.3100  0.5602
  123OSM   H14F13107   2.106   3.427   8.316  1.3023 -0.7309  0.2987
  123OSM   H14G13108   2.094   3.246   8.320 -0.2097 -0.1487 -2.1106
  123OSM   C15F13109   2.015   3.367   8.495 -0.5654  0.6122 -0.0249
  123OSM   H15F13110   1.948   3.283   8.523  0.0974 -0.7872 -2.3508
  123OSM   H15G13111   1.950   3.456   8.508 -0.8421  0.0821  2.7042
  123OSM   C16F13112   2.132   3.389   8.589  0.3089 -0.2210 -1.0289
  123OSM   H16F13113   2.185   3.475   8.544 -1.2559  1.1790 -0.2741
  123OSM   H16G13114   2.196   3.297   8.588  0.1943 -0.2998 -1.6552
  123OSM   C17F13115   2.076   3.413   8.729 -0.4579  0.1212  0.7527
  123OSM   H17F13116   2.137   3.359   8.804 -2.9599 -1.1136  2.0153
  123OSM   H17G13117   1.974   3.370   8.744 -0.6683 -0.1420 -1.1285
  123OSM   C18F13118   2.062   3.559   8.776  0.2909  0.0005 -0.5572
  123OSM   H18F13119   1.988   3.612   8.712 -0.2433  0.5997  0.5226
  123OSM   H18G13120   2.162   3.604   8.792 -0.1744  0.4022  1.5008
  123OSM   H18H13121   2.032   3.546   8.882 -1.7692 -0.0696 -1.1062
  124OSM      N13122   3.433   0.766   5.765  0.0904  0.6463  0.1253
  124OSM    C1513123   3.503   0.884   5.702 -0.7291 -0.2404 -0.3557
  124OSM   H15A13124   3.573   0.854   5.626  1.4142  0.0572  1.3931
  124OSM   H15B13125   3.553   0.940   5.780  1.1065 -1.6215 -0.4841
  124OSM   H15C13126   3.431   0.946   5.651  0.6664  1.7175 -0.0394
  124OSM    C1413127   3.298   0.803   5.818  0.2961 -0.3572  0.0491
  124OSM   H14A13128   3.303   0.866   5.906  2.5159 -0.4952  0.0776
  124OSM   H14B13129   3.238   0.716   5.839  0.8405 -1.5360 -2.7768
  124OSM   H14C13130   3.242   0.858   5.744  0.6381 -0.5038 -0.3245
  124OSM    C1313131   3.406   0.668   5.652  0.0335 -0.1514 -0.3380
  124OSM   H13A13132   3.502   0.634   5.618  1.4398  1.1988  2.0164
  124OSM   H13B13133   3.341   0.708   5.575 -0.6634 -1.0604 -0.2363
  124OSM   H13C13134   3.352   0.585   5.695  0.0589  1.1062  2.3394
  124OSM    C1213135   3.509   0.696   5.884 -0.8103 -0.4472 -0.3895
  124OSM   H12A13136   3.602   0.663   5.841  0.5587  2.9845 -0.3761
  124OSM   H12B13137   3.452   0.613   5.922 -0.4439  0.3192  1.9929
  124OSM    C1113138   3.541   0.785   6.012  0.2999  0.6804 -0.0993
  124OSM   H11A13139   3.585   0.726   6.095 -1.8786 -1.7125 -0.5424
  124OSM   H11B13140   3.440   0.812   6.048 -0.2924 -0.0525 -1.1468
  124OSM      P13141   3.765   0.912   5.985  0.1222  0.1240 -0.0067
  124OSM    O1313142   3.823   0.784   5.935  0.1007  0.0226 -0.2724
  124OSM    O1413143   3.814   1.039   5.919 -0.1314  0.6025 -0.4812
  124OSM    O1113144   3.798   0.928   6.145  0.1444  0.4881  0.5791
  124OSM    O1213145   3.611   0.908   5.983 -0.1090 -0.1363 -0.0574
  124OSM    C1S13146   3.871   0.816   6.216 -0.0073 -0.7488 -0.1697
  124OSM    H1S13147   3.979   0.821   6.190  0.0668 -0.1515  0.2527
  124OSM    H1T13148   3.823   0.722   6.179  0.4716 -1.0948  0.0862
  124OSM     NF13149   3.932   0.705   6.427  0.1281  0.1802  0.2158
  124OSM    HNF13150   3.863   0.642   6.462  0.9885 -0.4509  0.7952
  124OSM    C2S13151   3.878   0.829   6.371 -0.6656  0.3946 -0.0088
  124OSM    H2S13152   3.956   0.908   6.380  1.5906 -1.6930 -0.1865
  124OSM    C3S13153   3.750   0.863   6.442 -0.2513 -0.0577  0.3319
  124OSM    H3S13154   3.677   0.782   6.465 -2.0162  1.6760  1.2570
  124OSM     O313155   3.672   0.966   6.376  0.2562  0.4086  0.5667
  124OSM    HO313156   3.718   0.979   6.293 -0.0290 -0.7472  0.2173
  124OSM    C4S13157   3.789   0.909   6.585  0.5735 -0.2210 -0.0798
  124OSM    H4S13158   3.832   0.825   6.642 -0.0911 -1.2620 -1.0498
  124OSM    C5S13159   3.778   1.030   6.646 -0.2872  0.2650  0.2317
  124OSM    H5S13160   3.729   1.109   6.587 -2.1215 -1.9387 -1.3568
  124OSM    C6S13161   3.818   1.062   6.789  0.2368  0.1807  0.3093
  124OSM    H6S13162   3.735   1.115   6.839  1.7808  0.4789  2.6851
  124OSM    H6T13163   3.906   1.128   6.771 -0.1000  0.1923 -1.5855
  124OSM    C7S13164   3.877   0.951   6.881 -0.0161  0.4676 -0.0939
  124OSM    H7S13165   3.981   0.928   6.849 -0.5294 -0.4988 -1.1787
  124OSM    H7T13166   3.818   0.856   6.877  0.0376  0.3731  1.1596
  124OSM    C8S13167   3.868   0.996   7.031  0.1377 -0.4457  0.1882
  124OSM    H8S13168   3.761   1.011   7.053  0.6688  2.2549  1.3348
  124OSM    H8T13169   3.917   1.095   7.040 -0.6455 -0.1129  0.8620
  124OSM    C9S13170   3.936   0.893   7.118 -0.6468 -0.0726 -0.5932
  124OSM    H9S13171   4.046   0.888   7.098 -0.4267 -1.1862  0.7099
  124OSM    H9T13172   3.897   0.790   7.103  0.8744 -0.9396  0.9470
  124OSM   C10S13173   3.926   0.935   7.269 -0.1285 -0.8899 -0.0314
  124OSM   H10S13174   3.827   0.906   7.310 -2.1090  2.3849 -1.9613
  124OSM   H10T13175   3.935   1.045   7.280 -1.3842 -0.6879 -0.7180
  124OSM   C11S13176   4.031   0.865   7.352  0.9649 -0.2819  0.3339
  124OSM   H11S13177   4.134   0.898   7.327  0.5505 -0.4038 -1.6587
  124OSM   H11T13178   4.015   0.757   7.331 -3.5692  0.3011 -0.2116
  124OSM   C12S13179   4.005   0.902   7.504  0.2541 -0.0809 -0.0206
  124OSM   H12S13180   3.898   0.873   7.511  0.4725 -0.7104  0.8413
  124OSM   H12T13181   4.008   1.012   7.520  1.8434  0.5086 -3.2928
  124OSM   C13S13182   4.084   0.830   7.611 -0.1398 -0.0017  0.1356
  124OSM   H13S13183   4.058   0.880   7.707 -0.5026  1.5654 -0.7395
  124OSM   H13T13184   4.192   0.852   7.602 -0.1901  2.5654  3.5873
  124OSM   C14S13185   4.058   0.680   7.633 -0.1607  0.0508  0.9297
  124OSM   H14S13186   4.095   0.631   7.540 -3.0192 -1.2481  0.3543
  124OSM   H14T13187   3.949   0.666   7.649 -0.1593  1.3830  2.3246
  124OSM   C15S13188   4.140   0.626   7.748  0.2964 -0.3581  0.2693
  124OSM   H15S13189   4.241   0.672   7.741 -0.5462  1.6092  0.2226
  124OSM   H15T13190   4.157   0.516   7.743 -1.4957 -0.8525  2.9401
  124OSM   C16S13191   4.077   0.656   7.890  0.2058 -0.2920  0.6684
  124OSM   H16S13192   3.980   0.602   7.902 -1.4231  2.2483 -0.2737
  124OSM   H16T13193   4.048   0.763   7.893  1.2547  0.0428 -0.2872
  124OSM   C17S13194   4.154   0.625   8.012 -0.5624  0.9373  0.1569
  124OSM   H17S13195   4.101   0.645   8.108 -1.5411 -2.3755  0.4234
  124OSM   H17T13196   4.240   0.697   8.010 -1.0053  1.5769  2.0344
  124OSM   C18S13197   4.206   0.480   8.011  0.9889  0.1444 -0.2084
  124OSM   H18S13198   4.275   0.462   8.097 -1.7719  0.0899  2.1575
  124OSM   H18T13199   4.271   0.472   7.921  0.6171  2.9961 -0.7960
  124OSM   H18U13200   4.125   0.404   8.010  1.3708 -0.3523 -3.1822
  124OSM    C1F13201   4.063   0.662   6.406  0.1243 -0.6398  0.8228
  124OSM     OF13202   4.139   0.732   6.343 -0.2097 -0.8155 -0.4475
  124OSM    C2F13203   4.096   0.538   6.481 -0.3661  0.4468  0.0251
  124OSM    H2F13204   4.129   0.459   6.409 -0.1102  0.7075 -0.1473
  124OSM    H2G13205   4.017   0.497   6.548 -0.6020  1.2737  0.2578
  124OSM    C3F13206   4.221   0.568   6.567 -0.3852  0.2591  0.3390
  124OSM    H3F13207   4.297   0.625   6.510  0.3961 -0.2468  0.8520
  124OSM    H3G13208   4.266   0.472   6.600 -1.0228  0.3611  1.5849
  124OSM    C4F13209   4.199   0.634   6.705 -0.2731 -0.0291  0.8344
  124OSM    H4F13210   4.148   0.560   6.770  0.5774 -0.9133  0.5037
  124OSM    H4G13211   4.128   0.716   6.678  0.0032 -0.1233 -0.2142
  124OSM    C5F13212   4.315   0.693   6.778  0.0750 -0.1953  1.0986
  124OSM    H5F13213   4.381   0.751   6.710  1.6531 -3.7967 -0.7212
  124OSM    H5G13214   4.373   0.615   6.831  2.0052  2.0048  2.4569
  124OSM    C6F13215   4.273   0.792   6.886 -0.1966 -0.0871 -0.1550
  124OSM    H6F13216   4.196   0.754   6.957  0.2843  0.9084  0.9262
  124OSM    H6G13217   4.233   0.883   6.838 -0.3229 -0.5787 -1.0044
  124OSM    C7F13218   4.385   0.845   6.981  0.0429  0.3629  0.6600
  124OSM    H7F13219   4.352   0.943   7.023  1.9833  0.7795  1.3168
  124OSM    H7G13220   4.470   0.871   6.915  0.9902 -0.1404  1.6538
  124OSM    C8F13221   4.435   0.739   7.080  0.0706  0.3238 -0.2963
  124OSM    H8F13222   4.510   0.682   7.021  1.6057  1.6192  0.3307
  124OSM    H8G13223   4.345   0.682   7.111  1.4588 -1.9109 -0.2254
  124OSM    C9F13224   4.507   0.806   7.202  0.1161  0.2567 -0.2250
  124OSM    H9F13225   4.581   0.878   7.165 -0.0662  1.3316  1.3913
  124OSM   C10F13226   4.499   0.787   7.329  0.1273 -0.1785  0.0372
  124OSM   H10F13227   4.570   0.836   7.397  0.5223  1.4691 -1.4933
  124OSM   C11F13228   4.403   0.690   7.392  0.4913  0.9480  0.6377
  124OSM   H11F13229   4.323   0.657   7.322 -0.7567 -0.5503  2.6973
  124OSM   H11G13230   4.346   0.755   7.461 -0.4717  1.1908 -0.3436
  124OSM   C12F13231   4.480   0.581   7.465  1.1373 -0.9893 -0.3554
  124OSM   H12F13232   4.554   0.534   7.398  0.9110 -0.2313 -1.1489
  124OSM   H12G13233   4.407   0.506   7.504  0.2267 -0.2839 -0.6610
  124OSM   C13F13234   4.563   0.637   7.578 -0.6007 -0.2582  0.0618
  124OSM   H13F13235   4.523   0.733   7.618  2.1834  1.7794 -1.6073
  124OSM   H13G13236   4.660   0.667   7.533  0.0882 -1.6136  0.5980
  124OSM   C14F13237   4.574   0.546   7.695  0.1536  0.1603 -0.1003
  124OSM   H14F13238   4.610   0.445   7.666  0.0753  0.3706 -0.9473
  124OSM   H14G13239   4.470   0.538   7.734 -0.1816  2.1566 -0.5139
  124OSM   C15F13240   4.658   0.610   7.797 -0.1813  0.0653 -0.4344
  124OSM   H15F13241   4.617   0.704   7.840  0.9284  0.8147 -0.9697
  124OSM   H15G13242   4.760   0.638   7.762  1.8386  1.0974  5.2233
  124OSM   C16F13243   4.694   0.517   7.913 -0.2261  0.5347 -0.2333
  124OSM   H16F13244   4.752   0.578   7.986  0.9809 -1.7352  0.8108
  124OSM   H16G13245   4.764   0.436   7.883  1.2426  2.1058 -1.2436
  124OSM   C17F13246   4.570   0.450   7.982  0.6356  0.0137  0.5038
  124OSM   H17F13247   4.523   0.376   7.915 -0.8756  0.9687  0.4530
  124OSM   H17G13248   4.485   0.520   8.002  0.4629  0.4588 -1.6298
  124OSM   C18F13249   4.604   0.380   8.124  0.4268 -0.3997  0.3418
  124OSM   H18F13250   4.507   0.332   8.147 -0.6907  1.0502 -1.0608
  124OSM   H18G13251   4.635   0.454   8.201  1.0250  1.4971 -1.6174
  124OSM   H18H13252   4.678   0.302   8.099  0.7709  0.1191 -0.3105
  125OSM      N13253   5.382   6.164   5.925 -0.0996  0.0008  0.0689
  125OSM    C1513254   5.448   6.291   5.974 -0.1454 -0.0814  0.1342
  125OSM   H15A13255   5.408   6.380   5.927 -0.5566 -0.6227 -0.5505
  125OSM   H15B13256   5.555   6.285   5.962  0.0621  0.5904  1.4752
  125OSM   H15C13257   5.427   6.299   6.080  0.3027  0.3159  0.1954
  125OSM    C1413258   5.236   6.185   5.920 -0.0853  0.3726  0.0306
  125OSM   H14A13259   5.172   6.112   5.873 -0.1791  1.8222 -2.2604
  125OSM   H14B13260   5.210   6.273   5.863 -0.6574 -0.3054 -0.7827
  125OSM   H14C13261   5.196   6.207   6.017 -1.5274 -0.5997 -0.3252
  125OSM    C1313262   5.431   6.141   5.786  0.1058  1.0628  0.4406
  125OSM   H13A13263   5.425   6.217   5.710  1.4326  1.3512  0.5977
  125OSM   H13B13264   5.380   6.052   5.749 -0.9348  0.8047  2.3523
  125OSM   H13C13265   5.537   6.121   5.793  0.1322  1.2485  0.5916
  125OSM    C1213266   5.423   6.047   6.014  0.0269 -0.3648  0.0493
  125OSM   H12A13267   5.371   6.057   6.108 -2.3765 -1.0060 -1.1258
  125OSM   H12B13268   5.525   6.065   6.044  0.3972 -1.1070 -0.7285
  125OSM    C1113269   5.381   5.916   5.957 -0.1719  0.1583  0.5578
  125OSM   H11A13270   5.411   5.894   5.852  0.2709  0.4829  0.6151
  125OSM   H11B13271   5.270   5.922   5.959 -0.3794 -2.6498  1.9391
  125OSM      P13272   5.561   5.758   6.059 -0.8362 -0.1013 -0.0747
  125OSM    O1313273   5.560   5.613   6.072  0.0423  0.2902 -0.3467
  125OSM    O1413274   5.656   5.811   5.965 -0.1698 -0.4305 -0.0307
  125OSM    O1113275   5.588   5.814   6.206  0.1685 -0.6900 -0.0595
  125OSM    O1213276   5.415   5.809   6.038  0.2781 -0.5581  0.2668
  125OSM    C1S13277   5.523   5.771   6.325  0.2384  0.1677 -0.4762
  125OSM    H1S13278   5.568   5.674   6.356  2.3637  1.2636  0.0580
  125OSM    H1T13279   5.415   5.750   6.309  0.2445 -2.2688  1.9273
  125OSM     NF13280   5.482   5.792   6.573 -0.4947 -0.2707 -0.3327
  125OSM    HNF13281   5.397   5.821   6.616  0.0594  0.2844  0.4271
  125OSM    C2S13282   5.532   5.861   6.452 -0.8164  0.7852 -0.1901
  125OSM    H2S13283   5.638   5.892   6.460 -0.6123  0.7531 -2.3330
  125OSM    C3S13284   5.454   5.994   6.418  0.4550 -1.0380  0.0660
  125OSM    H3S13285   5.349   5.970   6.389 -0.1794  2.2407 -0.8002
  125OSM     O313286   5.514   6.057   6.309  0.9789 -0.8591  0.5657
  125OSM    HO313287   5.541   5.978   6.262  1.1222  0.5190 -1.8184
  125OSM    C4S13288   5.436   6.093   6.534 -0.5054  0.3857  1.1195
  125OSM    H4S13289   5.354   6.066   6.603 -1.6596 -0.4204 -0.5022
  125OSM    C5S13290   5.515   6.193   6.573 -0.3384 -0.1077  0.0378
  125OSM    H5S13291   5.607   6.214   6.517 -0.3084 -0.4063 -0.0281
  125OSM    C6S13292   5.490   6.280   6.698  0.0769  0.1956  0.2910
  125OSM    H6S13293   5.409   6.354   6.679  0.9902  0.7501 -1.6232
  125OSM    H6T13294   5.579   6.335   6.733 -0.4432  0.5846  1.0313
  125OSM    C7S13295   5.443   6.197   6.825  0.2222 -0.1349  0.2248
  125OSM    H7S13296   5.508   6.107   6.832  0.0081 -0.3193 -0.1407
  125OSM    H7T13297   5.342   6.157   6.803 -0.5675  0.5557  2.3577
  125OSM    C8S13298   5.440   6.273   6.955 -0.0233  0.4580 -0.3887
  125OSM    H8S13299   5.371   6.358   6.938 -1.3380 -1.0179 -2.9899
  125OSM    H8T13300   5.541   6.314   6.979 -1.0370  3.6964 -1.2402
  125OSM    C9S13301   5.410   6.181   7.071  0.2172 -0.8115 -0.2884
  125OSM    H9S13302   5.466   6.085   7.060  1.4261 -0.4219  1.8381
  125OSM    H9T13303   5.302   6.158   7.067  0.0098  0.2988 -3.2373
  125OSM   C10S13304   5.451   6.233   7.206 -0.1589  0.4611  0.3245
  125OSM   H10S13305   5.384   6.317   7.235 -0.2798  0.1812  0.8759
  125OSM   H10T13306   5.551   6.281   7.199  0.4027 -0.8567 -1.1819
  125OSM   C11S13307   5.452   6.123   7.313  0.2385 -0.1173  0.4773
  125OSM   H11S13308   5.537   6.052   7.304  0.6628  0.3506  0.7485
  125OSM   H11T13309   5.364   6.060   7.290  1.1039 -0.3053 -2.9538
  125OSM   C12S13310   5.444   6.178   7.455  0.4215  0.2815  0.4666
  125OSM   H12S13311   5.344   6.224   7.474  0.6779  2.6621 -3.0807
  125OSM   H12T13312   5.516   6.261   7.471 -0.6404  1.0692  1.2899
  125OSM   C13S13313   5.477   6.068   7.556 -0.7677 -0.6823 -0.4567
  125OSM   H13S13314   5.583   6.047   7.531 -1.0712 -2.4248 -0.4221
  125OSM   H13T13315   5.417   5.974   7.553 -1.2572 -0.3624 -0.8209
  125OSM   C14S13316   5.479   6.109   7.699  0.3376  0.2209  0.5669
  125OSM   H14S13317   5.383   6.153   7.736 -0.4466 -1.2151  0.2969
  125OSM   H14T13318   5.544   6.199   7.689  0.7937 -0.2683 -1.3120
  125OSM   C15S13319   5.524   6.009   7.799 -0.0160 -0.6026  0.4880
  125OSM   H15S13320   5.626   5.971   7.773 -0.8556 -2.2466 -0.6005
  125OSM   H15T13321   5.448   5.928   7.798  0.1139 -0.7308 -0.7356
  125OSM   C16S13322   5.525   6.064   7.939  0.0224 -0.1125 -0.0638
  125OSM   H16S13323   5.432   6.125   7.950  0.7855  1.0105  0.2757
  125OSM   H16T13324   5.599   6.140   7.970 -1.1650 -0.0872  3.0583
  125OSM   C17S13325   5.532   5.961   8.050  0.0390 -0.6569 -0.9239
  125OSM   H17S13326   5.609   5.883   8.027  1.3289 -0.1195  1.2921
  125OSM   H17T13327   5.436   5.908   8.034 -1.1989  0.6270  1.6439
  125OSM   C18S13328   5.560   6.017   8.180 -0.1740  0.3308 -0.4795
  125OSM   H18S13329   5.554   5.940   8.259  1.0160 -1.3870 -1.9870
  125OSM   H18T13330   5.491   6.102   8.199  0.9605  1.5660 -1.5809
  125OSM   H18U13331   5.657   6.071   8.188  0.0116  0.0041 -0.5304
  125OSM    C1F13332   5.555   5.695   6.623 -0.4210  0.6123  0.5677
  125OSM     OF13333   5.666   5.673   6.571 -0.6594  0.4169 -0.0489
  125OSM    C2F13334   5.506   5.625   6.741  0.2297 -0.2366  0.1047
  125OSM    H2F13335   5.499   5.520   6.707 -1.3483  0.2155 -1.1277
  125OSM    H2G13336   5.404   5.666   6.758  0.7786  0.8878  0.8133
  125OSM    C3F13337   5.611   5.639   6.854  0.9563  0.3317  0.0904
  125OSM    H3F13338   5.645   5.743   6.869 -0.4530  0.7641  0.3445
  125OSM    H3G13339   5.695   5.575   6.820  0.2714 -1.1714  1.1007
  125OSM    C4F13340   5.567   5.583   6.990  0.4985  0.4550 -0.2118
  125OSM    H4F13341   5.654   5.551   7.051  0.0970  0.9620  0.6568
  125OSM    H4G13342   5.499   5.497   6.974  0.1031  0.2370  2.1464
  125OSM    C5F13343   5.477   5.675   7.076 -0.1216  0.2598  0.2762
  125OSM    H5F13344   5.387   5.709   7.022 -1.1807 -0.9618  1.2083
  125OSM    H5G13345   5.538   5.767   7.088 -0.6760  0.4212  2.2228
  125OSM    C6F13346   5.432   5.621   7.218  0.2464 -0.8219 -0.5895
  125OSM    H6F13347   5.349   5.547   7.216 -0.6047 -0.1584  3.0173
  125OSM    H6G13348   5.392   5.705   7.279  1.6981 -0.1010 -0.6051
  125OSM    C7F13349   5.536   5.538   7.298  0.0183 -0.2357  0.0534
  125OSM    H7F13350   5.580   5.459   7.234 -2.3812 -0.8940 -0.8970
  125OSM    H7G13351   5.472   5.484   7.371  0.7548 -1.8862 -0.4792
  125OSM    C8F13352   5.643   5.610   7.388 -0.1452  0.3636  0.4640
  125OSM    H8F13353   5.711   5.670   7.324 -0.3888 -1.4750 -1.6504
  125OSM    H8G13354   5.711   5.531   7.425 -0.0607 -0.1977 -0.8696
  125OSM    C9F13355   5.578   5.679   7.508 -0.0430 -0.1544  0.3919
  125OSM    H9F13356   5.539   5.775   7.473 -0.9066  0.1174  2.0018
  125OSM   C10F13357   5.561   5.635   7.629  0.2478  0.6091 -0.8043
  125OSM   H10F13358   5.516   5.696   7.709  1.6190  0.4383  0.1385
  125OSM   C11F13359   5.598   5.498   7.677 -0.2123 -0.3772 -0.5778
  125OSM   H11F13360   5.702   5.498   7.716 -1.0466  0.5600  1.8563
  125OSM   H11G13361   5.586   5.414   7.605 -0.4033 -0.5599 -0.3339
  125OSM   C12F13362   5.505   5.461   7.793 -0.5751 -0.3236 -0.0569
  125OSM   H12F13363   5.506   5.355   7.826 -1.8498 -0.7647 -1.3332
  125OSM   H12G13364   5.398   5.474   7.765 -1.3905 -3.5264  1.0859
  125OSM   C13F13365   5.526   5.548   7.921 -0.9058 -0.3238  0.6132
  125OSM   H13F13366   5.480   5.648   7.907 -0.5317  0.2122  2.8407
  125OSM   H13G13367   5.632   5.572   7.944 -0.5971  1.5095 -2.1656
  125OSM   C14F13368   5.453   5.483   8.035  0.2952  0.0602  0.7216
  125OSM   H14F13369   5.502   5.387   8.064  1.0360  0.4152  0.6882
  125OSM   H14G13370   5.345   5.465   8.020 -0.2277 -0.1696  3.9828
  125OSM   C15F13371   5.451   5.574   8.162 -0.7842 -0.1839 -0.2285
  125OSM   H15F13372   5.352   5.625   8.159  0.0173  1.7107  2.3434
  125OSM   H15G13373   5.543   5.636   8.176 -0.3371 -1.1273  1.1579
  125OSM   C16F13374   5.452   5.495   8.295 -0.5102  0.2375  0.8060
  125OSM   H16F13375   5.550   5.442   8.285 -0.9771 -0.6222  0.7416
  125OSM   H16G13376   5.368   5.423   8.290 -0.2534  0.0184 -0.8866
  125OSM   C17F13377   5.441   5.574   8.422 -0.0695  0.1348 -0.4658
  125OSM   H17F13378   5.350   5.637   8.429 -0.9666 -1.2842  1.2111
  125OSM   H17G13379   5.524   5.648   8.431 -1.0870  1.0683  3.2761
  125OSM   C18F13380   5.430   5.483   8.546 -0.4877 -0.2343  0.5140
  125OSM   H18F13381   5.412   5.551   8.633  1.5660  1.5372 -0.3529
  125OSM   H18G13382   5.532   5.443   8.567  0.7643  1.4208 -1.9150
  125OSM   H18H13383   5.352   5.406   8.531 -2.6393  1.8417  0.4431
  126OSM      N13384   2.076   2.859   6.575 -0.0035 -0.2584  0.1912
  126OSM    C1513385   1.931   2.855   6.536  0.1194 -0.2378  0.1240
  126OSM   H15A13386   1.912   2.754   6.503  3.1874 -0.7837 -0.2449
  126OSM   H15B13387   1.910   2.924   6.455 -0.2628  0.6104  0.9270
  126OSM   H15C13388   1.853   2.888   6.603 -0.7410  0.5435 -1.2149
  126OSM    C1413389   2.086   2.758   6.678  0.0410 -0.8748  0.0845
  126OSM   H14A13390   2.186   2.753   6.718  0.1623  2.0909  0.3519
  126OSM   H14B13391   2.074   2.658   6.638  2.3812 -0.4774 -1.8112
  126OSM   H14C13392   2.020   2.771   6.763 -0.0045 -3.4000  0.5377
  126OSM    C1313393   2.157   2.818   6.457 -0.0664  0.0575  0.1405
  126OSM   H13A13394   2.260   2.794   6.476 -0.2485 -2.0407 -1.1858
  126OSM   H13B13395   2.150   2.884   6.371  1.6440  0.7306  0.4849
  126OSM   H13C13396   2.117   2.730   6.408  0.5691  0.8677 -1.9720
  126OSM    C1213397   2.121   3.000   6.626  0.0490 -0.0771  0.1737
  126OSM   H12A13398   2.044   3.035   6.693 -0.6969 -1.2045 -0.0582
  126OSM   H12B13399   2.109   3.075   6.549  0.8124  0.7375  0.8349
  126OSM    C1113400   2.263   3.018   6.683 -0.4601 -0.8243 -0.9015
  126OSM   H11A13401   2.293   2.982   6.784 -2.1959  1.6332  0.6314
  126OSM   H11B13402   2.280   3.125   6.711  1.1337 -2.0156  3.4416
  126OSM      P13403   2.441   3.077   6.500  0.0166 -0.1629  0.1280
  126OSM    O1313404   2.506   3.003   6.394 -0.0135 -0.0749  0.1216
  126OSM    O1413405   2.358   3.194   6.472  0.0733  0.1396 -0.1049
  126OSM    O1113406   2.552   3.134   6.589 -0.1749  0.1262 -0.3582
  126OSM    O1213407   2.367   2.972   6.587 -0.1052 -0.2419  0.3083
  126OSM    C1S13408   2.656   3.064   6.658  0.3330 -0.6585 -0.5280
  126OSM    H1S13409   2.724   3.020   6.582  1.5726 -2.2512  1.4050
  126OSM    H1T13410   2.598   2.998   6.725 -1.9515  1.3366 -0.3800
  126OSM     NF13411   2.675   3.197   6.876  0.5810  0.4878  0.3450
  126OSM    HNF13412   2.628   3.286   6.877 -0.7603 -0.1906 -0.1045
  126OSM    C2S13413   2.737   3.163   6.750 -0.1507 -0.3248  0.4891
  126OSM    H2S13414   2.828   3.108   6.782  0.6044  0.8287  0.3727
  126OSM    C3S13415   2.775   3.288   6.666  0.6947  0.6905 -0.2449
  126OSM    H3S13416   2.682   3.340   6.636  0.1866 -0.4194 -0.6538
  126OSM     O313417   2.845   3.263   6.543 -0.0199 -0.7252  0.0763
  126OSM    HO313418   2.849   3.167   6.534 -0.1105 -0.5824 -1.7063
  126OSM    C4S13419   2.856   3.380   6.750 -0.2269 -0.3555  0.6068
  126OSM    H4S13420   2.959   3.341   6.756 -0.6540 -1.7307 -0.5692
  126OSM    C5S13421   2.812   3.497   6.815  0.8461 -0.6763  0.3456
  126OSM    H5S13422   2.712   3.531   6.783 -0.1074 -2.4370  1.2931
  126OSM    C6S13423   2.889   3.596   6.901  0.0304  0.1243  0.6858
  126OSM    H6S13424   2.918   3.685   6.842  0.8542  0.1319  1.0759
  126OSM    H6T13425   2.985   3.544   6.923  1.1837  1.0639 -1.7529
  126OSM    C7S13426   2.816   3.645   7.022  0.6604 -0.0291 -0.0824
  126OSM    H7S13427   2.736   3.718   6.997  0.1849  0.4341  2.4950
  126OSM    H7T13428   2.890   3.697   7.087 -0.0863  1.4473 -0.3625
  126OSM    C8S13429   2.748   3.536   7.114  0.3858  0.0270 -0.4151
  126OSM    H8S13430   2.811   3.445   7.129  0.9723  0.8761  3.1311
  126OSM    H8T13431   2.655   3.511   7.057  1.6850  0.3637 -2.8244
  126OSM    C9S13432   2.688   3.581   7.246  0.1640  0.0371 -1.4397
  126OSM    H9S13433   2.589   3.534   7.261 -1.2324  3.3406  0.8248
  126OSM    H9T13434   2.658   3.687   7.229 -1.8537 -0.5202 -1.5465
  126OSM   C10S13435   2.787   3.565   7.372  0.2337  0.2679  0.6259
  126OSM   H10S13436   2.872   3.631   7.343 -1.2811  2.6989  1.4605
  126OSM   H10T13437   2.832   3.464   7.359  0.7583  0.7021 -1.2530
  126OSM   C11S13438   2.745   3.597   7.514  0.2392  0.7655 -0.3580
  126OSM   H11S13439   2.658   3.532   7.541 -0.5388  1.7398 -0.4713
  126OSM   H11T13440   2.713   3.703   7.508 -0.1339  0.5820 -2.4996
  126OSM   C12S13441   2.858   3.570   7.619  0.6842  0.3412  0.0957
  126OSM   H12S13442   2.940   3.638   7.589 -1.0713  3.6240  2.1940
  126OSM   H12T13443   2.880   3.461   7.624  1.8146  0.6363  2.3523
  126OSM   C13S13444   2.824   3.598   7.768 -0.3352 -0.3520  0.6584
  126OSM   H13S13445   2.718   3.577   7.794 -0.4672  1.1023  1.3957
  126OSM   H13T13446   2.842   3.706   7.789  1.0810 -0.3538 -0.4419
  126OSM   C14S13447   2.915   3.518   7.863 -0.6389  0.0021  0.2442
  126OSM   H14S13448   3.014   3.568   7.849 -1.3988  1.9460  1.4401
  126OSM   H14T13449   2.911   3.411   7.831  0.7239  0.1063 -0.3529
  126OSM   C15S13450   2.885   3.541   8.009 -0.1971 -0.1166  0.3289
  126OSM   H15S13451   2.817   3.465   8.054 -2.2966  2.5660  2.0806
  126OSM   H15T13452   2.825   3.635   8.008 -1.4802 -0.8715  1.6547
  126OSM   C16S13453   3.005   3.556   8.095  0.3894  0.5678  0.4383
  126OSM   H16S13454   3.071   3.643   8.071  1.2769  0.2962  1.8314
  126OSM   H16T13455   3.084   3.481   8.071  0.1917  1.2749 -2.9115
  126OSM   C17S13456   2.985   3.583   8.243  0.3687 -0.4669  0.3128
  126OSM   H17S13457   2.904   3.516   8.278  0.9373 -0.8086  0.9906
  126OSM   H17T13458   2.943   3.685   8.256 -0.8167 -0.8806 -0.1184
  126OSM   C18S13459   3.112   3.570   8.333 -0.0641 -0.1811  0.2263
  126OSM   H18S13460   3.124   3.461   8.352 -0.1715 -0.5001 -1.3283
  126OSM   H18T13461   3.088   3.615   8.432 -1.2506  2.7086 -1.2364
  126OSM   H18U13462   3.196   3.611   8.273 -1.3489  1.8152 -0.3221
  126OSM    C1F13463   2.664   3.118   6.977  0.5787  0.8988 -0.2602
  126OSM     OF13464   2.683   2.997   6.963  0.1151  0.2244  0.1986
  126OSM    C2F13465   2.617   3.175   7.105  0.4833 -0.1556  0.0118
  126OSM    H2F13466   2.546   3.255   7.073 -1.1378 -1.1515  0.9859
  126OSM    H2G13467   2.700   3.234   7.150  1.5403 -1.4370 -0.2032
  126OSM    C3F13468   2.572   3.068   7.211  0.1407  0.3111  0.3559
  126OSM    H3F13469   2.666   3.012   7.232  1.8258  3.1191  0.8889
  126OSM    H3G13470   2.500   3.001   7.159 -0.9491  0.2457  1.8944
  126OSM    C4F13471   2.515   3.131   7.337  0.4083 -0.1561 -0.6931
  126OSM    H4F13472   2.411   3.161   7.312  0.7173 -1.9881 -5.2745
  126OSM    H4G13473   2.581   3.219   7.354 -0.7783  1.6092 -4.0814
  126OSM    C5F13474   2.514   3.043   7.462 -0.4705  0.8981 -0.2740
  126OSM    H5F13475   2.611   2.992   7.479  0.0539  2.3608  1.3558
  126OSM    H5G13476   2.445   2.957   7.451  0.0995  0.5015 -0.8492
  126OSM    C6F13477   2.484   3.111   7.594  0.4066 -0.3598 -0.3198
  126OSM    H6F13478   2.496   3.039   7.678  1.8101 -0.3736 -0.5065
  126OSM    H6G13479   2.382   3.154   7.597  0.2811 -0.6107 -0.8874
  126OSM    C7F13480   2.584   3.221   7.630 -0.8911  0.6231 -0.2685
  126OSM    H7F13481   2.582   3.294   7.546 -3.3468  1.1456  0.1675
  126OSM    H7G13482   2.684   3.173   7.638 -2.3809 -3.1209 -1.8319
  126OSM    C8F13483   2.557   3.286   7.764  0.5885 -0.3710 -0.2551
  126OSM    H8F13484   2.637   3.352   7.805 -0.6948 -0.2537  2.2691
  126OSM    H8G13485   2.533   3.212   7.843 -1.4707  0.3146 -0.1869
  126OSM    C9F13486   2.427   3.365   7.751 -0.7203  0.0976 -0.0308
  126OSM    H9F13487   2.423   3.447   7.678 -1.8235  0.2220  0.1510
  126OSM   C10F13488   2.326   3.353   7.840  0.4609  0.9013 -0.0655
  126OSM   H10F13489   2.228   3.388   7.806  1.0020 -0.6930 -3.7809
  126OSM   C11F13490   2.316   3.263   7.962 -0.6301  0.4812  0.2819
  126OSM   H11F13491   2.382   3.173   7.961 -0.0755  0.8833  0.3127
  126OSM   H11G13492   2.215   3.218   7.958  0.3052 -1.8014  0.7146
  126OSM   C12F13493   2.339   3.341   8.090 -0.4524  0.3258  0.0321
  126OSM   H12F13494   2.315   3.272   8.174  1.8250 -1.3793 -0.6231
  126OSM   H12G13495   2.276   3.433   8.097 -0.2310  0.3524  3.5828
  126OSM   C13F13496   2.485   3.378   8.105  0.4079 -0.5924  0.5441
  126OSM   H13F13497   2.508   3.443   8.018  0.1620  0.6115  1.3488
  126OSM   H13G13498   2.543   3.283   8.102 -1.3322 -1.6751 -0.9087
  126OSM   C14F13499   2.511   3.464   8.231 -0.6308 -0.1033 -0.6147
  126OSM   H14F13500   2.483   3.571   8.230 -0.6548  0.1015  3.7465
  126OSM   H14G13501   2.621   3.472   8.241 -0.7663 -0.7504  2.1120
  126OSM   C15F13502   2.466   3.404   8.369 -0.0656 -0.3831  0.7499
  126OSM   H15F13503   2.510   3.303   8.383  0.8991  0.1284  1.5192
  126OSM   H15G13504   2.355   3.403   8.365 -0.1134  0.2529  1.6305
  126OSM   C16F13505   2.524   3.483   8.483 -0.0185 -0.3644 -0.4617
  126OSM   H16F13506   2.461   3.575   8.480 -0.2648 -0.4903  0.6094
  126OSM   H16G13507   2.633   3.503   8.474  0.6168 -2.7701  1.1442
  126OSM   C17F13508   2.485   3.421   8.619 -0.1331 -0.1392 -0.2936
  126OSM   H17F13509   2.566   3.348   8.641  1.2065  1.7012  1.1537
  126OSM   H17G13510   2.389   3.366   8.608 -0.1377  0.2499 -2.9323
  126OSM   C18F13511   2.488   3.513   8.735 -0.3892 -0.3605  0.9068
  126OSM   H18F13512   2.395   3.571   8.752  0.5893  0.6904  3.0616
  126OSM   H18G13513   2.576   3.581   8.730 -0.4883 -0.3016 -0.2632
  126OSM   H18H13514   2.505   3.454   8.828 -1.5982 -1.6261  0.3571
  127OSM      N13515   4.302   3.684   6.075  0.9700  0.0397  0.0222
  127OSM    C1513516   4.279   3.827   6.106  0.1485  0.0996  0.1147
  127OSM   H15A13517   4.202   3.845   6.179 -1.9759 -2.4672 -1.2730
  127OSM   H15B13518   4.240   3.872   6.016  0.1670 -0.9440 -0.4307
  127OSM   H15C13519   4.377   3.867   6.125  1.3671 -2.0544 -1.1567
  127OSM    C1413520   4.174   3.624   6.008 -0.4307  0.3033  0.9504
  127OSM   H14A13521   4.162   3.658   5.907  1.4109  1.5859  1.1031
  127OSM   H14B13522   4.090   3.644   6.073 -1.3841 -0.4034 -0.0382
  127OSM   H14C13523   4.180   3.516   6.002 -0.7600  0.1335  2.9148
  127OSM    C1313524   4.418   3.672   5.986 -0.5103 -0.9616  0.0395
  127OSM   H13A13525   4.441   3.569   5.963  2.2515 -0.5867  0.6869
  127OSM   H13B13526   4.497   3.710   6.050 -2.0212 -0.9000  1.9551
  127OSM   H13C13527   4.412   3.727   5.893  2.2478  0.9985  0.8520
  127OSM    C1213528   4.315   3.608   6.205  0.6730  0.4712  0.1637
  127OSM   H12A13529   4.349   3.511   6.172  1.0531  0.6448  0.0331
  127OSM   H12B13530   4.218   3.598   6.250 -0.1476 -2.0989 -1.9197
  127OSM    C1113531   4.422   3.654   6.306  0.3828  0.6774 -0.4807
  127OSM   H11A13532   4.411   3.599   6.402  1.6568  0.4681 -0.4302
  127OSM   H11B13533   4.409   3.761   6.332 -1.0170  0.2615  0.6333
  127OSM      P13534   4.609   3.477   6.255  0.4109 -0.4659  0.0412
  127OSM    O1313535   4.519   3.390   6.173  0.0506  0.1848 -0.4311
  127OSM    O1413536   4.748   3.471   6.213 -0.3798  0.2919 -0.0970
  127OSM    O1113537   4.604   3.449   6.405  0.7395 -0.3482 -0.4134
  127OSM    O1213538   4.553   3.635   6.246  0.2367  0.7550  0.4295
  127OSM    C1S13539   4.637   3.313   6.438  0.5432  0.3693  0.4782
  127OSM    H1S13540   4.733   3.276   6.398  0.5169 -0.7643  1.3987
  127OSM    H1T13541   4.556   3.241   6.413 -0.3275  1.4566  0.0687
  127OSM     NF13542   4.718   3.181   6.636  0.3542 -0.1798  0.8579
  127OSM    HNF13543   4.682   3.089   6.653  0.8593 -1.0349 -2.1353
  127OSM    C2S13544   4.639   3.296   6.596  0.6526  0.8610  0.6509
  127OSM    H2S13545   4.695   3.384   6.636  3.3283 -0.1933 -0.4940
  127OSM    C3S13546   4.494   3.287   6.640  0.0880 -0.2180  0.2122
  127OSM    H3S13547   4.440   3.195   6.610 -0.3990  0.4954 -1.2439
  127OSM     O313548   4.402   3.385   6.584  0.2423 -0.5629 -0.1462
  127OSM    HO313549   4.460   3.439   6.530  2.0473 -0.8371  1.4050
  127OSM    C4S13550   4.496   3.296   6.786  0.2380 -0.4838  0.3335
  127OSM    H4S13551   4.544   3.392   6.811  2.3882 -0.4565 -3.2838
  127OSM    C5S13552   4.434   3.215   6.876  0.3482 -0.5809  0.0464
  127OSM    H5S13553   4.369   3.136   6.835  0.4020  0.3960 -2.0419
  127OSM    C6S13554   4.449   3.233   7.028 -0.1380 -0.4553  0.5418
  127OSM    H6S13555   4.345   3.248   7.065 -0.4801 -2.2495  0.4214
  127OSM    H6T13556   4.516   3.319   7.051  1.6867 -2.0278  1.4195
  127OSM    C7S13557   4.509   3.109   7.084 -1.0495  0.3100 -0.5456
  127OSM    H7S13558   4.608   3.086   7.039 -0.2536 -1.0205  1.7130
  127OSM    H7T13559   4.437   3.025   7.075  0.5853 -1.4121  1.4951
  127OSM    C8S13560   4.526   3.134   7.238 -0.7527  0.2658  0.6326
  127OSM    H8S13561   4.426   3.168   7.273 -2.4816 -0.4787 -3.1438
  127OSM    H8T13562   4.598   3.216   7.262 -1.9606  3.2890 -4.4885
  127OSM    C9S13563   4.544   2.997   7.309  0.1161 -0.1834  0.4041
  127OSM    H9S13564   4.643   2.955   7.279 -0.7426 -1.5391 -0.6979
  127OSM    H9T13565   4.474   2.921   7.267  0.6740 -0.5640  0.1410
  127OSM   C10S13566   4.552   2.997   7.467 -0.0928 -0.7170  0.8615
  127OSM   H10S13567   4.475   3.070   7.501  0.1393 -1.1548  2.3968
  127OSM   H10T13568   4.648   3.048   7.490 -0.6432  0.8956 -0.3017
  127OSM   C11S13569   4.512   2.876   7.547  0.3427 -0.5987  0.4130
  127OSM   H11S13570   4.587   2.795   7.534  0.2079 -0.9225  1.5124
  127OSM   H11T13571   4.417   2.826   7.516  0.0488 -0.8447  1.6728
  127OSM   C12S13572   4.511   2.910   7.697 -0.5584  0.4081  0.0588
  127OSM   H12S13573   4.451   3.002   7.711 -0.9400  0.1248  0.3080
  127OSM   H12T13574   4.606   2.945   7.744 -1.4758  4.1109 -0.6054
  127OSM   C13S13575   4.460   2.792   7.782  0.2842  0.1664 -1.0207
  127OSM   H13S13576   4.528   2.707   7.759 -1.3314 -0.8107 -2.3805
  127OSM   H13T13577   4.359   2.755   7.753  0.3467 -0.9999  0.1431
  127OSM   C14S13578   4.452   2.821   7.933  0.0024 -0.5497 -0.9361
  127OSM   H14S13579   4.371   2.896   7.949 -0.3801 -0.8732 -1.3292
  127OSM   H14T13580   4.550   2.854   7.975  0.1928 -3.4411  1.2247
  127OSM   C15S13581   4.414   2.697   8.020  0.6686  0.4468 -0.0201
  127OSM   H15S13582   4.312   2.675   7.980  1.2009  0.7530 -1.6146
  127OSM   H15T13583   4.406   2.719   8.129 -1.7093 -0.7136  0.1327
  127OSM   C16S13584   4.507   2.589   8.000 -0.0412 -0.1990  0.2089
  127OSM   H16S13585   4.610   2.629   8.009  0.0361  0.0074 -1.3192
  127OSM   H16T13586   4.510   2.546   7.898 -1.0623  0.4548 -0.1167
  127OSM   C17S13587   4.494   2.465   8.092 -0.4256  0.1793 -0.4014
  127OSM   H17S13588   4.385   2.447   8.108 -0.0288 -1.2123  0.9573
  127OSM   H17T13589   4.550   2.490   8.184  0.9644 -0.8261 -0.9419
  127OSM   C18S13590   4.549   2.336   8.030 -0.6839  0.3148  0.0496
  127OSM   H18S13591   4.653   2.348   7.992 -0.9352 -0.6506 -0.9965
  127OSM   H18T13592   4.496   2.313   7.936  0.5064  1.7389 -1.0235
  127OSM   H18U13593   4.553   2.264   8.115  2.2518  0.1441 -0.1189
  127OSM    C1F13594   4.844   3.188   6.635 -0.5766 -0.7490  0.3510
  127OSM     OF13595   4.904   3.289   6.598  0.1119 -0.1685 -0.3096
  127OSM    C2F13596   4.917   3.058   6.652  0.8273 -0.0014 -0.0080
  127OSM    H2F13597   4.993   3.057   6.572 -0.1184 -0.5842 -0.9267
  127OSM    H2G13598   4.859   2.966   6.628 -2.5676  1.7049  1.0149
  127OSM    C3F13599   4.991   3.046   6.784  0.2452  0.7070 -0.0227
  127OSM    H3F13600   5.087   3.101   6.777  1.2814 -0.9291  0.6346
  127OSM    H3G13601   5.014   2.939   6.803 -1.7602  0.2930  0.2887
  127OSM    C4F13602   4.913   3.085   6.907  0.0343  0.0572  0.7886
  127OSM    H4F13603   4.817   3.031   6.914 -0.0936  0.1146 -0.3735
  127OSM    H4G13604   4.892   3.194   6.913  2.1567  0.6438 -1.0659
  127OSM    C5F13605   4.997   3.058   7.036  0.2489 -0.1869  0.1493
  127OSM    H5F13606   5.082   3.129   7.040 -0.6507  0.8840  1.7935
  127OSM    H5G13607   5.035   2.954   7.040 -1.3707 -0.7927  1.5822
  127OSM    C6F13608   4.900   3.073   7.158 -0.0228 -0.2832 -0.2174
  127OSM    H6F13609   4.802   3.029   7.130  0.7255 -0.7541 -2.2493
  127OSM    H6G13610   4.892   3.181   7.184  1.7806  0.6154 -3.0033
  127OSM    C7F13611   4.950   3.005   7.287  1.0020  0.5048  0.6618
  127OSM    H7F13612   4.953   2.895   7.270 -0.4960  0.4775  0.3689
  127OSM    H7G13613   4.868   3.020   7.360  1.3769 -1.1331  1.4509
  127OSM    C8F13614   5.076   3.069   7.347  0.3126 -0.1360  0.4399
  127OSM    H8F13615   5.057   3.174   7.380 -1.7418 -1.2716  3.3202
  127OSM    H8G13616   5.152   3.072   7.267 -0.1374 -1.2529 -0.0487
  127OSM    C9F13617   5.127   2.986   7.464 -1.1264 -0.1588  0.3269
  127OSM    H9F13618   5.169   2.887   7.439  1.4456  0.7762  0.5935
  127OSM   C10F13619   5.135   3.017   7.595 -0.1217  0.5100  0.1785
  127OSM   H10F13620   5.169   2.935   7.661  1.6710  0.3046 -0.9217
  127OSM   C11F13621   5.068   3.142   7.650  0.0189 -0.2404  0.3964
  127OSM   H11F13622   5.098   3.230   7.590  0.7326  0.2551  1.4538
  127OSM   H11G13623   5.118   3.168   7.746  1.3542 -1.1539 -0.0262
  127OSM   C12F13624   4.914   3.126   7.656  0.1631  0.4702 -0.5755
  127OSM   H12F13625   4.898   3.037   7.722 -3.0061  0.6174 -0.9993
  127OSM   H12G13626   4.873   3.104   7.556  0.6558  2.6645 -1.3111
  127OSM   C13F13627   4.832   3.237   7.719  0.0717 -0.3882 -0.1140
  127OSM   H13F13628   4.724   3.213   7.708 -0.1302  0.9076 -1.1740
  127OSM   H13G13629   4.849   3.333   7.667  0.9909 -0.1353  0.6274
  127OSM   C14F13630   4.869   3.251   7.865  0.1023  0.1394  0.3639
  127OSM   H14F13631   4.973   3.288   7.876 -0.1086  1.1180 -0.6683
  127OSM   H14G13632   4.858   3.159   7.925  0.5175 -0.6219 -0.6986
  127OSM   C15F13633   4.784   3.359   7.934  0.3237 -0.5849  0.1751
  127OSM   H15F13634   4.676   3.333   7.930 -0.3442  2.0935 -2.3628
  127OSM   H15G13635   4.799   3.450   7.873  1.8990 -0.2210  1.0525
  127OSM   C16F13636   4.830   3.378   8.084 -0.1736 -0.6645  0.4205
  127OSM   H16F13637   4.940   3.392   8.087  0.1422 -2.7129  0.1493
  127OSM   H16G13638   4.796   3.278   8.117 -1.0211 -0.7170 -0.5710
  127OSM   C17F13639   4.781   3.508   8.152  0.0004 -0.2394  0.4270
  127OSM   H17F13640   4.670   3.514   8.148 -0.0783 -0.8558  1.3039
  127OSM   H17G13641   4.818   3.598   8.099 -0.1339 -0.6362 -0.3481
  127OSM   C18F13642   4.822   3.494   8.298  0.7716 -0.2891 -0.6677
  127OSM   H18F13643   4.811   3.394   8.346 -4.3961 -1.0471 -2.8567
  127OSM   H18G13644   4.776   3.566   8.369  1.4404 -1.2975  0.8372
  127OSM   H18H13645   4.928   3.530   8.301  0.1707  1.8251 -2.3409
  128OSM      N13646   2.122   5.729   6.030  0.1320 -0.5503 -0.5948
  128OSM    C1513647   2.064   5.626   6.124 -0.3838  0.1706  0.0732
  128OSM   H15A13648   2.151   5.600   6.182 -0.3940  0.7116  0.3379
  128OSM   H15B13649   2.032   5.539   6.069 -0.0928 -2.6086  3.9430
  128OSM   H15C13650   1.984   5.664   6.185  0.3389 -0.9647  1.7842
  128OSM    C1413651   2.262   5.698   5.991  0.8959 -0.2092  0.4940
  128OSM   H14A13652   2.256   5.611   5.927  1.5079  0.5672 -0.6651
  128OSM   H14B13653   2.332   5.692   6.072  1.0650  0.0506  0.3713
  128OSM   H14C13654   2.300   5.772   5.921 -1.9511  1.7207  0.7638
  128OSM    C1313655   2.041   5.730   5.909 -0.3072  0.5100  0.2213
  128OSM   H13A13656   2.076   5.811   5.847 -2.2760  2.6419  1.7299
  128OSM   H13B13657   1.938   5.752   5.931 -0.8558  0.4507 -2.0315
  128OSM   H13C13658   2.040   5.633   5.862 -2.8400  0.1979  0.7997
  128OSM    C1213659   2.122   5.867   6.092 -0.0524  0.2394  0.1278
  128OSM   H12A13660   2.019   5.897   6.087  0.0227  0.5902  0.6060
  128OSM   H12B13661   2.176   5.925   6.018  3.0767 -0.2846  1.8234
  128OSM    C1113662   2.196   5.890   6.220 -0.6577  0.3076 -0.4989
  128OSM   H11A13663   2.161   5.829   6.306  0.3791 -2.0825 -1.6674
  128OSM   H11B13664   2.176   5.998   6.237  0.5409  0.4833 -0.0865
  128OSM      P13665   2.448   5.974   6.206  0.1031 -0.0730  0.1833
  128OSM    O1313666   2.576   5.907   6.214 -0.0786  0.0192  0.3077
  128OSM    O1413667   2.429   6.069   6.093  0.5621  0.5241 -0.1767
  128OSM    O1113668   2.412   6.056   6.338  0.0580  0.2963 -0.1007
  128OSM    O1213669   2.342   5.856   6.199 -0.0181  0.5924 -0.1838
  128OSM    C1S13670   2.425   5.993   6.468 -0.0434 -0.1018 -0.1318
  128OSM    H1S13671   2.533   5.978   6.491  0.5114 -2.2219 -3.4204
  128OSM    H1T13672   2.373   5.895   6.459 -0.7523  0.0084  2.1762
  128OSM     NF13673   2.321   5.981   6.693 -0.3187 -0.3481 -0.2931
  128OSM    HNF13674   2.226   5.957   6.714 -0.3704  0.1235  0.0290
  128OSM    C2S13675   2.346   6.073   6.581  0.5791 -0.8302 -0.1358
  128OSM    H2S13676   2.413   6.148   6.630  2.2919 -2.7138  0.5353
  128OSM    C3S13677   2.214   6.137   6.523  0.2469  0.1461 -0.2635
  128OSM    H3S13678   2.151   6.052   6.488 -0.6326  0.5336  0.3160
  128OSM     O313679   2.229   6.226   6.412  0.1004  0.5978  0.7445
  128OSM    HO313680   2.306   6.198   6.362 -1.1595 -1.5880 -0.1075
  128OSM    C4S13681   2.147   6.217   6.628 -0.4539 -0.1763 -0.1668
  128OSM    H4S13682   2.209   6.292   6.678 -0.2929 -0.1814 -0.3578
  128OSM    C5S13683   2.011   6.224   6.643  0.0440  0.1819  0.3488
  128OSM    H5S13684   1.952   6.161   6.576  0.8250  0.6674 -0.8225
  128OSM    C6S13685   1.932   6.307   6.737  0.6285  0.1750 -0.1786
  128OSM    H6S13686   1.844   6.240   6.754  1.0462 -0.6968 -1.3305
  128OSM    H6T13687   1.895   6.396   6.683  0.9424  0.1876 -0.3742
  128OSM    C7S13688   1.989   6.352   6.873 -0.2281  0.1453  0.5080
  128OSM    H7S13689   2.067   6.432   6.868  0.2163 -0.2772  0.5831
  128OSM    H7T13690   2.037   6.262   6.917  3.0937  2.3406  1.7775
  128OSM    C8S13691   1.880   6.403   6.975  0.1170 -0.5242 -0.0815
  128OSM    H8S13692   1.870   6.338   7.064  1.7213 -0.1054  0.4279
  128OSM    H8T13693   1.789   6.390   6.912  0.9986 -0.8364 -1.3546
  128OSM    C9S13694   1.913   6.546   7.010 -0.3311  0.3888 -0.7277
  128OSM    H9S13695   1.932   6.611   6.922  0.7991 -0.9879 -1.5367
  128OSM    H9T13696   2.012   6.541   7.061 -0.1032  0.0446 -1.2005
  128OSM   C10S13697   1.803   6.600   7.112 -0.1204  0.1777  0.2499
  128OSM   H10S13698   1.713   6.596   7.048 -1.8038 -0.7944  2.5151
  128OSM   H10T13699   1.831   6.704   7.139  0.1960 -0.2885  1.8425
  128OSM   C11S13700   1.784   6.525   7.249 -0.6486 -0.1951  0.2544
  128OSM   H11S13701   1.802   6.415   7.242 -0.8854 -0.3250  1.4380
  128OSM   H11T13702   1.679   6.544   7.278 -0.1996  0.8425  1.2576
  128OSM   C12S13703   1.880   6.564   7.366 -0.9058  0.5362 -0.1646
  128OSM   H12S13704   1.872   6.674   7.378 -1.3143  0.3515  1.5286
  128OSM   H12T13705   1.989   6.543   7.355 -1.0831 -0.4073 -0.2176
  128OSM   C13S13706   1.836   6.504   7.496 -0.1915  0.4412  0.0707
  128OSM   H13S13707   1.807   6.398   7.478 -1.7537  1.0306 -1.1731
  128OSM   H13T13708   1.737   6.548   7.523 -0.7929 -0.7320 -0.1725
  128OSM   C14S13709   1.930   6.508   7.626  0.5067  0.7344  0.7520
  128OSM   H14S13710   2.002   6.426   7.607 -1.4740 -1.3204  1.6804
  128OSM   H14T13711   1.865   6.479   7.711  0.4349 -0.2509  0.3734
  128OSM   C15S13712   1.998   6.640   7.647  0.3159  0.2653 -0.4112
  128OSM   H15S13713   1.925   6.723   7.664  0.0767  0.2579 -1.3652
  128OSM   H15T13714   2.041   6.663   7.548  0.5878 -0.8530 -0.5552
  128OSM   C16S13715   2.089   6.636   7.759 -0.0077  0.2607  0.1306
  128OSM   H16S13716   2.131   6.738   7.767 -0.9470  0.8482 -1.7958
  128OSM   H16T13717   2.166   6.556   7.757  0.0556  0.1371  3.2089
  128OSM   C17S13718   2.019   6.627   7.899  0.5579  0.6543 -0.3400
  128OSM   H17S13719   1.973   6.526   7.895 -0.0694  0.8214  1.5441
  128OSM   H17T13720   1.940   6.705   7.896 -0.2062 -0.0935 -0.0601
  128OSM   C18S13721   2.111   6.633   8.021  0.5759 -0.7816 -0.0259
  128OSM   H18S13722   2.155   6.735   8.019 -0.5479 -0.2820 -1.3836
  128OSM   H18T13723   2.182   6.550   8.003  0.2045 -0.5086 -3.6094
  128OSM   H18U13724   2.053   6.621   8.115 -2.4276  1.3454 -1.4344
  128OSM    C1F13725   2.432   5.937   6.766  0.1795 -0.2126  0.2864
  128OSM     OF13726   2.539   5.996   6.759 -0.2272  0.2744  0.7064
  128OSM    C2F13727   2.419   5.823   6.865  0.0237  0.6535  0.3876
  128OSM    H2F13728   2.479   5.743   6.817  0.5370 -0.1323  2.2184
  128OSM    H2G13729   2.314   5.794   6.891 -0.2560  1.3091  0.0040
  128OSM    C3F13730   2.481   5.858   7.001 -0.2260 -0.7551 -0.3243
  128OSM    H3F13731   2.468   5.964   7.032  3.0205 -0.6832  1.1797
  128OSM    H3G13732   2.592   5.854   7.001 -0.1125  0.3658 -2.8436
  128OSM    C4F13733   2.424   5.775   7.115 -0.0916  0.1748 -0.0259
  128OSM    H4F13734   2.481   5.681   7.126  1.5493  1.1025 -0.2779
  128OSM    H4G13735   2.321   5.741   7.093 -0.1483  0.0290  0.4524
  128OSM    C5F13736   2.421   5.850   7.251  0.2968 -0.5273  0.2128
  128OSM    H5F13737   2.354   5.938   7.244  0.5617 -0.4385 -2.0936
  128OSM    H5G13738   2.520   5.893   7.278 -0.0519 -0.0239  0.6954
  128OSM    C6F13739   2.381   5.762   7.363  0.3743  0.2409  0.0342
  128OSM    H6F13740   2.437   5.666   7.356  0.7336  0.5439 -1.7568
  128OSM    H6G13741   2.273   5.736   7.355  0.4079 -0.0130  0.3786
  128OSM    C7F13742   2.416   5.816   7.500 -0.5847 -0.0798 -0.5794
  128OSM    H7F13743   2.360   5.905   7.537  2.7763  1.7131  0.5838
  128OSM    H7G13744   2.522   5.848   7.490 -0.1479 -1.1314  0.3931
  128OSM    C8F13745   2.422   5.714   7.611 -0.3828  0.8160 -0.2031
  128OSM    H8F13746   2.492   5.739   7.693  2.1798  1.1789 -2.3750
  128OSM    H8G13747   2.467   5.622   7.569  0.0583  0.5416  0.8605
  128OSM    C9F13748   2.295   5.670   7.665 -0.4577  0.8222 -0.1098
  128OSM    H9F13749   2.221   5.616   7.604  0.2973 -0.7309  0.2999
  128OSM   C10F13750   2.256   5.695   7.792 -0.8244 -0.0755  0.4879
  128OSM   H10F13751   2.156   5.659   7.818 -1.1083 -0.1786 -0.6603
  128OSM   C11F13752   2.328   5.764   7.901  0.1225 -0.5151  0.2568
  128OSM   H11F13753   2.253   5.803   7.973  1.3198 -0.1815  1.3619
  128OSM   H11G13754   2.379   5.859   7.873 -2.2768  1.1223  1.1326
  128OSM   C12F13755   2.430   5.678   7.978  0.1561  0.3652  0.3214
  128OSM   H12F13756   2.514   5.749   7.999  3.1799 -1.5455 -3.8016
  128OSM   H12G13757   2.476   5.590   7.928  0.1238  0.8811 -0.6484
  128OSM   C13F13758   2.379   5.638   8.124 -0.1330  0.7291 -0.8495
  128OSM   H13F13759   2.361   5.729   8.185  0.0071 -0.7160  1.4642
  128OSM   H13G13760   2.465   5.587   8.174 -2.4619 -1.5410  1.1399
  128OSM   C14F13761   2.270   5.526   8.123  0.0133  0.0622 -0.6679
  128OSM   H14F13762   2.305   5.444   8.057  0.6617 -0.0947 -0.1349
  128OSM   H14G13763   2.180   5.573   8.078 -0.1360 -1.0346 -1.5651
  128OSM   C15F13764   2.229   5.459   8.258  0.0564 -0.2632 -0.2592
  128OSM   H15F13765   2.181   5.539   8.318  2.6377  2.5071 -1.6179
  128OSM   H15G13766   2.323   5.434   8.312  0.6381 -1.2676 -1.6712
  128OSM   C16F13767   2.131   5.345   8.234 -0.1725 -0.3244  0.6214
  128OSM   H16F13768   2.178   5.280   8.158  1.3386  1.6671 -0.2389
  128OSM   H16G13769   2.034   5.386   8.196  0.0997 -1.5054 -1.5274
  128OSM   C17F13770   2.097   5.269   8.359 -0.3175 -0.0795  0.6779
  128OSM   H17F13771   2.018   5.191   8.347  2.6612 -3.1975 -0.0194
  128OSM   H17G13772   2.063   5.345   8.434 -0.2411 -0.3761  1.0166
  128OSM   C18F13773   2.219   5.185   8.411  0.0190 -0.3029 -0.0944
  128OSM   H18F13774   2.312   5.234   8.449  1.4014 -2.4709 -0.5191
  128OSM   H18G13775   2.254   5.128   8.322  1.3351 -0.9100  0.7819
  128OSM   H18H13776   2.194   5.125   8.501 -0.4578  0.9110  0.6100
  129OSM      N13777   0.137   3.345   6.148 -0.4512  0.5206  0.5294
  129OSM    C1513778   0.246   3.321   6.045  0.2663  0.2505 -0.6816
  129OSM   H15A13779   0.237   3.219   6.010  0.5280 -1.1878  3.0047
  129OSM   H15B13780   0.345   3.333   6.087 -0.1095  0.2124  0.2217
  129OSM   H15C13781   0.234   3.379   5.954 -1.1338 -0.4785 -0.9952
  129OSM    C1413782   0.164   3.488   6.198 -0.2057 -0.6842 -0.0616
  129OSM   H14A13783   0.247   3.500   6.266  1.4333 -0.0779 -2.0758
  129OSM   H14B13784   0.076   3.524   6.249 -0.3085  0.5274 -1.0530
  129OSM   H14C13785   0.181   3.555   6.116 -2.5659 -0.4558 -0.4260
  129OSM    C1313786   0.005   3.326   6.081  0.3931 -0.2798  0.2165
  129OSM   H13A13787  -0.076   3.335   6.152 -0.9471  0.3189 -1.3272
  129OSM   H13B13788  -0.016   3.240   6.019 -1.6399  0.4487 -0.1750
  129OSM   H13C13789  -0.013   3.415   6.023  3.2064  1.9703  2.4466
  129OSM    C1213790   0.147   3.236   6.258 -0.0871 -0.5999 -1.7145
  129OSM   H12A13791   0.248   3.239   6.297  0.4583  1.8650 -3.0964
  129OSM   H12B13792   0.130   3.137   6.221  0.1377 -1.1126 -0.4980
  129OSM    C1113793   0.053   3.254   6.382  0.0460 -0.4968 -0.7284
  129OSM   H11A13794   0.070   3.350   6.435 -1.6620 -0.2273 -0.6127
  129OSM   H11B13795   0.069   3.177   6.461 -0.1095  0.7466  0.5507
  129OSM      P13796  -0.163   3.110   6.327  0.1011  0.0735  0.4006
  129OSM    O1313797  -0.259   3.134   6.217 -0.4468  0.0581  0.8128
  129OSM    O1413798  -0.057   3.002   6.322  0.2507 -0.3548  0.0203
  129OSM    O1113799  -0.249   3.090   6.460  0.1042  0.3390  0.0669
  129OSM    O1213800  -0.085   3.250   6.346 -0.1124  0.2171  0.3386
  129OSM    C1S13801  -0.289   3.199   6.541  0.2127 -0.4146 -0.4889
  129OSM    H1S13802  -0.374   3.249   6.490  0.8777  0.0622 -1.1514
  129OSM    H1T13803  -0.207   3.273   6.550 -0.9657  0.8860  0.0679
  129OSM     NF13804  -0.377   3.287   6.749 -0.6503  0.5441 -0.1355
  129OSM    HNF13805  -0.305   3.337   6.798  1.3006  0.0184 -2.2673
  129OSM    C2S13806  -0.327   3.167   6.684 -0.1549  0.0066 -0.3275
  129OSM    H2S13807  -0.413   3.097   6.681 -0.7591  0.7293 -0.1258
  129OSM    C3S13808  -0.215   3.091   6.771  0.6263 -0.1439 -0.3241
  129OSM    H3S13809  -0.126   3.156   6.788 -0.4928  1.9012 -1.7643
  129OSM     O313810  -0.179   2.965   6.709 -0.5071 -0.3631  0.6584
  129OSM    HO313811  -0.251   2.947   6.648  1.0990 -2.8674 -0.6121
  129OSM    C4S13812  -0.275   3.060   6.910 -0.3465 -0.2034 -0.0036
  129OSM    H4S13813  -0.336   2.969   6.914 -0.2423 -0.2803 -0.1403
  129OSM    C5S13814  -0.250   3.138   7.019 -0.9574 -0.6777  0.3360
  129OSM    H5S13815  -0.179   3.220   7.006 -0.9229 -0.7810 -0.1278
  129OSM    C6S13816  -0.301   3.127   7.161 -0.0222  0.7799 -0.2077
  129OSM    H6S13817  -0.374   3.210   7.173 -0.0231  1.2550 -2.8910
  129OSM    H6T13818  -0.221   3.151   7.233 -0.2756 -0.4035  0.5079
  129OSM    C7S13819  -0.361   2.992   7.198  0.5320  0.0655  0.1007
  129OSM    H7S13820  -0.303   2.901   7.172 -1.9838 -0.9392 -2.4744
  129OSM    H7T13821  -0.455   2.983   7.140  1.4910  0.7529 -1.6715
  129OSM    C8S13822  -0.383   2.986   7.351  0.5341  0.2879 -0.6915
  129OSM    H8S13823  -0.449   3.070   7.380 -0.4930 -1.5405  2.8913
  129OSM    H8T13824  -0.281   2.981   7.396  0.3212 -0.1587 -0.2404
  129OSM    C9S13825  -0.453   2.855   7.389  0.6842  0.8161  0.1043
  129OSM    H9S13826  -0.379   2.772   7.376  1.3186  1.5141 -0.8540
  129OSM    H9T13827  -0.540   2.838   7.323  0.5874  0.4026  0.3302
  129OSM   C10S13828  -0.511   2.857   7.525  0.3891  0.3821 -0.1368
  129OSM   H10S13829  -0.551   2.760   7.562  0.5698 -0.2900 -1.6491
  129OSM   H10T13830  -0.604   2.916   7.511  0.0527  0.2239  1.2464
  129OSM   C11S13831  -0.428   2.924   7.637  0.2912 -0.2007  0.0831
  129OSM   H11S13832  -0.399   3.029   7.617  2.8147 -0.6233  1.1901
  129OSM   H11T13833  -0.333   2.869   7.652  0.1444 -0.8367 -1.2065
  129OSM   C12S13834  -0.496   2.943   7.776 -0.2397 -0.8593 -0.7963
  129OSM   H12S13835  -0.533   2.849   7.820 -0.1820  0.0507  1.3192
  129OSM   H12T13836  -0.583   3.010   7.755 -0.3227 -0.8776 -0.5107
  129OSM   C13S13837  -0.424   3.011   7.897  0.7662 -0.4432 -0.6953
  129OSM   H13S13838  -0.403   3.110   7.850 -0.4866 -0.4719 -1.3673
  129OSM   H13T13839  -0.329   2.961   7.922  0.4422 -0.4428  0.5587
  129OSM   C14S13840  -0.511   3.006   8.030 -0.5141 -0.3202  0.2916
  129OSM   H14S13841  -0.567   2.910   8.029 -1.3860  0.1448 -1.8338
  129OSM   H14T13842  -0.572   3.097   8.013 -1.1894 -0.7167  0.5427
  129OSM   C15S13843  -0.426   3.020   8.156  0.1521 -0.1821 -0.1771
  129OSM   H15S13844  -0.391   3.125   8.161 -1.2022  0.2685  0.4344
  129OSM   H15T13845  -0.338   2.952   8.160  2.0424  2.2082  1.8119
  129OSM   C16S13846  -0.506   2.983   8.287 -0.2353 -0.6155 -0.0494
  129OSM   H16S13847  -0.540   2.878   8.284 -0.5409 -0.5058 -0.6264
  129OSM   H16T13848  -0.598   3.045   8.298  0.5442  0.4321  0.8717
  129OSM   C17S13849  -0.427   3.008   8.414 -0.1896 -0.8019  0.1217
  129OSM   H17S13850  -0.383   3.109   8.403 -0.4095 -0.9969 -3.4673
  129OSM   H17T13851  -0.342   2.937   8.429 -0.2281 -0.9833 -0.5124
  129OSM   C18S13852  -0.527   2.993   8.529 -0.3394 -0.2967 -0.1776
  129OSM   H18S13853  -0.609   3.067   8.517  0.5206  1.0689  1.8532
  129OSM   H18T13854  -0.478   3.009   8.628 -0.1418  0.1964 -0.3535
  129OSM   H18U13855  -0.570   2.891   8.535  1.0036 -0.9239 -0.7374
  129OSM    C1F13856  -0.494   3.353   6.723 -0.2857  0.2664 -0.4797
  129OSM     OF13857  -0.585   3.287   6.675  0.1200 -0.3634  0.0196
  129OSM    C2F13858  -0.509   3.495   6.751 -0.3349 -0.0560  0.0918
  129OSM    H2F13859  -0.509   3.545   6.651 -0.3247  1.7537  0.9639
  129OSM    H2G13860  -0.414   3.527   6.799 -1.0080  0.5742  1.0217
  129OSM    C3F13861  -0.638   3.513   6.833 -0.1935  0.1310  1.1072
  129OSM    H3F13862  -0.735   3.481   6.788 -2.1079  3.6862  2.3783
  129OSM    H3G13863  -0.655   3.622   6.845 -1.1814  0.0902  0.2589
  129OSM    C4F13864  -0.623   3.436   6.969 -0.3249 -0.0199 -0.0671
  129OSM    H4F13865  -0.517   3.410   6.985 -1.3230 -3.1015  2.6325
  129OSM    H4G13866  -0.671   3.336   6.971 -0.0568 -0.1366  0.5382
  129OSM    C5F13867  -0.652   3.536   7.086 -0.4699  0.2151 -0.0638
  129OSM    H5F13868  -0.760   3.559   7.102 -0.6542 -1.3479  1.1140
  129OSM    H5G13869  -0.599   3.631   7.062  0.6236 -0.4439 -0.3436
  129OSM    C6F13870  -0.610   3.468   7.218  0.1572 -0.5094 -0.5850
  129OSM    H6F13871  -0.506   3.428   7.220 -0.0550 -1.0898  1.3898
  129OSM    H6G13872  -0.685   3.386   7.225 -1.8909  1.3636  0.6007
  129OSM    C7F13873  -0.619   3.568   7.335 -0.4311  0.3349  0.2690
  129OSM    H7F13874  -0.723   3.606   7.328 -0.2653  1.0016  1.2676
  129OSM    H7G13875  -0.549   3.654   7.333  0.6234 -0.5068 -0.8335
  129OSM    C8F13876  -0.601   3.487   7.474  0.4349 -0.4273 -0.5510
  129OSM    H8F13877  -0.674   3.404   7.481 -0.2316  0.1850 -0.0282
  129OSM    H8G13878  -0.630   3.540   7.567 -0.8847  0.5583 -1.4981
  129OSM    C9F13879  -0.453   3.439   7.475 -0.7471 -0.3954 -0.4157
  129OSM    H9F13880  -0.416   3.378   7.392 -0.2973 -1.5849  0.6148
  129OSM   C10F13881  -0.362   3.474   7.563 -0.5182  0.4320 -1.0934
  129OSM   H10F13882  -0.262   3.428   7.558 -1.0672 -1.1281  1.1967
  129OSM   C11F13883  -0.381   3.554   7.684 -0.3385 -0.1745 -0.4911
  129OSM   H11F13884  -0.479   3.608   7.684 -0.0700  0.3483  0.4719
  129OSM   H11G13885  -0.300   3.629   7.695  0.5603 -1.4401  2.4306
  129OSM   C12F13886  -0.375   3.455   7.801 -0.3092  0.0834 -0.0233
  129OSM   H12F13887  -0.286   3.390   7.791 -1.4614 -1.4830 -0.4747
  129OSM   H12G13888  -0.456   3.380   7.811  1.3828 -1.5885  2.2008
  129OSM   C13F13889  -0.375   3.534   7.934 -0.2320  0.5362  0.2433
  129OSM   H13F13890  -0.471   3.590   7.936  0.1381  1.1854  0.1391
  129OSM   H13G13891  -0.285   3.598   7.927  1.1382 -1.3990 -0.6436
  129OSM   C14F13892  -0.375   3.432   8.051  0.3693  0.0759 -0.5544
  129OSM   H14F13893  -0.280   3.374   8.060  0.2704  0.2197  2.2819
  129OSM   H14G13894  -0.462   3.366   8.030  1.5039 -2.2045  1.3880
  129OSM   C15F13895  -0.388   3.502   8.188 -0.4838 -0.5935  0.1183
  129OSM   H15F13896  -0.470   3.576   8.177 -1.1020 -1.2547  0.2225
  129OSM   H15G13897  -0.288   3.548   8.203  0.3982 -2.5564  0.6481
  129OSM   C16F13898  -0.419   3.408   8.304 -0.0391 -0.3921  0.5319
  129OSM   H16F13899  -0.342   3.328   8.309  0.6943  0.1939 -0.9487
  129OSM   H16G13900  -0.513   3.350   8.297 -2.0538  2.6328  0.7770
  129OSM   C17F13901  -0.407   3.475   8.444  0.0844 -0.0345  0.8214
  129OSM   H17F13902  -0.309   3.526   8.437  0.5628 -0.8756  1.1238
  129OSM   H17G13903  -0.387   3.395   8.519  2.0967  0.2649  0.6608
  129OSM   C18F13904  -0.514   3.579   8.481  0.5314 -0.1700 -0.4309
  129OSM   H18F13905  -0.482   3.678   8.443 -0.7042  0.4879  0.1577
  129OSM   H18G13906  -0.533   3.576   8.591  0.6727  0.7147 -0.3748
  129OSM   H18H13907  -0.608   3.548   8.430  1.9785 -1.6135 -2.3720
  130OSM      N13908   6.673   4.372   6.215  0.0501 -0.4995 -0.0772
  130OSM    C1513909   6.620   4.255   6.289  0.2252  0.1245  0.1632
  130OSM   H15A13910   6.636   4.162   6.236  0.2714 -1.3141  2.5399
  130OSM   H15B13911   6.516   4.256   6.321  0.2840 -0.0140  0.3592
  130OSM   H15C13912   6.677   4.250   6.380 -0.0700 -0.6346  0.3182
  130OSM    C1413913   6.594   4.395   6.086  0.2606  0.0222 -0.0963
  130OSM   H14A13914   6.587   4.301   6.034  2.1795 -0.5764  0.6323
  130OSM   H14B13915   6.641   4.465   6.019  1.0669 -0.9249 -0.5402
  130OSM   H14C13916   6.492   4.426   6.103 -0.3525 -1.8281 -0.2161
  130OSM    C1313917   6.664   4.496   6.305 -0.4984  0.1277 -0.0318
  130OSM   H13A13918   6.688   4.586   6.251  0.0117 -1.9242 -3.5557
  130OSM   H13B13919   6.732   4.477   6.387 -0.1140  0.3140 -0.3042
  130OSM   H13C13920   6.562   4.505   6.340 -0.5235 -2.1765  0.6622
  130OSM    C1213921   6.819   4.349   6.169  0.6725 -0.1727  0.1490
  130OSM   H12A13922   6.867   4.433   6.120  2.0964 -0.5125  0.9275
  130OSM   H12B13923   6.823   4.260   6.108  1.1592 -1.2616  1.7222
  130OSM    C1113924   6.924   4.320   6.283  0.0572  0.0523  0.5502
  130OSM   H11A13925   7.019   4.277   6.247 -0.8965  0.2899 -2.5055
  130OSM   H11B13926   6.882   4.236   6.342 -1.3966  0.7581  0.5727
  130OSM      P13927   7.040   4.548   6.323 -0.1080  0.2298  0.1132
  130OSM    O1313928   7.155   4.475   6.258 -0.2205  0.0298  0.1533
  130OSM    O1413929   6.968   4.651   6.244  0.3416  0.3110  0.1158
  130OSM    O1113930   7.090   4.620   6.454 -0.4807 -0.3728  0.2001
  130OSM    O1213931   6.938   4.437   6.375  0.2586  0.4397  0.6874
  130OSM    C1S13932   7.028   4.582   6.574 -0.1946  0.1642  0.2054
  130OSM    H1S13933   7.032   4.475   6.604  0.3739  1.4741  5.7493
  130OSM    H1T13934   6.922   4.613   6.572  0.5386  3.0580 -2.0592
  130OSM     NF13935   7.031   4.616   6.819 -0.3069 -0.0786  0.1856
  130OSM    HNF13936   6.976   4.682   6.869  1.1410  1.7026 -0.4517
  130OSM    C2S13937   7.097   4.655   6.695 -0.1890  0.2198  0.0141
  130OSM    H2S13938   7.202   4.621   6.702  0.1624  1.5370  1.7396
  130OSM    C3S13939   7.099   4.809   6.683  1.2820 -0.3161 -0.8247
  130OSM    H3S13940   6.994   4.846   6.675  1.4730  0.0393 -1.9790
  130OSM     O313941   7.150   4.859   6.563  0.2639 -0.0244  0.2222
  130OSM    HO313942   7.147   4.787   6.500 -0.7927 -0.9791  1.3159
  130OSM    C4S13943   7.167   4.873   6.795 -0.4850  0.4246 -0.3974
  130OSM    H4S13944   7.104   4.914   6.875  1.6978  0.8444  1.1884
  130OSM    C5S13945   7.300   4.889   6.807  0.4265 -0.0010  0.6281
  130OSM    H5S13946   7.361   4.852   6.723  0.8482  1.4793  0.2488
  130OSM    C6S13947   7.377   4.948   6.927  0.3868 -0.1865  0.7967
  130OSM    H6S13948   7.436   5.034   6.889 -1.3774  2.0339  2.7469
  130OSM    H6T13949   7.451   4.869   6.953  1.7952  0.5001 -0.9404
  130OSM    C7S13950   7.298   5.000   7.055  0.1429  0.2609  0.2596
  130OSM    H7S13951   7.235   4.917   7.093  2.3222 -2.3489 -1.4873
  130OSM    H7T13952   7.234   5.088   7.032  1.4640  0.9797 -0.8085
  130OSM    C8S13953   7.385   5.050   7.164  0.0091  0.4896 -0.2504
  130OSM    H8S13954   7.452   5.134   7.139 -0.0465  0.9379  1.0263
  130OSM    H8T13955   7.443   4.965   7.207 -0.3782  0.1454 -0.3943
  130OSM    C9S13956   7.297   5.101   7.282 -0.2925 -0.4252  0.1843
  130OSM    H9S13957   7.218   5.029   7.313 -0.6146  0.8827  2.6571
  130OSM    H9T13958   7.252   5.200   7.261  1.5432  0.4820  0.3000
  130OSM   C10S13959   7.387   5.103   7.410 -0.3402 -0.1468 -0.5007
  130OSM   H10S13960   7.464   5.174   7.373 -0.6408  0.6406  0.3222
  130OSM   H10T13961   7.435   5.006   7.434  1.8175  1.0901  0.4866
  130OSM   C11S13962   7.331   5.166   7.533  0.4096  0.4453  0.6496
  130OSM   H11S13963   7.246   5.108   7.575  1.9981 -0.3500  2.9796
  130OSM   H11T13964   7.294   5.269   7.513  1.3028  0.8404  1.0057
  130OSM   C12S13965   7.415   5.158   7.661 -0.0713 -0.1809 -0.2638
  130OSM   H12S13966   7.483   5.243   7.640 -0.2476 -0.2754 -1.2677
  130OSM   H12T13967   7.468   5.061   7.657  0.4046  0.1070 -1.4532
  130OSM   C13S13968   7.349   5.184   7.800 -0.0159 -0.8591 -0.5281
  130OSM   H13S13969   7.320   5.087   7.845 -0.2721 -0.4507  0.2029
  130OSM   H13T13970   7.254   5.237   7.776 -0.3219  0.2651  2.6610
  130OSM   C14S13971   7.431   5.286   7.889 -0.2391 -0.5157 -0.2471
  130OSM   H14S13972   7.458   5.375   7.827  0.0346 -1.0061 -0.8474
  130OSM   H14T13973   7.526   5.232   7.906  0.7529  1.4196  0.5924
  130OSM   C15S13974   7.364   5.324   8.018 -0.4268  0.7666 -0.7106
  130OSM   H15S13975   7.302   5.414   7.994 -1.5735 -0.0699 -0.9558
  130OSM   H15T13976   7.442   5.362   8.087 -0.6216 -1.8144  1.0564
  130OSM   C16S13977   7.273   5.219   8.091  0.2652 -0.2656  0.1047
  130OSM   H16S13978   7.330   5.124   8.103 -0.3339 -0.6155  0.2549
  130OSM   H16T13979   7.181   5.207   8.028 -0.8731 -3.5440  2.1374
  130OSM   C17S13980   7.227   5.263   8.231 -0.7735 -0.2500  0.2065
  130OSM   H17S13981   7.156   5.344   8.204  0.7901 -0.0566 -3.9091
  130OSM   H17T13982   7.308   5.313   8.288 -0.9034  1.2161 -0.8338
  130OSM   C18S13983   7.150   5.162   8.303 -0.1392  0.1026  0.0053
  130OSM   H18S13984   7.084   5.109   8.231  1.9955  0.5949 -2.5105
  130OSM   H18T13985   7.082   5.212   8.374  0.1619  2.9506 -1.5438
  130OSM   H18U13986   7.214   5.090   8.358 -0.4326 -0.1570  0.0081
  130OSM    C1F13987   7.051   4.490   6.871 -0.1626 -0.5110  1.0280
  130OSM     OF13988   7.127   4.409   6.813  0.5520 -0.0841  0.2451
  130OSM    C2F13989   6.971   4.433   6.984  0.0310 -0.3344  0.2303
  130OSM    H2F13990   6.947   4.329   6.952 -0.0969 -0.7797  1.7213
  130OSM    H2G13991   6.883   4.501   6.991  0.7359  0.4028  2.9049
  130OSM    C3F13992   7.049   4.428   7.117  0.2828 -0.6379  0.3239
  130OSM    H3F13993   7.085   4.528   7.150 -0.6546 -0.6354  1.3997
  130OSM    H3G13994   7.132   4.357   7.099  0.5864 -0.1486 -0.2604
  130OSM    C4F13995   6.949   4.376   7.224 -0.1552 -0.2077  0.3736
  130OSM    H4F13996   6.930   4.272   7.191  1.9226 -0.8954  1.1282
  130OSM    H4G13997   6.853   4.431   7.228 -0.8357 -1.2149 -1.1767
  130OSM    C5F13998   7.019   4.374   7.363  0.3264  0.4213 -0.5733
  130OSM    H5F13999   7.031   4.481   7.390  1.3094  0.5524 -1.4937
  130OSM    H5G14000   7.114   4.321   7.342  0.0700 -0.7664  1.1000
  130OSM    C6F14001   6.944   4.291   7.470  0.4559  0.2257 -0.8244
  130OSM    H6F14002   6.936   4.184   7.442 -0.5019 -0.0233  0.3147
  130OSM    H6G14003   6.840   4.329   7.474 -0.3349 -1.8350 -0.6710
  130OSM    C7F14004   7.012   4.291   7.611 -0.0045  0.3717  0.0663
  130OSM    H7F14005   7.037   4.394   7.644  2.3920  0.7241 -2.4700
  130OSM    H7G14006   7.115   4.251   7.600  1.9336  4.0790  2.4431
  130OSM    C8F14007   6.926   4.208   7.708 -0.1115 -0.5328 -0.4113
  130OSM    H8F14008   6.989   4.191   7.798  1.2185  3.9175 -0.2741
  130OSM    H8G14009   6.908   4.110   7.659 -0.5302  0.2823 -1.9279
  130OSM    C9F14010   6.800   4.273   7.758  0.4272 -0.0363  0.3607
  130OSM    H9F14011   6.725   4.304   7.684 -1.2229  0.8989  2.3418
  130OSM   C10F14012   6.770   4.287   7.889  0.0200 -0.4768  0.9188
  130OSM   H10F14013   6.670   4.328   7.911 -0.2121 -0.2615 -0.4412
  130OSM   C11F14014   6.856   4.264   8.009 -0.1129 -0.5334 -0.5512
  130OSM   H11F14015   6.959   4.292   7.975 -0.1322  1.1677  0.6438
  130OSM   H11G14016   6.870   4.157   8.033  0.8221 -0.4244 -0.5789
  130OSM   C12F14017   6.806   4.347   8.124  0.7100  0.1708 -0.2917
  130OSM   H12F14018   6.718   4.305   8.177  0.8673  1.1049  0.7419
  130OSM   H12G14019   6.783   4.450   8.090  1.7951  0.1239 -1.2297
  130OSM   C13F14020   6.906   4.374   8.245  0.0632 -0.5188  0.1688
  130OSM   H13F14021   7.004   4.408   8.205 -0.3239 -0.2024 -0.5286
  130OSM   H13G14022   6.931   4.283   8.302  0.0349 -1.4438 -1.2517
  130OSM   C14F14023   6.850   4.485   8.341  0.5581  0.9204 -0.6787
  130OSM   H14F14024   6.820   4.575   8.283 -0.5738  0.0207 -1.5289
  130OSM   H14G14025   6.928   4.520   8.412  0.3369 -0.4930  0.2959
  130OSM   C15F14026   6.738   4.429   8.433  1.1167 -0.5825 -0.5458
  130OSM   H15F14027   6.765   4.327   8.466 -0.6348 -1.1151 -0.6369
  130OSM   H15G14028   6.642   4.424   8.376 -1.3607 -2.0714  3.3462
  130OSM   C16F14029   6.692   4.516   8.552  0.2665 -0.6190 -0.0853
  130OSM   H16F14030   6.596   4.482   8.596  0.3848 -1.1624 -0.2411
  130OSM   H16G14031   6.672   4.623   8.531 -0.3206 -0.3031  1.9479
  130OSM   C17F14032   6.807   4.520   8.659  0.7385  0.5038  0.4674
  130OSM   H17F14033   6.891   4.576   8.612 -1.1255  2.0267 -1.2435
  130OSM   H17G14034   6.846   4.420   8.688 -0.3270  0.0758  0.4777
  130OSM   C18F14035   6.755   4.585   8.792  0.5059 -0.1984  0.5440
  130OSM   H18F14036   6.729   4.692   8.776 -0.4246 -0.5397 -0.3248
  130OSM   H18G14037   6.829   4.583   8.875  1.4941  2.3721 -0.1716
  130OSM   H18H14038   6.654   4.548   8.821  0.8448 -1.2868  0.3706
  131OSM      N14039   5.998   4.731   5.918 -0.3177 -0.2773  0.0148
  131OSM    C1514040   6.144   4.683   5.904  0.3152 -0.2129  0.9819
  131OSM   H15A14041   6.151   4.579   5.932  1.0909 -0.9190 -1.5829
  131OSM   H15B14042   6.221   4.729   5.965  1.3319 -3.3641  2.2855
  131OSM   H15C14043   6.178   4.712   5.805  0.5197 -0.1105  1.0786
  131OSM    C1414044   6.002   4.875   5.897 -0.4420 -0.6610  0.5538
  131OSM   H14A14045   6.058   4.907   5.810  0.5507 -1.1140  1.0150
  131OSM   H14B14046   6.038   4.926   5.985  0.3350 -0.2826  0.0294
  131OSM   H14C14047   5.905   4.920   5.878 -0.2200  0.4768  1.9792
  131OSM    C1314048   5.914   4.657   5.816  0.0260  0.0464  0.4138
  131OSM   H13A14049   5.822   4.713   5.800 -0.0978 -0.7599 -2.2398
  131OSM   H13B14050   5.890   4.559   5.854  0.9754  0.7632  3.0926
  131OSM   H13C14051   5.968   4.643   5.724 -0.9578  0.0825 -0.1888
  131OSM    C1214052   5.941   4.702   6.060  0.1284  0.2829  0.7260
  131OSM   H12A14053   5.912   4.599   6.074  0.9719  0.0048  0.4878
  131OSM   H12B14054   5.841   4.741   6.049  0.6503  1.2317 -1.1537
  131OSM    C1114055   6.009   4.755   6.182  0.8443 -0.4282 -0.1235
  131OSM   H11A14056   6.108   4.711   6.206  1.1137  1.1233  1.7614
  131OSM   H11B14057   5.957   4.711   6.270  0.5102 -0.0258 -0.1186
  131OSM      P14058   5.873   4.975   6.247  0.0795  0.1736  0.2755
  131OSM    O1314059   5.895   5.123   6.232  0.4509  0.0001 -0.0964
  131OSM    O1414060   5.747   4.911   6.194  0.1274 -0.0205 -0.4110
  131OSM    O1114061   5.890   4.932   6.392 -0.6946  0.5934 -0.4111
  131OSM    O1214062   6.000   4.900   6.190  0.2586 -0.1619  0.2567
  131OSM    C1S14063   6.013   4.941   6.462 -0.6705 -0.3725  0.7422
  131OSM    H1S14064   6.054   5.045   6.458 -4.2771  1.1402 -0.4072
  131OSM    H1T14065   6.099   4.878   6.430  1.2591  2.6488 -0.5351
  131OSM     NF14066   6.104   4.941   6.681 -0.2892  0.1729  0.5198
  131OSM    HNF14067   6.177   4.873   6.691  0.9657  1.4491  0.3697
  131OSM    C2S14068   5.987   4.897   6.610  0.0965  0.3950 -0.0862
  131OSM    H2S14069   5.904   4.945   6.666  1.2843  0.4512  1.7370
  131OSM    C3S14070   5.963   4.746   6.607 -0.4372 -0.7402  0.3921
  131OSM    H3S14071   6.038   4.679   6.559 -1.2871 -1.5632  0.1877
  131OSM     O314072   5.851   4.699   6.538 -0.0449  0.0074  0.4677
  131OSM    HO314073   5.827   4.771   6.481  0.8226 -0.6805 -0.8125
  131OSM    C4S14074   5.953   4.706   6.749 -0.3653  0.1342 -0.0123
  131OSM    H4S14075   6.055   4.715   6.790  0.1534  0.3640 -1.3062
  131OSM    C5S14076   5.841   4.670   6.824 -0.4942 -0.0640 -0.0516
  131OSM    H5S14077   5.738   4.673   6.786  0.1785  1.0574 -1.9176
  131OSM    C6S14078   5.842   4.650   6.975  0.0581  0.1901  0.2672
  131OSM    H6S14079   5.837   4.539   6.987 -1.9412  0.2236  0.0824
  131OSM    H6T14080   5.752   4.690   7.025  0.3608 -2.3434  3.1388
  131OSM    C7S14081   5.945   4.717   7.068 -0.4023  0.4840  0.1189
  131OSM    H7S14082   5.946   4.828   7.063 -0.3720  0.4279 -1.6226
  131OSM    H7T14083   6.048   4.682   7.046 -0.9250 -1.8343  1.0862
  131OSM    C8S14084   5.909   4.685   7.210 -0.8134  0.8920 -0.3018
  131OSM    H8S14085   5.915   4.575   7.218 -0.4851  0.8293 -1.3608
  131OSM    H8T14086   5.804   4.717   7.229 -1.6071 -2.5405  1.9786
  131OSM    C9S14087   6.011   4.729   7.313 -0.1662 -0.5022 -0.8644
  131OSM    H9S14088   6.018   4.839   7.299  1.4250 -0.2312  1.4670
  131OSM    H9T14089   6.107   4.688   7.275  0.7018  0.4180  0.2327
  131OSM   C10S14090   5.983   4.702   7.464  0.2404  0.3434  0.2967
  131OSM   H10S14091   5.988   4.593   7.486  0.7819  0.2427 -0.3114
  131OSM   H10T14092   5.876   4.727   7.479  0.1939  2.0483 -2.2023
  131OSM   C11S14093   6.058   4.794   7.568 -0.2681 -0.8718  0.1257
  131OSM   H11S14094   6.041   4.902   7.549 -0.0609 -0.8285  0.1797
  131OSM   H11T14095   6.167   4.773   7.572 -0.6668 -3.1267  0.8451
  131OSM   C12S14096   6.034   4.758   7.718  0.4674  0.3069  0.3317
  131OSM   H12S14097   6.057   4.651   7.738 -2.1733 -0.5374 -0.6574
  131OSM   H12T14098   5.926   4.761   7.744  0.8761 -0.6665  2.3471
  131OSM   C13S14099   6.110   4.852   7.808 -0.0189  0.4433  0.0565
  131OSM   H13S14100   6.070   4.953   7.787 -3.3516 -0.5273  1.1057
  131OSM   H13T14101   6.219   4.847   7.786 -0.1184  0.1660 -0.3807
  131OSM   C14S14102   6.087   4.818   7.954  0.7850 -0.2286  0.3592
  131OSM   H14S14103   6.104   4.708   7.962  0.2501 -0.2600  1.1725
  131OSM   H14T14104   5.987   4.843   7.995  1.2532  1.2513  0.6326
  131OSM   C15S14105   6.191   4.891   8.039 -1.1840  0.4403  0.3260
  131OSM   H15S14106   6.175   5.000   8.030  0.7367  0.6764 -1.0463
  131OSM   H15T14107   6.296   4.873   8.007 -1.2434  0.4661  0.1183
  131OSM   C16S14108   6.194   4.861   8.192  0.3340 -0.1713  0.6114
  131OSM   H16S14109   6.297   4.889   8.223  1.1025 -3.0693  0.9322
  131OSM   H16T14110   6.186   4.752   8.208  1.1299 -0.3557 -0.1708
  131OSM   C17S14111   6.084   4.943   8.263  0.0096 -0.0271 -0.0701
  131OSM   H17S14112   5.986   4.901   8.231  0.5932 -1.4233 -0.0898
  131OSM   H17T14113   6.093   5.045   8.219  0.2021  0.8339  1.8397
  131OSM   C18S14114   6.112   4.936   8.416  0.0117  0.0861  0.3584
  131OSM   H18S14115   6.099   4.830   8.448 -4.5892 -0.1556 -1.5844
  131OSM   H18T14116   6.044   5.002   8.473  1.4079 -0.5210  2.9194
  131OSM   H18U14117   6.219   4.962   8.434  0.5896 -2.2471  0.6920
  131OSM    C1F14118   6.127   5.070   6.708  0.5184  1.0032  0.0555
  131OSM     OF14119   6.033   5.150   6.687  0.4763 -0.1442  0.1037
  131OSM    C2F14120   6.268   5.110   6.726 -0.5364 -0.6455  0.7631
  131OSM    H2F14121   6.299   5.156   6.630  0.1569 -0.1341  1.2225
  131OSM    H2G14122   6.332   5.025   6.758  1.9671  0.9335  0.2519
  131OSM    C3F14123   6.273   5.223   6.839 -0.6160 -0.0058  0.6537
  131OSM    H3F14124   6.202   5.304   6.811 -0.8852 -0.1445  0.9239
  131OSM    H3G14125   6.374   5.271   6.838 -0.0729 -1.1277  0.3839
  131OSM    C4F14126   6.242   5.166   6.979 -1.0512 -0.5519 -0.5781
  131OSM    H4F14127   6.149   5.107   6.968 -2.3033  0.5841  2.7931
  131OSM    H4G14128   6.215   5.247   7.050 -4.1114 -1.7971 -0.1892
  131OSM    C5F14129   6.337   5.062   7.031 -0.3757  0.0827 -0.0793
  131OSM    H5F14130   6.366   4.990   6.951  1.7640  0.6199  0.1547
  131OSM    H5G14131   6.288   5.003   7.111  0.0998 -0.8978 -0.5003
  131OSM    C6F14132   6.471   5.109   7.083  0.3734  0.2024 -0.2927
  131OSM    H6F14133   6.521   5.157   6.996  0.5877  0.6780  0.0899
  131OSM    H6G14134   6.535   5.027   7.121 -1.8510 -1.2743  0.4725
  131OSM    C7F14135   6.459   5.198   7.206 -0.6056 -0.1397 -0.4191
  131OSM    H7F14136   6.386   5.282   7.204 -0.8699 -0.1526  2.9194
  131OSM    H7G14137   6.559   5.244   7.220 -0.6491 -0.3353  0.5873
  131OSM    C8F14138   6.402   5.138   7.339  0.5372 -0.6197 -0.2687
  131OSM    H8F14139   6.323   5.066   7.312  0.6602 -0.0002 -2.4684
  131OSM    H8G14140   6.341   5.208   7.401  0.9535 -0.4738 -0.0175
  131OSM    C9F14141   6.501   5.063   7.419 -0.6056  0.5398  0.3039
  131OSM    H9F14142   6.574   5.015   7.353 -3.3424 -0.7952 -1.9912
  131OSM   C10F14143   6.517   5.073   7.550  0.7154 -0.0393 -0.7695
  131OSM   H10F14144   6.609   5.037   7.600  0.3266 -0.4103 -0.3020
  131OSM   C11F14145   6.435   5.155   7.646  0.2668  0.0981 -0.0414
  131OSM   H11F14146   6.328   5.135   7.625  0.3568  0.8973 -1.3984
  131OSM   H11G14147   6.456   5.258   7.610 -0.2381  0.7545  1.4817
  131OSM   C12F14148   6.473   5.141   7.794  0.7155 -0.2711 -0.0865
  131OSM   H12F14149   6.584   5.142   7.798  0.8747 -1.1557 -2.7371
  131OSM   H12G14150   6.420   5.059   7.848 -0.5130  0.3447 -0.3210
  131OSM   C13F14151   6.433   5.266   7.873  0.2570  0.1581 -0.7594
  131OSM   H13F14152   6.328   5.289   7.844 -0.0622 -0.4652 -0.1278
  131OSM   H13G14153   6.496   5.352   7.844  2.6377 -1.8331 -1.8989
  131OSM   C14F14154   6.450   5.247   8.023  0.2203 -0.3999  0.6197
  131OSM   H14F14155   6.558   5.224   8.039 -0.6072 -5.2854  0.8505
  131OSM   H14G14156   6.391   5.160   8.060 -1.2210  0.8666  1.3979
  131OSM   C15F14157   6.408   5.376   8.093  0.7147 -0.1403 -0.9972
  131OSM   H15F14158   6.312   5.409   8.047  0.5789 -1.1745 -1.4897
  131OSM   H15G14159   6.486   5.453   8.077  0.3815  0.5723  0.6364
  131OSM   C16F14160   6.394   5.353   8.251 -0.0350  0.5428 -0.4352
  131OSM   H16F14161   6.394   5.455   8.295  3.7095  0.6221 -0.3324
  131OSM   H16G14162   6.490   5.305   8.281  0.4882  1.6308 -0.3261
  131OSM   C17F14163   6.272   5.274   8.298 -0.5149  0.2949  0.6232
  131OSM   H17F14164   6.286   5.167   8.272 -0.1982  1.2661 -4.3600
  131OSM   H17G14165   6.179   5.316   8.254  0.7365  2.0456 -0.5160
  131OSM   C18F14166   6.263   5.290   8.452 -0.5904  0.4781  1.1871
  131OSM   H18F14167   6.219   5.389   8.473 -1.8508 -0.3612  2.6777
  131OSM   H18G14168   6.359   5.264   8.501 -0.1269  0.1514  0.1490
  131OSM   H18H14169   6.185   5.217   8.481 -0.3160  0.0051  0.7621
  132OSM      N14170   0.573   5.862   6.101  0.0401 -0.6465 -0.9545
  132OSM    C1514171   0.713   5.871   6.054  0.5354  0.2878  0.7550
  132OSM   H15A14172   0.729   5.842   5.951 -1.3588 -1.2493  0.8432
  132OSM   H15B14173   0.785   5.820   6.116 -1.2686 -1.5339  1.4690
  132OSM   H15C14174   0.743   5.974   6.051 -0.4911  0.6375  1.7841
  132OSM    C1414175   0.479   5.903   5.988 -0.1306  0.7592 -0.6159
  132OSM   H14A14176   0.503   5.836   5.908  0.9979  0.3859  0.0065
  132OSM   H14B14177   0.503   6.005   5.960 -0.2128  0.6792 -0.9770
  132OSM   H14C14178   0.374   5.882   5.999 -0.0667  0.5223 -0.4480
  132OSM    C1314179   0.539   5.721   6.131  0.4451  0.3331  0.0823
  132OSM   H13A14180   0.589   5.684   6.220 -0.8048 -1.2362  0.1725
  132OSM   H13B14181   0.558   5.654   6.048  1.9229  1.5564 -0.6227
  132OSM   H13C14182   0.435   5.719   6.159  0.2196 -0.7865 -0.7592
  132OSM    C1214183   0.560   5.960   6.222 -0.5285  0.2840 -0.2174
  132OSM   H12A14184   0.649   5.955   6.282 -1.2090 -1.0666  0.7347
  132OSM   H12B14185   0.469   5.930   6.273 -0.8265  0.6627 -0.5134
  132OSM    C1114186   0.553   6.114   6.198  0.4010  0.5847  0.5984
  132OSM   H11A14187   0.535   6.162   6.297  0.3215 -1.6129  1.7224
  132OSM   H11B14188   0.472   6.128   6.123 -0.1696 -0.7845  0.9250
  132OSM      P14189   0.807   6.176   6.211  0.0651 -0.0191  0.1077
  132OSM    O1314190   0.850   6.039   6.236  0.2892 -0.0435  0.4147
  132OSM    O1414191   0.893   6.260   6.118 -0.1468 -0.4388 -0.5265
  132OSM    O1114192   0.795   6.254   6.344  0.6170  0.3185  0.1590
  132OSM    O1214193   0.667   6.173   6.148  0.4358  0.0729  0.2874
  132OSM    C1S14194   0.759   6.391   6.340  0.1384 -1.3032 -0.3635
  132OSM    H1S14195   0.697   6.415   6.251  1.1639 -0.0751 -0.7777
  132OSM    H1T14196   0.846   6.459   6.327 -0.4625 -0.0467  1.6153
  132OSM     NF14197   0.621   6.554   6.459 -0.2731 -0.2511 -0.0624
  132OSM    HNF14198   0.670   6.626   6.507 -0.5866  1.5556 -2.2574
  132OSM    C2S14199   0.677   6.423   6.468 -0.7460 -0.3256 -0.0746
  132OSM    H2S14200   0.596   6.347   6.480 -1.1768  0.0610 -0.4957
  132OSM    C3S14201   0.760   6.394   6.601  0.5995  0.1591 -0.3903
  132OSM    H3S14202   0.838   6.472   6.613  1.2219 -0.8141  2.5941
  132OSM     O314203   0.833   6.271   6.598 -0.6807 -0.3452  0.9176
  132OSM    HO314204   0.830   6.251   6.504  0.5852  1.3685  0.4649
  132OSM    C4S14205   0.667   6.397   6.716 -0.9330 -0.3920  0.2489
  132OSM    H4S14206   0.602   6.309   6.732  0.5786 -1.2841  1.9465
  132OSM    C5S14207   0.655   6.503   6.799 -0.1198 -0.4946  0.6523
  132OSM    H5S14208   0.721   6.590   6.798  2.1451 -2.1138 -0.6678
  132OSM    C6S14209   0.558   6.500   6.908  0.8453  0.2072  0.3002
  132OSM    H6S14210   0.472   6.567   6.887  1.5820  1.1018  0.0253
  132OSM    H6T14211   0.608   6.562   6.986 -0.5255  0.2976  1.1360
  132OSM    C7S14212   0.513   6.361   6.961 -0.1746 -0.3966  0.6447
  132OSM    H7S14213   0.608   6.316   6.999  1.6997  1.4159 -1.6105
  132OSM    H7T14214   0.465   6.308   6.876 -1.5649  2.4916 -0.4787
  132OSM    C8S14215   0.415   6.372   7.075  1.1019  0.1823 -0.1132
  132OSM    H8S14216   0.319   6.415   7.041  0.6964 -1.4025 -1.0809
  132OSM    H8T14217   0.451   6.453   7.141  0.2066  1.4413 -1.1349
  132OSM    C9S14218   0.396   6.242   7.155  0.7426  0.6093  0.3692
  132OSM    H9S14219   0.438   6.155   7.101 -2.9861  0.5274 -2.8665
  132OSM    H9T14220   0.289   6.212   7.151  0.9565 -0.1301 -0.0470
  132OSM   C10S14221   0.458   6.242   7.295 -0.0534  0.6147 -0.1342
  132OSM   H10S14222   0.460   6.341   7.344  0.0290  2.0835 -2.8922
  132OSM   H10T14223   0.564   6.211   7.281 -0.8773 -1.9556 -1.4644
  132OSM   C11S14224   0.392   6.141   7.391  0.3569  0.2682  0.0437
  132OSM   H11S14225   0.414   6.043   7.343 -1.1590  0.8073 -1.9419
  132OSM   H11T14226   0.282   6.157   7.386  0.4278  0.6170 -0.4774
  132OSM   C12S14227   0.451   6.143   7.537 -0.0907  0.4567 -0.0360
  132OSM   H12S14228   0.367   6.158   7.609  0.3373  0.3908  0.4890
  132OSM   H12T14229   0.533   6.217   7.548 -0.5759  1.0230 -0.2235
  132OSM   C13S14230   0.527   6.008   7.571  0.1198 -0.0295  0.0055
  132OSM   H13S14231   0.594   5.990   7.484 -0.9335 -1.7879 -0.4769
  132OSM   H13T14232   0.450   5.928   7.567 -0.3282  0.4386 -0.9532
  132OSM   C14S14233   0.597   6.013   7.710 -0.7360  0.7213 -0.5912
  132OSM   H14S14234   0.673   6.093   7.698 -1.7550  1.8327  0.1330
  132OSM   H14T14235   0.651   5.918   7.732 -0.4818  1.2238  1.1291
  132OSM   C15S14236   0.510   6.052   7.820  0.1093  0.1115 -0.2507
  132OSM   H15S14237   0.424   5.983   7.823 -1.5118  1.9086 -2.4378
  132OSM   H15T14238   0.452   6.146   7.808  0.6015  0.1172 -3.4926
  132OSM   C16S14239   0.577   6.055   7.958 -0.5538  1.1080 -0.2831
  132OSM   H16S14240   0.647   6.141   7.956  2.2525 -1.0448 -0.4279
  132OSM   H16T14241   0.631   5.958   7.970 -0.8309  1.0653  0.6846
  132OSM   C17S14242   0.487   6.069   8.082  0.0239  0.0388 -0.2151
  132OSM   H17S14243   0.402   5.997   8.082 -0.9986  1.2181 -0.4851
  132OSM   H17T14244   0.433   6.165   8.067  0.0716  0.2969  1.1687
  132OSM   C18S14245   0.567   6.076   8.214  0.1578 -0.8427  0.0753
  132OSM   H18S14246   0.644   5.996   8.217 -0.7327 -1.7110  0.6108
  132OSM   H18T14247   0.506   6.066   8.306  0.1694 -0.1040  0.1638
  132OSM   H18U14248   0.612   6.177   8.215 -2.8041  0.5708 -0.0971
  132OSM    C1F14249   0.525   6.580   6.371  0.5412 -0.0368  0.0600
  132OSM     OF14250   0.483   6.486   6.309 -0.9032  0.2814  0.1161
  132OSM    C2F14251   0.473   6.719   6.361 -0.4087 -0.0093 -0.4471
  132OSM    H2F14252   0.452   6.764   6.262  1.1671  3.4661  0.6231
  132OSM    H2G14253   0.542   6.796   6.402 -1.3601  0.7627 -0.2515
  132OSM    C3F14254   0.348   6.739   6.447  0.4629  0.2226  0.0871
  132OSM    H3F14255   0.268   6.672   6.408  1.2593 -1.2844  0.9599
  132OSM    H3G14256   0.309   6.842   6.431 -0.1964  0.1118  0.9739
  132OSM    C4F14257   0.363   6.711   6.596  1.5454 -0.0713 -0.2872
  132OSM    H4F14258   0.439   6.780   6.641  0.7129  0.0825  0.9356
  132OSM    H4G14259   0.398   6.606   6.603 -0.3187 -0.7868 -1.0869
  132OSM    C5F14260   0.236   6.743   6.685  0.4754  0.1383 -0.1221
  132OSM    H5F14261   0.151   6.678   6.653  0.1872  1.0557 -1.2796
  132OSM    H5G14262   0.204   6.848   6.670  0.2254 -0.0397 -0.9161
  132OSM    C6F14263   0.248   6.715   6.834  0.2740  0.2091  0.7735
  132OSM    H6F14264   0.331   6.772   6.879  1.1478 -1.0247  0.7741
  132OSM    H6G14265   0.266   6.606   6.849  0.4880  0.3152  1.2971
  132OSM    C7F14266   0.119   6.740   6.910  0.0229  0.4527 -0.0987
  132OSM    H7F14267   0.036   6.682   6.864 -0.8898  1.4308  0.2550
  132OSM    H7G14268   0.089   6.845   6.888  2.5103  1.5272  1.2633
  132OSM    C8F14269   0.116   6.691   7.060  0.7627  0.1750 -0.7177
  132OSM    H8F14270   0.209   6.736   7.101 -0.2036  2.7752 -1.2126
  132OSM    H8G14271   0.128   6.581   7.066 -0.1508  0.1424  1.0274
  132OSM    C9F14272  -0.005   6.736   7.140 -0.2606  0.5694  0.3881
  132OSM    H9F14273  -0.034   6.840   7.116  2.1239  1.3939  0.7978
  132OSM   C10F14274  -0.077   6.658   7.219  0.1323  1.0241 -0.0287
  132OSM   H10F14275  -0.169   6.697   7.264  0.4570  0.3660  1.2532
  132OSM   C11F14276  -0.045   6.511   7.233 -0.2509  0.0632 -0.1437
  132OSM   H11F14277   0.064   6.493   7.247 -0.3087 -1.0822 -1.1008
  132OSM   H11G14278  -0.088   6.454   7.148  1.8263 -0.9600 -0.5809
  132OSM   C12F14279  -0.132   6.452   7.345 -0.0847 -0.6933 -0.5770
  132OSM   H12F14280  -0.161   6.348   7.320 -1.2091  0.0906 -2.7472
  132OSM   H12G14281  -0.236   6.491   7.348 -0.2010 -1.0554  1.0720
  132OSM   C13F14282  -0.070   6.463   7.483  0.7942 -0.4208 -0.3937
  132OSM   H13F14283  -0.147   6.412   7.545 -0.7833  0.0329 -1.9222
  132OSM   H13G14284  -0.055   6.569   7.512  0.7093  0.4614 -3.2147
  132OSM   C14F14285   0.062   6.384   7.486 -0.8145 -0.8082 -0.2176
  132OSM   H14F14286   0.150   6.444   7.454 -1.4779  1.2479  1.5703
  132OSM   H14G14287   0.044   6.296   7.420 -0.2656 -2.1700  1.3783
  132OSM   C15F14288   0.087   6.329   7.627  0.3241  0.0310  0.4215
  132OSM   H15F14289   0.112   6.221   7.620  1.6796  0.3810 -0.4140
  132OSM   H15G14290  -0.008   6.337   7.684 -0.6883 -0.7891 -1.0756
  132OSM   C16F14291   0.179   6.425   7.708  0.0468  0.1026  0.1965
  132OSM   H16F14292   0.119   6.518   7.716  0.6159  0.5617 -0.6170
  132OSM   H16G14293   0.279   6.445   7.663  0.2953 -0.2746  0.5754
  132OSM   C17F14294   0.201   6.374   7.853 -0.0852 -0.0613  0.5424
  132OSM   H17F14295   0.249   6.274   7.840 -0.7882 -0.0942 -2.8213
  132OSM   H17G14296   0.104   6.367   7.907  0.0390 -0.7766  0.6850
  132OSM   C18F14297   0.287   6.477   7.922 -0.1315  0.1923 -0.3316
  132OSM   H18F14298   0.326   6.448   8.022  0.6603  0.3562 -0.5865
  132OSM   H18G14299   0.233   6.573   7.937  0.2168  0.8343 -2.7145
  132OSM   H18H14300   0.375   6.517   7.868 -0.4656  1.5649  0.1200
  133SAPE     N14301   4.184   6.498  10.893 -0.1006 -0.0040 -0.1029
  133SAPE   HN114302   4.137   6.538  10.809 -0.9773 -1.1009 -0.1508
  133SAPE   HN214303   4.171   6.395  10.885 -1.8644  0.2636 -1.5013
  133SAPE   HN314304   4.125   6.520  10.976  0.8468 -1.9534  1.1449
  133SAPE   C1214305   4.330   6.534  10.901  1.0240  0.5598 -0.0903
  133SAPE  H12A14306   4.340   6.635  10.946 -0.9296  1.3278 -1.2447
  133SAPE  H12B14307   4.370   6.535  10.797  2.6784 -1.1475  0.4783
  133SAPE   C1114308   4.413   6.425  10.971 -0.4086 -0.4694  0.2784
  133SAPE  H11A14309   4.365   6.415  11.070  0.7484  3.1282  1.3211
  133SAPE  H11B14310   4.508   6.481  10.984 -1.4163  2.0776 -2.1708
  133SAPE     P14311   4.536   6.249  10.818  0.0647 -0.2252 -0.4893
  133SAPE   O1314312   4.658   6.312  10.871 -0.6446 -0.0679 -0.2096
  133SAPE   O1414313   4.540   6.103  10.805  0.3896  0.3618 -0.2529
  133SAPE   O1214314   4.415   6.301  10.902 -0.3169  0.0805 -0.1252
  133SAPE   O1114315   4.516   6.316  10.677  0.1014 -0.4624 -0.2620
  133SAPE    C114316   4.396   6.303  10.604 -0.5592  0.4398  0.1775
  133SAPE    HA14317   4.379   6.196  10.579 -2.2670  0.8334 -0.4516
  133SAPE    HB14318   4.308   6.331  10.665  1.3199  2.0543  2.3353
  133SAPE    C214319   4.399   6.393  10.482 -0.3413 -0.3414 -0.1003
  133SAPE    HS14320   4.296   6.396  10.440 -0.6631 -3.6148  0.1670
  133SAPE   O2114321   4.484   6.341  10.375  0.0120 -0.2332 -0.1542
  133SAPE   C2114322   4.433   6.235  10.324 -0.2203 -0.0194 -0.4117
  133SAPE   O2214323   4.325   6.183  10.346 -0.1385 -0.4313  0.1050
  133SAPE   C2214324   4.516   6.204  10.198 -0.7003 -0.3530  0.3688
  133SAPE   H2R14325   4.575   6.295  10.173  0.2913 -1.5746 -2.1922
  133SAPE   H2S14326   4.589   6.130  10.237 -0.6666 -0.7752 -0.4751
  133SAPE    C314327   4.443   6.538  10.510  0.6517  0.1045 -0.6673
  133SAPE    HX14328   4.542   6.517  10.556  1.8524  1.5632 -2.4298
  133SAPE    HY14329   4.372   6.588  10.579 -0.4655 -0.4459 -1.3784
  133SAPE   O3114330   4.444   6.618  10.390 -0.4771 -0.2373  0.4330
  133SAPE   C3114331   4.557   6.607  10.325 -0.1143 -0.1314  0.3671
  133SAPE   O3214332   4.659   6.567  10.370  0.0884  0.5030  0.2502
  133SAPE   C3214333   4.544   6.666  10.177  0.3692 -0.5952 -0.2963
  133SAPE   H2X14334   4.629   6.630  10.116  0.7209 -1.7503  0.8299
  133SAPE   H2Y14335   4.551   6.776  10.195 -1.5912 -0.4916  0.0791
  133SAPE   C2314336   4.455   6.141  10.070 -0.5118  0.4720 -0.0317
  133SAPE   H3R14337   4.385   6.055  10.082  0.1588  0.1795  2.4846
  133SAPE   H3S14338   4.529   6.091  10.003  0.4661  1.4988  0.2539
  133SAPE   C2414339   4.379   6.247   9.984  0.2886 -0.5269 -0.2873
  133SAPE   H4R14340   4.464   6.309   9.952  1.1458 -0.8462  1.2604
  133SAPE   H4S14341   4.318   6.315  10.047 -0.3074  0.5520 -1.9742
  133SAPE   C2514342   4.302   6.185   9.868  0.7737 -0.5119  0.1971
  133SAPE   H5R14343   4.220   6.114   9.884  0.0682  0.4111  0.7240
  133SAPE   C2614344   4.338   6.208   9.741 -0.9907 -0.3578  1.0267
  133SAPE   H6R14345   4.284   6.174   9.651  5.1229  0.1169 -3.4290
  133SAPE   C2714346   4.453   6.300   9.693 -0.0888 -0.4190 -0.0560
  133SAPE   H7R14347   4.550   6.254   9.723  1.5398  2.8254  0.0801
  133SAPE   H7S14348   4.444   6.396   9.747 -0.2513 -0.5803  0.2061
  133SAPE   C2814349   4.467   6.336   9.548  0.0171  0.2920  0.0223
  133SAPE   H8R14350   4.570   6.349   9.510  0.2558  1.2298  0.9288
  133SAPE   C2914351   4.376   6.348   9.443 -0.1814  0.1602  0.0093
  133SAPE   H9R14352   4.424   6.363   9.345  3.3408 -2.4168  1.1282
  133SAPE  C21014353   4.226   6.333   9.436  0.4879 -0.7512 -0.0142
  133SAPE  H10R14354   4.189   6.410   9.365  1.4935 -1.6260 -1.5528
  133SAPE  H10S14355   4.183   6.359   9.535  0.9630  1.8817 -0.4362
  133SAPE  C21114356   4.195   6.190   9.391 -0.3706 -0.1622 -0.3402
  133SAPE  H11R14357   4.196   6.106   9.462 -1.3009 -0.8481 -1.1110
  133SAPE  C21214358   4.173   6.146   9.262 -0.3183 -0.9469  0.3534
  133SAPE  H12R14359   4.161   6.037   9.254  0.8159 -1.2587  2.1683
  133SAPE  C21314360   4.178   6.232   9.142  0.3635 -0.0885 -0.2179
  133SAPE  H13R14361   4.189   6.339   9.172 -1.6553 -0.0140  0.4269
  133SAPE  H13S14362   4.077   6.219   9.097  1.0649 -0.1430 -1.8309
  133SAPE  C21414363   4.278   6.187   9.046 -0.4985  0.7109 -0.2310
  133SAPE  H14R14364   4.365   6.139   9.094 -1.0947 -0.9246 -0.7355
  133SAPE  C21514365   4.264   6.180   8.908  0.1800 -0.1671  0.1770
  133SAPE  H15R14366   4.354   6.152   8.852  0.5792  1.1979  0.0925
  133SAPE  C21614367   4.136   6.221   8.834  0.2105  0.0080  0.0174
  133SAPE  H16R14368   4.161   6.270   8.737  0.0507 -0.0065 -0.0299
  133SAPE  H16S14369   4.075   6.295   8.889 -0.4208 -0.0551 -0.5919
  133SAPE  C21714370   4.070   6.086   8.815  0.9029  0.1875  0.0312
  133SAPE  H17R14371   4.054   6.030   8.910  3.1016 -0.5006  0.0399
  133SAPE  H17S14372   4.142   6.024   8.758  0.3424 -0.6701  0.2372
  133SAPE  C21814373   3.933   6.096   8.739  0.1806  0.2368 -0.3435
  133SAPE  H18R14374   3.927   6.189   8.678 -0.6770  1.0660  0.9527
  133SAPE  H18S14375   3.852   6.120   8.812  0.2282 -1.1954  0.2015
  133SAPE  C21914376   3.885   5.978   8.646  0.4223  0.0680 -0.4453
  133SAPE  H19R14377   3.976   5.949   8.590  1.2916  1.1422  0.3660
  133SAPE  H19S14378   3.805   6.019   8.580  1.3844  2.1666 -0.3780
  133SAPE  C22014379   3.830   5.870   8.729  0.3643  0.2042  0.0698
  133SAPE  H20R14380   3.765   5.903   8.812 -2.3009 -1.4557 -1.2032
  133SAPE  H20S14381   3.908   5.800   8.767 -0.5198 -1.0286 -0.3305
  133SAPE  H20T14382   3.751   5.804   8.686 -0.4808 -0.2502  2.1930
  133SAPE   C3314383   4.414   6.631  10.115  0.6795  0.0321  0.8317
  133SAPE   H3X14384   4.328   6.663  10.178  1.7476  0.2663  2.2173
  133SAPE   H3Y14385   4.406   6.520  10.112 -0.5718  0.1196  0.2131
  133SAPE   C3414386   4.393   6.698   9.978 -0.4138 -0.1777  0.0927
  133SAPE   H4X14387   4.490   6.676   9.929 -1.0187  1.3413 -1.9370
  133SAPE   H4Y14388   4.375   6.806   9.995  0.4627 -0.2018  1.3141
  133SAPE   C3514389   4.283   6.648   9.877  0.0929 -0.3193 -0.5811
  133SAPE   H5X14390   4.188   6.673   9.929 -0.2746 -0.1032 -1.3462
  133SAPE   H5Y14391   4.293   6.538   9.867  1.8523 -0.2789  0.2739
  133SAPE   C3614392   4.310   6.716   9.747  0.0943  0.1253 -0.5797
  133SAPE   H6X14393   4.410   6.685   9.712  0.2740  1.4103 -1.3020
  133SAPE   H6Y14394   4.302   6.827   9.756 -1.4072  0.0229 -0.4136
  133SAPE   C3714395   4.220   6.672   9.629  0.2583  0.2311 -0.3460
  133SAPE   H7X14396   4.121   6.720   9.641 -1.3944 -2.5393 -1.7266
  133SAPE   H7Y14397   4.201   6.562   9.632 -2.0848  0.5479 -1.4887
  133SAPE   C3814398   4.259   6.720   9.490  0.2247  0.2048 -1.0752
  133SAPE   H8X14399   4.352   6.661   9.471  0.3096  0.7087 -2.3001
  133SAPE   H8Y14400   4.294   6.825   9.494  0.0178  0.2290  0.7993
  133SAPE   C3914401   4.140   6.698   9.394  0.0798 -0.7113 -0.1706
  133SAPE   H9X14402   4.067   6.780   9.414  1.8605  0.6762  0.9939
  133SAPE   H9Y14403   4.091   6.600   9.413 -0.3603 -0.9751 -2.4692
  133SAPE  C31014404   4.194   6.700   9.243  0.2879  0.2669  0.2847
  133SAPE  H10X14405   4.267   6.619   9.221  0.0069  0.2060 -0.4464
  133SAPE  H10Y14406   4.239   6.797   9.216  0.7816 -0.4504 -1.6285
  133SAPE  C31114407   4.057   6.692   9.166 -0.9099 -0.7692 -0.4579
  133SAPE  H11X14408   4.014   6.794   9.173  2.2131  0.8832 -2.7449
  133SAPE  H11Y14409   3.989   6.624   9.221 -0.7751  1.3938  2.5857
  133SAPE  C31214410   4.070   6.653   9.016 -0.6959 -0.0612 -0.4253
  133SAPE  H12X14411   3.978   6.693   8.968 -0.1171  1.2088 -0.4950
  133SAPE  H12Y14412   4.066   6.542   9.014  1.0971 -0.1525 -0.5528
  133SAPE  C31314413   4.177   6.731   8.935 -0.0503 -0.2823 -0.0436
  133SAPE  H13X14414   4.276   6.688   8.962  0.0137  0.6912  1.3490
  133SAPE  H13Y14415   4.167   6.835   8.972 -0.1168 -0.0802 -0.6230
  133SAPE  C31414416   4.148   6.744   8.779  0.3300  0.5336  0.3866
  133SAPE  H14X14417   4.219   6.807   8.722 -1.2772  0.7403 -1.5032
  133SAPE  H14Y14418   4.055   6.804   8.775 -0.9865 -1.4334  0.0965
  133SAPE  C31514419   4.120   6.609   8.719 -0.0183 -0.6793 -0.3007
  133SAPE  H15X14420   4.034   6.576   8.781  0.4056  1.1253  1.3610
  133SAPE  H15Y14421   4.206   6.542   8.738  0.8587  0.4134 -0.3354
  133SAPE  C31614422   4.078   6.636   8.569  0.1327  0.0080  0.0994
  133SAPE  H16X14423   4.156   6.698   8.520  1.2867 -0.9323  0.6898
  133SAPE  H16Y14424   3.982   6.691   8.563  0.2258  0.0304 -1.9385
  133SAPE  C31714425   4.047   6.515   8.487  0.0258 -0.8238 -0.4513
  133SAPE  H17X14426   4.002   6.537   8.388  2.0353 -0.3059 -1.3135
  133SAPE  H17Y14427   3.971   6.457   8.543 -1.4068 -0.6141 -2.0878
  133SAPE  C31814428   4.173   6.436   8.451 -0.9985 -0.3250 -0.0661
  133SAPE  H18X14429   4.249   6.511   8.421 -0.0852 -1.2035  0.0331
  133SAPE  H18Y14430   4.152   6.369   8.365 -0.5651 -0.5682  0.0145
  133SAPE  H18Z14431   4.201   6.384   8.545  3.0563  1.9943  0.2573
  134SAPE     N14432   0.513   1.520  10.879 -0.3077 -0.0091  0.3637
  134SAPE   HN114433   0.613   1.501  10.903 -0.1636 -0.5730 -0.6339
  134SAPE   HN214434   0.514   1.597  10.808 -2.7393 -0.4743 -0.2660
  134SAPE   HN314435   0.459   1.554  10.960 -2.9434 -1.1971 -0.7836
  134SAPE   C1214436   0.456   1.406  10.802 -0.0243 -0.4647 -0.3355
  134SAPE  H12A14437   0.358   1.443  10.766  0.8554  1.7821 -0.5542
  134SAPE  H12B14438   0.432   1.327  10.876 -1.0270  0.0036 -0.1392
  134SAPE   C1114439   0.546   1.348  10.694  0.4154 -0.3121  0.1157
  134SAPE  H11A14440   0.564   1.428  10.620  1.1485 -1.2317 -0.7372
  134SAPE  H11B14441   0.487   1.268  10.644  0.0051 -1.1146  1.7976
  134SAPE     P14442   0.702   1.137  10.713  0.8149  0.2890 -0.3223
  134SAPE   O1314443   0.838   1.102  10.763  0.2402  0.4962 -0.6131
  134SAPE   O1414444   0.591   1.042  10.753 -0.3937  0.4248  0.0684
  134SAPE   O1214445   0.659   1.285  10.754 -0.3044  0.3167 -0.2031
  134SAPE   O1114446   0.704   1.152  10.559  0.9737 -0.1256  0.1976
  134SAPE    C114447   0.772   1.256  10.489  0.9561  0.9303 -0.6094
  134SAPE    HA14448   0.703   1.343  10.488 -3.1565 -2.0668 -0.4042
  134SAPE    HB14449   0.863   1.298  10.537  0.1495  1.7349  0.2748
  134SAPE    C214450   0.795   1.210  10.343  0.0286 -0.6252  0.1225
  134SAPE    HS14451   0.862   1.284  10.294 -0.2325 -0.9234 -0.6828
  134SAPE   O2114452   0.671   1.182  10.273 -0.5164 -0.0035 -0.6819
  134SAPE   C2114453   0.601   1.288  10.245  0.1585  0.1592 -0.2895
  134SAPE   O2214454   0.619   1.405  10.285  0.2322  0.3916 -0.1653
  134SAPE   C2214455   0.492   1.250  10.154  0.0389 -0.5998  0.6145
  134SAPE   H2R14456   0.438   1.158  10.187  0.4310 -1.5412 -1.2389
  134SAPE   H2S14457   0.411   1.326  10.159 -0.6756 -1.3934  1.3749
  134SAPE    C314458   0.889   1.084  10.327 -0.2689 -0.3755 -0.5925
  134SAPE    HX14459   0.855   1.008  10.401  0.0395 -0.1314 -0.1940
  134SAPE    HY14460   0.990   1.113  10.362 -0.4997  0.1711 -0.3533
  134SAPE   O3114461   0.882   1.024  10.198  0.2279 -0.2343 -0.2499
  134SAPE   C3114462   0.932   1.086  10.099 -0.5389 -0.1499 -0.2848
  134SAPE   O3214463   0.993   1.193  10.101  0.3542  0.1397  0.4836
  134SAPE   C3214464   0.902   1.005   9.965 -0.2117  0.0786 -0.1017
  134SAPE   H2X14465   0.865   1.082   9.894 -0.2101 -0.1182 -0.3184
  134SAPE   H2Y14466   0.821   0.928   9.973 -0.2976  0.0040 -1.4519
  134SAPE   C2314467   0.539   1.242  10.007  0.1916 -0.1337 -0.0048
  134SAPE   H3R14468   0.444   1.214   9.957  0.1651  0.6814 -0.4301
  134SAPE   H3S14469   0.626   1.174   9.992  2.0338  1.6757  1.7758
  134SAPE   C2414470   0.549   1.387   9.949 -0.3205 -0.4783 -0.3673
  134SAPE   H4R14471   0.632   1.439  10.001  1.0634 -1.8418 -1.1307
  134SAPE   H4S14472   0.454   1.437   9.977  0.0814  0.5737 -0.8131
  134SAPE   C2514473   0.577   1.414   9.806  0.6029 -0.3245 -0.3379
  134SAPE   H5R14474   0.495   1.460   9.748  1.1922  2.6920  0.9915
  134SAPE   C2614475   0.693   1.387   9.738  0.0530 -0.5078 -0.3826
  134SAPE   H6R14476   0.687   1.406   9.630 -0.5911  2.8892  0.1443
  134SAPE   C2714477   0.812   1.315   9.798  0.2821  0.0123  0.2089
  134SAPE   H7R14478   0.813   1.220   9.741 -2.1931 -0.6344  1.1286
  134SAPE   H7S14479   0.796   1.294   9.906 -1.1107 -0.6860 -0.1082
  134SAPE   C2814480   0.942   1.388   9.787  0.5585 -0.8568 -0.4568
  134SAPE   H8R14481   1.004   1.401   9.877  1.8577 -0.9763 -1.3015
  134SAPE   C2914482   1.002   1.422   9.673  1.1290 -0.7464 -0.4927
  134SAPE   H9R14483   1.093   1.483   9.689  0.1479  0.9009 -0.9307
  134SAPE  C21014484   0.955   1.402   9.535  0.4607  0.3626 -0.1469
  134SAPE  H10R14485   0.933   1.503   9.493  0.1027  0.4722  0.2973
  134SAPE  H10S14486   0.855   1.354   9.529  0.7948 -0.4809  0.8176
  134SAPE  C21114487   1.045   1.323   9.448 -0.0814 -0.1282 -0.5064
  134SAPE  H11R14488   1.111   1.252   9.499 -0.5688  0.0088  0.3335
  134SAPE  C21214489   1.059   1.324   9.312  0.2246 -0.3792  0.0944
  134SAPE  H12R14490   1.132   1.261   9.259 -1.2379 -1.5725 -0.5622
  134SAPE  C21314491   0.969   1.412   9.223 -0.4621  0.4362  0.4960
  134SAPE  H13R14492   1.016   1.509   9.195 -0.0497  0.2491  0.5277
  134SAPE  H13S14493   0.871   1.446   9.263 -1.4169  0.4986 -1.7307
  134SAPE  C21414494   0.930   1.329   9.100 -0.3082 -0.0038  0.0598
  134SAPE  H14R14495   0.871   1.238   9.118 -0.1606 -0.0463  0.3371
  134SAPE  C21514496   0.963   1.357   8.968 -0.1730 -0.0484  0.1382
  134SAPE  H15R14497   0.940   1.277   8.895 -2.1996  1.3161 -0.8022
  134SAPE  C21614498   1.046   1.464   8.911  0.5402 -0.1178  0.2485
  134SAPE  H16R14499   1.085   1.432   8.812 -0.2227 -0.8503  0.1747
  134SAPE  H16S14500   1.131   1.485   8.979 -1.2148  1.3927  2.1176
  134SAPE  C21714501   0.970   1.598   8.906  0.4843 -0.1508 -0.2789
  134SAPE  H17R14502   0.911   1.618   8.998  2.8387  0.5085  1.1555
  134SAPE  H17S14503   0.896   1.589   8.824  1.5543 -3.8280 -1.0227
  134SAPE  C21814504   1.043   1.733   8.878  0.3421  0.6245 -0.0679
  134SAPE  H18R14505   1.106   1.777   8.958  0.8888 -1.0603  0.4826
  134SAPE  H18S14506   0.963   1.808   8.859  0.9756  1.4197  0.3680
  134SAPE  C21914507   1.131   1.722   8.752 -0.1208 -0.2215 -0.2038
  134SAPE  H19R14508   1.069   1.685   8.668  1.0595 -1.2424 -0.6666
  134SAPE  H19S14509   1.206   1.642   8.767  0.6434 -0.1537 -3.0502
  134SAPE  C22014510   1.204   1.851   8.705  0.7808  0.5098  0.3602
  134SAPE  H20R14511   1.272   1.902   8.777 -0.8225  1.7869  1.0194
  134SAPE  H20S14512   1.133   1.931   8.673  0.1407  0.4006  1.4755
  134SAPE  H20T14513   1.260   1.817   8.615  0.3852 -0.2045  0.3778
  134SAPE   C3314514   1.037   0.949   9.924 -0.3274 -0.0465  0.5750
  134SAPE   H3X14515   1.056   0.870  10.000  1.0419  0.0654  0.3754
  134SAPE   H3Y14516   1.122   1.020   9.928  1.3019 -1.9196  0.7063
  134SAPE   C3414517   1.034   0.895   9.779 -0.3818  0.0562  0.5628
  134SAPE   H4X14518   0.969   0.805   9.784 -1.2372  0.7077  1.8397
  134SAPE   H4Y14519   1.133   0.853   9.752  1.4928  3.4923  1.5785
  134SAPE   C3514520   1.002   1.004   9.676 -0.1449 -0.2398  0.7484
  134SAPE   H5X14521   1.078   1.085   9.681 -1.0399  0.7654 -1.0941
  134SAPE   H5Y14522   0.899   1.041   9.692  0.2253  1.2993 -0.1368
  134SAPE   C3614523   1.024   0.959   9.528  0.1364 -0.0701 -0.0183
  134SAPE   H6X14524   1.128   0.920   9.533  1.0312  2.1118 -0.5619
  134SAPE   H6Y14525   1.027   1.047   9.461  2.1404  0.4583  0.6773
  134SAPE   C3714526   0.924   0.847   9.482  0.3704 -0.3703  0.9133
  134SAPE   H7X14527   0.826   0.899   9.488 -0.3500 -1.5996  0.3024
  134SAPE   H7Y14528   0.918   0.756   9.546 -1.1762 -1.1526 -0.2573
  134SAPE   C3814529   0.945   0.788   9.339  0.0173 -0.6370  0.3045
  134SAPE   H8X14530   0.879   0.700   9.319  0.4306 -0.6054 -1.3459
  134SAPE   H8Y14531   1.045   0.741   9.336  0.4932  0.4037 -1.7464
  134SAPE   C3914532   0.935   0.893   9.230 -0.1890  0.3270  0.6971
  134SAPE   H9X14533   0.985   0.988   9.259  1.0670  0.0299 -0.3770
  134SAPE   H9Y14534   0.829   0.918   9.208  0.8406  3.2530 -1.7413
  134SAPE  C31014535   0.985   0.853   9.094 -0.4972  0.5039  0.6344
  134SAPE  H10X14536   0.927   0.766   9.056  2.0569 -0.5304 -1.1008
  134SAPE  H10Y14537   1.087   0.811   9.106 -0.5750  0.5470  1.5431
  134SAPE  C31114538   0.993   0.963   8.994 -0.2250  0.7867  0.8327
  134SAPE  H11X14539   1.074   1.035   9.019  1.1904 -1.4665  3.3408
  134SAPE  H11Y14540   0.901   1.025   8.989 -0.6612  0.0746 -0.3147
  134SAPE  C31214541   1.020   0.905   8.857  0.6480 -0.1711  0.3063
  134SAPE  H12X14542   1.010   0.990   8.786  1.7420  1.0199  1.5258
  134SAPE  H12Y14543   0.942   0.830   8.832 -3.3136  3.1560  1.3901
  134SAPE  C31314544   1.170   0.860   8.842 -0.1088  0.2141 -1.2704
  134SAPE  H13X14545   1.180   0.782   8.920 -2.9866 -0.2207 -1.2416
  134SAPE  H13Y14546   1.238   0.942   8.875 -0.2997 -0.9832  2.5582
  134SAPE  C31414547   1.206   0.807   8.707  0.3596 -0.1945 -0.4343
  134SAPE  H14X14548   1.314   0.781   8.708  1.2058  2.8359  0.7547
  134SAPE  H14Y14549   1.189   0.895   8.642  1.1856  0.2549 -0.0594
  134SAPE  C31514550   1.119   0.688   8.658 -0.2120 -0.0265 -0.2888
  134SAPE  H15X14551   1.013   0.716   8.640 -0.2149  0.8774  0.9924
  134SAPE  H15Y14552   1.125   0.611   8.738  0.7996 -1.2779 -1.4935
  134SAPE  C31614553   1.157   0.638   8.518  0.1942  0.9785 -0.3027
  134SAPE  H16X14554   1.265   0.610   8.516 -0.1523 -0.5150  0.3982
  134SAPE  H16Y14555   1.122   0.713   8.444 -2.5810 -0.3627 -0.4551
  134SAPE  C31714556   1.089   0.500   8.482  0.3232 -0.0960 -0.1198
  134SAPE  H17X14557   1.138   0.424   8.547  1.2127  0.4059 -0.1792
  134SAPE  H17Y14558   1.118   0.492   8.375 -2.0593 -2.4885 -0.6925
  134SAPE  C31814559   0.937   0.499   8.484 -0.3039  0.0141 -0.1586
  134SAPE  H18X14560   0.894   0.573   8.413 -0.4970 -0.2942 -0.3644
  134SAPE  H18Y14561   0.902   0.513   8.588 -0.7928  1.5181 -0.4960
  134SAPE  H18Z14562   0.896   0.400   8.456 -0.3416 -0.2653  0.8463
  135SAPE     N14563   1.220   6.061  10.815  0.4584  0.2312  0.7229
  135SAPE   HN114564   1.313   6.065  10.861  1.9819  1.8016 -2.1460
  135SAPE   HN214565   1.190   6.158  10.839  2.1492  0.6438  1.2759
  135SAPE   HN314566   1.165   5.986  10.862  0.7345 -0.0276  0.6345
  135SAPE   C1214567   1.234   6.045  10.664 -0.3823  0.0294 -0.0079
  135SAPE  H12A14568   1.286   5.948  10.648 -0.1671  0.4422 -2.0792
  135SAPE  H12B14569   1.306   6.120  10.627  1.0969 -0.1685  2.3018
  135SAPE   C1114570   1.104   6.061  10.594  0.3773 -0.2610  0.6057
  135SAPE  H11A14571   1.136   6.050  10.488 -0.0350  0.7346  0.3694
  135SAPE  H11B14572   1.059   6.161  10.608 -2.5805 -1.3715 -0.2419
  135SAPE     P14573   0.862   5.968  10.586  0.1547 -0.2006 -0.3283
  135SAPE   O1314574   0.803   5.837  10.559 -0.3238  0.3641 -0.3287
  135SAPE   O1414575   0.797   6.052  10.687  0.9871  0.7258 -0.1358
  135SAPE   O1214576   1.013   5.959  10.624  0.5057 -0.1538 -0.1369
  135SAPE   O1114577   0.854   6.046  10.457  0.0268 -1.1044  0.8020
  135SAPE    C114578   0.776   6.013  10.346 -0.5215 -0.3554 -0.1688
  135SAPE    HA14579   0.716   5.919  10.351 -2.3721  0.7944  0.8100
  135SAPE    HB14580   0.705   6.097  10.332 -0.4441 -0.0822  0.9836
  135SAPE    C214581   0.854   6.017  10.217 -0.0089  0.2683  0.2712
  135SAPE    HS14582   0.922   6.104  10.228 -0.6672  0.7128  0.9568
  135SAPE   O2114583   0.765   6.030  10.107  0.1058  0.1710  0.1611
  135SAPE   C2114584   0.740   6.157  10.071  0.3833 -0.6934  0.0287
  135SAPE   O2214585   0.793   6.253  10.126 -0.1950 -0.0474  0.5096
  135SAPE   C2214586   0.662   6.167   9.944 -0.0610  0.2638 -0.2609
  135SAPE   H2R14587   0.562   6.205   9.972  1.0957  1.9216  1.9205
  135SAPE   H2S14588   0.713   6.229   9.866  2.6428 -1.3391  0.1062
  135SAPE    C314589   0.945   5.892  10.189  0.8690  0.6086  0.9823
  135SAPE    HX14590   0.877   5.806  10.173 -0.2499  1.5937  0.2078
  135SAPE    HY14591   1.004   5.870  10.281  0.2191 -0.3870  1.1765
  135SAPE   O3114592   1.032   5.912  10.074 -0.4636  0.0372 -0.2427
  135SAPE   C3114593   1.123   6.004  10.095 -0.3927 -0.4337  0.0056
  135SAPE   O3214594   1.162   6.045  10.204  0.3827  0.5798  0.2477
  135SAPE   C3214595   1.155   6.072   9.963 -0.0250 -0.3959 -0.9947
  135SAPE   H2X14596   1.266   6.075   9.955  0.1416  3.3545  0.7085
  135SAPE   H2Y14597   1.115   6.174   9.949 -0.8203 -0.7687 -1.5445
  135SAPE   C2314598   0.622   6.028   9.890  0.6524  0.4460 -0.2162
  135SAPE   H3R14599   0.568   5.976   9.972  0.2407  1.0327 -0.1110
  135SAPE   H3S14600   0.718   5.975   9.867  0.8731  0.3224  0.9194
  135SAPE   C2414601   0.538   6.037   9.770  0.2297 -0.0486 -0.4008
  135SAPE   H4R14602   0.454   6.105   9.796 -0.3221 -1.2505  1.1063
  135SAPE   H4S14603   0.489   5.940   9.744  1.1184 -1.4880  2.7660
  135SAPE   C2514604   0.628   6.066   9.652  0.4495 -0.5577  0.7396
  135SAPE   H5R14605   0.718   6.009   9.626 -0.6864 -1.4755 -1.4875
  135SAPE   C2614606   0.598   6.156   9.550  0.4398 -0.4618 -0.1411
  135SAPE   H6R14607   0.675   6.168   9.472  0.9778 -0.2875  0.4101
  135SAPE   C2714608   0.477   6.246   9.543  0.5426 -0.3680  0.0181
  135SAPE   H7R14609   0.470   6.296   9.642 -1.1393  0.9978 -0.7553
  135SAPE   H7S14610   0.393   6.174   9.537  2.7614 -3.5637  3.1335
  135SAPE   C2814611   0.477   6.336   9.429 -0.0125  0.3394  0.0862
  135SAPE   H8R14612   0.524   6.435   9.438 -1.3411  0.9748  0.2577
  135SAPE   C2914613   0.406   6.319   9.310 -0.8495  0.7531  0.2424
  135SAPE   H9R14614   0.415   6.396   9.232  1.3806  2.8509  2.3723
  135SAPE  C21014615   0.311   6.206   9.280  0.0377 -0.2038 -0.1241
  135SAPE  H10R14616   0.252   6.182   9.371  1.5392  0.5576  1.1026
  135SAPE  H10S14617   0.380   6.122   9.256  0.5448  0.7078 -2.1318
  135SAPE  C21114618   0.203   6.233   9.180  0.0979 -0.3206 -0.3249
  135SAPE  H11R14619   0.179   6.338   9.156  1.3625  0.6491  2.3622
  135SAPE  C21214620   0.131   6.137   9.115 -0.4325 -1.1635  0.0514
  135SAPE  H12R14621   0.046   6.154   9.047  0.7346  2.0064 -0.8322
  135SAPE  C21314622   0.141   5.988   9.142 -0.3633 -0.6697  0.9247
  135SAPE  H13R14623   0.050   5.951   9.195  0.4208 -1.1286  2.0011
  135SAPE  H13S14624   0.222   5.959   9.212  0.6407  1.4317  0.6829
  135SAPE  C21414625   0.159   5.914   9.009  0.1287 -0.0278 -0.1197
  135SAPE  H14R14626   0.265   5.901   8.987  0.8532  1.6052  1.9941
  135SAPE  C21514627   0.055   5.870   8.935  0.2533  0.7301  0.1600
  135SAPE  H15R14628   0.074   5.822   8.838 -0.6906 -2.9655  1.6101
  135SAPE  C21614629  -0.089   5.893   8.974  0.0548  0.6399 -0.3730
  135SAPE  H16R14630  -0.151   5.937   8.892 -0.3924 -0.6343 -0.7387
  135SAPE  H16S14631  -0.100   5.954   9.066  0.8236 -0.0927  0.2104
  135SAPE  C21714632  -0.150   5.746   9.003  0.3948 -0.5450 -0.2015
  135SAPE  H17R14633  -0.116   5.721   9.105  2.4408 -0.1149 -0.7320
  135SAPE  H17S14634  -0.108   5.674   8.929  1.8039  0.9400 -0.8950
  135SAPE  C21814635  -0.302   5.743   9.000 -0.2247  1.2971 -0.4615
  135SAPE  H18R14636  -0.326   5.726   8.893 -3.1758 -1.1559  0.4617
  135SAPE  H18S14637  -0.350   5.841   9.022  1.8823  2.2512  0.1872
  135SAPE  C21914638  -0.367   5.630   9.079  0.4892 -0.3043 -0.3488
  135SAPE  H19R14639  -0.325   5.622   9.181 -1.9642 -1.2730  0.6764
  135SAPE  H19S14640  -0.347   5.531   9.034  1.1055  0.3348 -1.5157
  135SAPE  C22014641  -0.518   5.649   9.097 -1.1111 -0.3596  0.5065
  135SAPE  H20R14642  -0.545   5.611   9.198  0.5194  0.0270  1.1200
  135SAPE  H20S14643  -0.568   5.600   9.011 -2.3704 -1.0454  1.6027
  135SAPE  H20T14644  -0.552   5.754   9.085 -1.7670 -0.6850 -0.5454
  135SAPE   C3314645   1.094   6.009   9.838 -0.3470 -0.7608 -0.1209
  135SAPE   H3X14646   0.985   6.027   9.824 -0.3694 -0.0367  0.7911
  135SAPE   H3Y14647   1.106   5.899   9.836  4.4036 -0.4370 -1.4267
  135SAPE   C3414648   1.164   6.049   9.705  0.2759 -0.0540  0.1446
  135SAPE   H4X14649   1.266   6.006   9.710 -0.4547 -1.7682  1.1813
  135SAPE   H4Y14650   1.160   6.159   9.687 -1.0699 -0.4018 -2.1282
  135SAPE   C3514651   1.088   5.982   9.586  0.1472 -0.5155  0.0064
  135SAPE   H5X14652   0.982   6.013   9.598 -0.2924 -2.1596  0.6509
  135SAPE   H5Y14653   1.075   5.872   9.595 -1.3401 -0.3345  0.4242
  135SAPE   C3614654   1.137   6.015   9.448  0.1270  0.7156 -0.1750
  135SAPE   H6X14655   1.241   5.982   9.427 -0.0549 -0.2134  0.3052
  135SAPE   H6Y14656   1.145   6.124   9.431 -1.6870  0.8807 -0.1533
  135SAPE   C3714657   1.040   5.963   9.343 -0.2006  0.4901 -0.2607
  135SAPE   H7X14658   0.946   6.014   9.373 -0.6437 -1.2704  1.5932
  135SAPE   H7Y14659   1.022   5.855   9.357  0.2635  0.5389  0.8701
  135SAPE   C3814660   1.086   5.982   9.199  0.0208 -0.2049 -0.7254
  135SAPE   H8X14661   1.155   5.899   9.175  0.2683 -0.7689  1.7062
  135SAPE   H8Y14662   1.128   6.084   9.184 -2.2232  1.0229  0.7336
  135SAPE   C3914663   0.961   5.955   9.110 -0.4889  0.0434  0.0604
  135SAPE   H9X14664   0.880   6.023   9.143  0.6022  0.7125  1.4744
  135SAPE   H9Y14665   0.929   5.851   9.132 -1.3130 -0.3242 -2.5607
  135SAPE  C31014666   0.981   5.973   8.964  0.4202 -0.0187 -0.0515
  135SAPE  H10X14667   1.062   5.900   8.941 -1.1229 -1.5971 -0.6512
  135SAPE  H10Y14668   0.998   6.081   8.945  0.5586  0.2001  1.1895
  135SAPE  C31114669   0.854   5.935   8.885 -0.1664 -0.5957 -0.6711
  135SAPE  H11X14670   0.775   6.008   8.913  0.9745  1.0919 -1.6623
  135SAPE  H11Y14671   0.819   5.832   8.907  0.4791 -0.4424  1.2468
  135SAPE  C31214672   0.881   5.951   8.731  0.0667  0.4230  0.2149
  135SAPE  H12X14673   0.902   6.057   8.705 -0.2928  0.7366  1.1587
  135SAPE  H12Y14674   0.786   5.931   8.677  1.1698  2.1007 -2.5714
  135SAPE  C31314675   0.974   5.837   8.675 -0.3180 -1.1259  0.5044
  135SAPE  H13X14676   0.935   5.742   8.718  2.1340 -1.8163  1.3727
  135SAPE  H13Y14677   1.077   5.853   8.713 -0.2100  0.2822 -0.3036
  135SAPE  C31414678   0.975   5.822   8.517  0.4453  0.1611 -0.6822
  135SAPE  H14X14679   0.869   5.814   8.483  0.2336  2.5742 -0.7367
  135SAPE  H14Y14680   1.024   5.729   8.483 -2.1258 -0.5098 -2.9645
  135SAPE  C31514681   1.039   5.948   8.447 -0.2070  0.6723 -0.5453
  135SAPE  H15X14682   1.147   5.944   8.474 -0.5363 -1.6624  0.6610
  135SAPE  H15Y14683   1.002   6.044   8.488 -1.4464 -1.0050  2.5767
  135SAPE  C31614684   1.026   5.947   8.298 -0.4190 -0.0299 -0.1521
  135SAPE  H16X14685   0.922   5.941   8.259  0.3753 -3.9966 -2.1902
  135SAPE  H16Y14686   1.069   5.851   8.263 -1.0616 -0.2775 -0.2908
  135SAPE  C31714687   1.090   6.070   8.229 -0.8313 -0.0830  0.0515
  135SAPE  H17X14688   1.197   6.067   8.257 -0.8137  0.4504  0.0373
  135SAPE  H17Y14689   1.032   6.154   8.273  0.0414  1.1302 -1.0648
  135SAPE  C31814690   1.064   6.069   8.081 -0.1483  1.2458 -0.0786
  135SAPE  H18X14691   0.957   6.076   8.051 -0.2495 -1.7169 -0.7556
  135SAPE  H18Y14692   1.107   5.983   8.026  1.1995  1.1449  1.0773
  135SAPE  H18Z14693   1.118   6.159   8.047  0.0568  0.4829 -1.8886
  136SAPE     N14694   1.756   3.970  10.676 -0.6207  0.2848 -0.7267
  136SAPE   HN114695   1.727   3.984  10.578 -2.2697 -0.9258 -0.4532
  136SAPE   HN214696   1.766   4.063  10.722 -0.2405 -0.4133  0.6838
  136SAPE   HN314697   1.843   3.912  10.680  0.5421  1.8863 -1.8465
  136SAPE   C1214698   1.641   3.898  10.746  0.2858 -0.2214  0.6195
  136SAPE  H12A14699   1.628   3.796  10.704 -2.0857  0.5907 -0.7661
  136SAPE  H12B14700   1.562   3.971  10.718  0.4927 -0.1506  0.2213
  136SAPE   C1114701   1.674   3.895  10.904  0.1130 -0.0841  0.1225
  136SAPE  H11A14702   1.758   3.822  10.908  0.7085  0.6041  0.3166
  136SAPE  H11B14703   1.587   3.845  10.952 -0.1496  1.6707  1.5512
  136SAPE     P14704   1.583   4.107  11.012  0.0080 -0.3551  0.3790
  136SAPE   O1314705   1.507   4.050  11.125  0.3571 -0.0989 -0.4833
  136SAPE   O1414706   1.634   4.245  11.044  0.3370  0.2056 -0.2925
  136SAPE   O1214707   1.711   4.013  10.971  0.3953 -0.1788  0.0703
  136SAPE   O1114708   1.490   4.114  10.886  0.0399 -0.0217  0.1847
  136SAPE    C114709   1.359   4.079  10.909  0.0387 -0.0388  0.5369
  136SAPE    HA14710   1.356   3.969  10.923  3.2562 -0.2353  0.4359
  136SAPE    HB14711   1.308   4.131  10.993 -0.8151 -0.0153  0.0217
  136SAPE    C214712   1.296   4.104  10.766  0.3230  0.4012 -0.3857
  136SAPE    HS14713   1.188   4.088  10.781  0.7126 -0.2506  2.2245
  136SAPE   O2114714   1.355   4.013  10.676  0.2348  0.1418 -0.0322
  136SAPE   C2114715   1.264   3.975  10.581  0.6829 -0.3153 -0.1636
  136SAPE   O2214716   1.154   4.024  10.563 -0.0376  0.2920 -0.2580
  136SAPE   C2214717   1.321   3.855  10.500 -0.4298 -0.4260  0.1602
  136SAPE   H2R14718   1.429   3.878  10.483 -0.7157  1.6822  0.8444
  136SAPE   H2S14719   1.323   3.771  10.572  0.6353 -1.7494 -1.3433
  136SAPE    C314720   1.316   4.250  10.723 -0.2813  0.3322 -0.3292
  136SAPE    HX14721   1.425   4.256  10.706  0.0497  0.1795  1.5085
  136SAPE    HY14722   1.294   4.311  10.813 -1.1931  1.3159 -1.2057
  136SAPE   O3114723   1.239   4.300  10.613  0.3797  0.0605  0.0814
  136SAPE   C3114724   1.120   4.347  10.644  1.1873  0.2216 -0.1084
  136SAPE   O3214725   1.063   4.339  10.749 -0.0081  0.3102 -0.4325
  136SAPE   C3214726   1.064   4.408  10.516  0.1918  0.3214 -0.1986
  136SAPE   H2X14727   0.954   4.417  10.523  0.2680  1.0585  0.1686
  136SAPE   H2Y14728   1.102   4.344  10.433  0.8739  0.8305 -0.2860
  136SAPE   C2314729   1.241   3.833  10.364 -0.7836  0.7296  0.2084
  136SAPE   H3R14730   1.274   3.925  10.311  1.2329  0.7969  1.4450
  136SAPE   H3S14731   1.132   3.852  10.368 -0.6097  1.6319  1.3375
  136SAPE   C2414732   1.298   3.717  10.279 -0.4127 -0.0255 -1.0866
  136SAPE   H4R14733   1.408   3.734  10.279 -0.7042  2.0733 -1.3543
  136SAPE   H4S14734   1.256   3.719  10.177  0.5580 -1.9139 -1.5660
  136SAPE   C2514735   1.281   3.580  10.332 -0.4885  0.2612  0.8985
  136SAPE   H5R14736   1.369   3.530  10.375 -0.6668 -1.4261 -0.5418
  136SAPE   C2614737   1.170   3.502  10.318  0.2099 -0.4059  0.0888
  136SAPE   H6R14738   1.170   3.394  10.342 -0.1698 -0.2500  0.8151
  136SAPE   C2714739   1.045   3.544  10.244 -0.6106  0.3472  0.4634
  136SAPE   H7R14740   1.056   3.499  10.143  4.4812  0.4218  0.7160
  136SAPE   H7S14741   1.049   3.654  10.229  1.3456  0.5262  1.8657
  136SAPE   C2814742   0.921   3.503  10.316 -0.3243  0.2695  0.1049
  136SAPE   H8R14743   0.930   3.450  10.412  2.0034 -2.8333 -1.6552
  136SAPE   C2914744   0.803   3.507  10.255  0.1065 -0.2033  0.2736
  136SAPE   H9R14745   0.712   3.477  10.309 -0.4166  0.0462 -0.4445
  136SAPE  C21014746   0.777   3.561  10.119 -0.2132  0.2534  0.1156
  136SAPE  H10R14747   0.852   3.524  10.046  0.1693  0.1062  0.5799
  136SAPE  H10S14748   0.789   3.671  10.113  0.2902  0.1682 -0.4599
  136SAPE  C21114749   0.641   3.538  10.068  0.5036 -1.0112  0.5456
  136SAPE  H11R14750   0.562   3.581  10.132  0.7219  0.1556  0.0645
  136SAPE  C21214751   0.597   3.477   9.957 -0.4152  0.2120  0.4464
  136SAPE  H12R14752   0.488   3.467   9.942 -0.3309 -1.6690  0.7648
  136SAPE  C21314753   0.681   3.406   9.858  0.2338  0.0179  0.7512
  136SAPE  H13R14754   0.777   3.381   9.909  1.3664  1.4426 -0.5871
  136SAPE  H13S14755   0.710   3.474   9.775  0.7727 -2.3094 -1.0902
  136SAPE  C21414756   0.597   3.285   9.818  0.6661 -0.0740 -0.3320
  136SAPE  H14R14757   0.488   3.277   9.823  0.8444 -3.1725  0.1658
  136SAPE  C21514758   0.649   3.178   9.754 -0.2488  0.3236 -0.8651
  136SAPE  H15R14759   0.582   3.090   9.750 -1.2287  0.9935  0.3547
  136SAPE  C21614760   0.798   3.152   9.729  0.1570 -0.8454  0.2429
  136SAPE  H16R14761   0.829   3.057   9.776  1.1381 -0.5719  0.1662
  136SAPE  H16S14762   0.856   3.238   9.771 -0.8949  1.1246 -2.0756
  136SAPE  C21714763   0.823   3.143   9.573 -0.7721 -0.4044  1.1267
  136SAPE  H17R14764   0.755   3.071   9.524  0.3422 -0.0252 -1.1110
  136SAPE  H17S14765   0.923   3.094   9.563 -0.0638  0.9022  1.6076
  136SAPE  C21814766   0.807   3.279   9.499 -0.4493 -0.5949  0.1452
  136SAPE  H18R14767   0.887   3.348   9.534 -0.5180 -0.6154  0.3413
  136SAPE  H18S14768   0.704   3.311   9.523 -0.6305 -1.4558  0.5219
  136SAPE  C21914769   0.811   3.256   9.343  0.2572  1.1625 -0.1249
  136SAPE  H19R14770   0.718   3.204   9.311 -0.5217  3.6744 -2.2863
  136SAPE  H19S14771   0.895   3.193   9.306  1.2734  1.9226  0.8369
  136SAPE  C22014772   0.814   3.387   9.270 -0.8047  0.1430 -0.0671
  136SAPE  H20R14773   0.794   3.369   9.162 -0.2504 -0.1763 -0.1178
  136SAPE  H20S14774   0.907   3.446   9.283  0.2605 -1.0281 -1.9245
  136SAPE  H20T14775   0.737   3.459   9.305  0.0369  0.8326  0.4214
  136SAPE   C3314776   1.132   4.546  10.496 -0.6256 -0.7862 -0.4357
  136SAPE   H3X14777   1.236   4.560  10.532 -0.8125  3.2769 -0.9787
  136SAPE   H3Y14778   1.076   4.619  10.558 -0.3132 -1.8970  1.2310
  136SAPE   C3414779   1.125   4.602  10.349 -0.5481  0.1441  0.3208
  136SAPE   H4X14780   1.126   4.713  10.360 -1.0058 -0.0786  3.6746
  136SAPE   H4Y14781   1.030   4.566  10.304 -0.8768  0.5051  0.7206
  136SAPE   C3514782   1.242   4.560  10.260 -0.8069  0.0968  0.4086
  136SAPE   H5X14783   1.245   4.449  10.258  1.4900  0.1216  0.6392
  136SAPE   H5Y14784   1.337   4.592  10.308 -0.6001 -1.6163  1.2362
  136SAPE   C3614785   1.244   4.615  10.122  0.0978  0.1773  0.3476
  136SAPE   H6X14786   1.252   4.725  10.122 -0.7823  0.2485  0.3830
  136SAPE   H6Y14787   1.142   4.598  10.081 -0.0495 -0.1250  0.8340
  136SAPE   C3714788   1.354   4.545  10.040  0.4751  0.3590 -0.8234
  136SAPE   H7X14789   1.347   4.434  10.042  0.0492  0.3923  1.2295
  136SAPE   H7Y14790   1.446   4.569  10.098  0.2497  1.3014 -0.8533
  136SAPE   C3814791   1.367   4.595   9.892 -0.3884  0.2552 -0.3521
  136SAPE   H8X14792   1.402   4.701   9.891  0.8314 -0.1156  0.4391
  136SAPE   H8Y14793   1.271   4.589   9.837  0.9018  1.3919 -2.8858
  136SAPE   C3914794   1.472   4.514   9.809  0.4361 -0.3115  0.1845
  136SAPE   H9X14795   1.484   4.568   9.712 -0.4484 -1.8108 -0.8032
  136SAPE   H9Y14796   1.428   4.414   9.788  0.3781  0.1453 -2.2321
  136SAPE  C31014797   1.614   4.513   9.866  0.4410  0.7126 -0.2326
  136SAPE  H10X14798   1.622   4.445   9.954  0.9900 -1.3596 -1.8095
  136SAPE  H10Y14799   1.644   4.613   9.902  1.3176  0.4055 -0.0968
  136SAPE  C31114800   1.734   4.451   9.782  0.2524  0.2129 -0.4733
  136SAPE  H11X14801   1.702   4.348   9.753 -0.4188  1.2225 -3.6362
  136SAPE  H11Y14802   1.821   4.451   9.852  0.7847  0.3184 -1.1261
  136SAPE  C31214803   1.763   4.542   9.661  0.1070 -0.3083  0.0692
  136SAPE  H12X14804   1.810   4.631   9.709 -0.5399 -0.5147  1.1239
  136SAPE  H12Y14805   1.669   4.582   9.617 -0.3508 -0.0528  1.2519
  136SAPE  C31314806   1.859   4.482   9.554  0.2874 -0.1919 -0.1641
  136SAPE  H13X14807   1.934   4.421   9.608  0.7844 -1.0596 -1.7585
  136SAPE  H13Y14808   1.908   4.565   9.499 -2.2146  1.8622  0.5115
  136SAPE  C31414809   1.785   4.409   9.451  0.5853  0.4117 -0.2011
  136SAPE  H14X14810   1.702   4.470   9.407 -0.4714 -0.3133  0.7261
  136SAPE  H14Y14811   1.723   4.328   9.495 -1.4697  1.9056 -0.1822
  136SAPE  C31514812   1.880   4.354   9.342  0.7593 -0.2127 -0.1137
  136SAPE  H15X14813   1.975   4.338   9.398  0.4614  1.2270  0.8864
  136SAPE  H15Y14814   1.884   4.434   9.265 -1.4520 -0.7970 -0.9028
  136SAPE  C31614815   1.839   4.233   9.268 -0.0027  0.4535  0.3469
  136SAPE  H16X14816   1.863   4.238   9.160 -0.9915  1.5641  0.1575
  136SAPE  H16Y14817   1.728   4.238   9.266  0.0427  3.1842  0.8306
  136SAPE  C31714818   1.889   4.098   9.324 -0.3292 -0.1823 -0.2116
  136SAPE  H17X14819   1.856   4.020   9.252 -1.8217 -0.7215  0.9948
  136SAPE  H17Y14820   1.841   4.070   9.420 -1.7383 -0.8358 -1.0657
  136SAPE  C31814821   2.041   4.090   9.331  0.1003 -0.1827 -0.1723
  136SAPE  H18X14822   2.078   4.161   9.408 -2.1444  2.2030 -1.1409
  136SAPE  H18Y14823   2.076   4.127   9.232  0.2837  0.2208  0.0434
  136SAPE  H18Z14824   2.062   3.981   9.341 -2.7186 -1.2399 -3.5844
  137SAPE     N14825   6.480   2.879  11.060 -0.5782 -0.1287  0.0281
  137SAPE   HN114826   6.471   2.875  10.956 -1.0381 -3.4978  0.0820
  137SAPE   HN214827   6.569   2.836  11.092 -0.9202 -1.0720 -0.2266
  137SAPE   HN314828   6.404   2.817  11.096  1.3125 -2.2455  0.6314
  137SAPE   C1214829   6.471   3.012  11.121 -0.6063 -0.4604 -0.2320
  137SAPE  H12A14830   6.572   3.056  11.115  0.2284 -2.3699 -0.9528
  137SAPE  H12B14831   6.430   3.002  11.224  0.0981  0.7894  0.1875
  137SAPE   C1114832   6.377   3.095  11.045  0.0455  0.0295 -0.2023
  137SAPE  H11A14833   6.431   3.124  10.951  0.7119  0.1518  0.2095
  137SAPE  H11B14834   6.379   3.183  11.112  2.1813 -0.3686  0.3378
  137SAPE     P14835   6.128   3.130  11.038  0.1370 -0.0338 -0.5564
  137SAPE   O1314836   6.037   3.065  11.141 -0.3310  0.6103 -0.5187
  137SAPE   O1414837   6.172   3.272  11.063  0.2556 -0.2679  0.1247
  137SAPE   O1214838   6.249   3.032  11.017  0.4200 -0.0991  0.4413
  137SAPE   O1114839   6.057   3.116  10.895  0.2731  0.0580 -0.7023
  137SAPE    C114840   6.066   3.003  10.814 -0.2841  0.2575  0.1116
  137SAPE    HA14841   6.076   2.907  10.871  0.4806 -0.9409 -1.9313
  137SAPE    HB14842   5.967   2.989  10.767 -0.8798  2.1856  0.7269
  137SAPE    C214843   6.183   3.011  10.712  0.0510 -1.0993  0.5654
  137SAPE    HS14844   6.259   3.077  10.759 -1.4459  0.1451  1.3298
  137SAPE   O2114845   6.131   3.069  10.589  0.0602  0.0418 -0.0530
  137SAPE   C2114846   6.179   3.184  10.559  0.3403 -0.2755  0.0910
  137SAPE   O2214847   6.283   3.232  10.592 -0.6740 -0.1393  0.1711
  137SAPE   C2214848   6.078   3.252  10.464  0.3306  0.0012 -0.3924
  137SAPE   H2R14849   6.080   3.196  10.367  0.4806 -0.7057  0.0123
  137SAPE   H2S14850   5.979   3.234  10.510  0.5606 -2.0074 -0.5868
  137SAPE    C314851   6.257   2.879  10.680 -0.3420  0.1560 -0.5508
  137SAPE    HX14852   6.194   2.808  10.622  0.4435 -0.4744 -0.6435
  137SAPE    HY14853   6.266   2.837  10.783  0.5667  0.6707 -0.4129
  137SAPE   O3114854   6.379   2.904  10.610  0.5427 -0.2495 -0.0566
  137SAPE   C3114855   6.495   2.872  10.673 -0.8008 -0.1760  0.4972
  137SAPE   O3214856   6.507   2.837  10.790  0.1536 -0.7343  0.0813
  137SAPE   C3214857   6.620   2.880  10.573  0.5048  0.2985 -0.2768
  137SAPE   H2X14858   6.647   2.987  10.565 -0.2227  0.4329 -1.0769
  137SAPE   H2Y14859   6.577   2.850  10.474 -0.3426 -0.5903  0.3398
  137SAPE   C2314860   6.095   3.400  10.449 -0.1701  0.0754  0.0555
  137SAPE   H3R14861   6.201   3.426  10.430  0.4196 -2.1122  0.0061
  137SAPE   H3S14862   6.068   3.449  10.544 -1.8675 -1.9839  0.7227
  137SAPE   C2414863   6.018   3.454  10.330  0.2637  0.0160  0.6982
  137SAPE   H4R14864   5.915   3.416  10.346  0.7877 -2.1588 -0.6622
  137SAPE   H4S14865   6.064   3.429  10.232 -0.2226  0.5995  0.3124
  137SAPE   C2514866   6.006   3.599  10.335  0.1771  0.3878  0.1142
  137SAPE   H5R14867   6.051   3.638  10.427  1.8037 -3.0935  0.9325
  137SAPE   C2614868   5.943   3.680  10.244  0.5953  0.5393 -0.0650
  137SAPE   H6R14869   5.932   3.790  10.251  1.5891  0.6310  0.2985
  137SAPE   C2714870   5.894   3.628  10.116  0.3545 -0.4894  0.2640
  137SAPE   H7R14871   5.856   3.525  10.132  0.3100 -0.1115  3.0800
  137SAPE   H7S14872   5.983   3.626  10.049  0.8540 -0.2357  0.9033
  137SAPE   C2814873   5.785   3.714  10.053 -0.6580  0.1826 -0.2600
  137SAPE   H8R14874   5.777   3.819  10.085 -1.2213 -0.6622  2.5860
  137SAPE   C2914875   5.707   3.674   9.949  0.3636  0.1452 -1.1553
  137SAPE   H9R14876   5.625   3.734   9.906  0.0901 -0.4152 -1.4285
  137SAPE  C21014877   5.710   3.545   9.889  0.8812  0.0846 -0.2112
  137SAPE  H10R14878   5.642   3.485   9.954 -1.3397  0.8413 -1.7245
  137SAPE  H10S14879   5.811   3.500   9.899  0.1028 -1.4400  1.5418
  137SAPE  C21114880   5.665   3.538   9.744  0.2533  0.6112  0.0839
  137SAPE  H11R14881   5.561   3.565   9.719  0.0455 -0.2653 -0.0431
  137SAPE  C21214882   5.741   3.500   9.639 -0.8268  0.2289 -0.5921
  137SAPE  H12R14883   5.695   3.495   9.540  0.0455 -0.2951 -0.9757
  137SAPE  C21314884   5.890   3.462   9.652  0.1134 -0.1109 -0.0323
  137SAPE  H13R14885   5.906   3.382   9.727  0.4450  0.2308  0.2654
  137SAPE  H13S14886   5.947   3.546   9.696  1.0722 -0.7404 -0.0498
  137SAPE  C21414887   5.965   3.426   9.522  0.1823 -0.3649  0.8869
  137SAPE  H14R14888   5.904   3.372   9.448 -1.9392  0.4776  1.9391
  137SAPE  C21514889   6.094   3.453   9.495 -0.4610  0.2133  0.4786
  137SAPE  H15R14890   6.136   3.414   9.401 -0.4696  0.2246  0.4703
  137SAPE  C21614891   6.196   3.523   9.585  0.4027  0.5508 -0.4665
  137SAPE  H16R14892   6.144   3.575   9.668  0.0406 -0.2520 -0.1839
  137SAPE  H16S14893   6.257   3.601   9.533 -1.4155  2.0240 -0.4851
  137SAPE  C21714894   6.288   3.409   9.646  1.3352 -0.5495 -0.1794
  137SAPE  H17R14895   6.368   3.465   9.698  0.7220 -0.5207  0.7601
  137SAPE  H17S14896   6.320   3.336   9.569 -0.8571  0.3411 -2.0439
  137SAPE  C21814897   6.230   3.321   9.761  1.0107  0.2613 -0.1145
  137SAPE  H18R14898   6.314   3.268   9.810 -0.6991 -3.0851 -0.5501
  137SAPE  H18S14899   6.165   3.243   9.717 -1.2234  1.2565  1.2524
  137SAPE  C21914900   6.155   3.392   9.883 -0.7707 -0.6657  0.2104
  137SAPE  H19R14901   6.083   3.466   9.842 -0.7902 -1.0809 -0.5322
  137SAPE  H19S14902   6.235   3.454   9.930  1.6038 -1.9519 -1.8796
  137SAPE  C22014903   6.084   3.299   9.979 -0.1603 -0.3277  0.2734
  137SAPE  H20R14904   6.145   3.218  10.023 -3.1595 -1.2725  3.0488
  137SAPE  H20S14905   5.999   3.257   9.922  1.2166 -0.2840 -1.9597
  137SAPE  H20T14906   6.041   3.354  10.065 -1.6333  0.4091 -0.8897
  137SAPE   C3314907   6.748   2.792  10.600  0.1006 -0.0845 -0.0627
  137SAPE   H3X14908   6.712   2.690  10.573  0.3020  0.1293 -1.1908
  137SAPE   H3Y14909   6.770   2.807  10.708  1.5983  0.4776 -0.4337
  137SAPE   C3414910   6.861   2.842  10.507  0.4117  0.3161 -0.1778
  137SAPE   H4X14911   6.958   2.804  10.544  0.7332 -0.5548 -1.8341
  137SAPE   H4Y14912   6.869   2.952  10.519  0.9397  0.4089 -1.2815
  137SAPE   C3514913   6.844   2.817  10.355 -0.8121 -0.7138 -1.2243
  137SAPE   H5X14914   6.761   2.876  10.311 -1.9907  0.1838  1.9328
  137SAPE   H5Y14915   6.828   2.709  10.331  1.3723 -1.8000  1.6409
  137SAPE   C3614916   6.968   2.844  10.265  0.2399 -0.1257 -0.5524
  137SAPE   H6X14917   7.048   2.773  10.293 -0.0240 -0.8310 -1.5290
  137SAPE   H6Y14918   7.015   2.944  10.276  0.3900 -0.4233  2.3413
  137SAPE   C3714919   6.944   2.820  10.113 -0.3617 -0.2122 -0.0847
  137SAPE   H7X14920   6.853   2.875  10.080 -0.1943  0.7443  0.9799
  137SAPE   H7Y14921   6.921   2.715  10.086  0.6767 -0.4644 -0.0316
  137SAPE   C3814922   7.063   2.858  10.023 -0.2199 -0.4214  0.0544
  137SAPE   H8X14923   7.157   2.805  10.050 -0.4233 -0.8709 -0.1144
  137SAPE   H8Y14924   7.077   2.967  10.043 -0.2613 -0.2888 -0.5893
  137SAPE   C3914925   7.044   2.845   9.872 -0.3397 -0.0902  0.8948
  137SAPE   H9X14926   6.939   2.866   9.842  0.3986  1.4510 -0.8561
  137SAPE   H9Y14927   7.070   2.741   9.843  1.4541  0.9670 -1.6809
  137SAPE  C31014928   7.148   2.926   9.790 -0.3876 -0.2063 -0.3256
  137SAPE  H10X14929   7.252   2.898   9.819 -0.4631 -1.2894 -1.0542
  137SAPE  H10Y14930   7.131   3.031   9.821 -1.3446 -0.0827 -1.2242
  137SAPE  C31114931   7.140   2.921   9.641 -0.4508  0.8217  0.4976
  137SAPE  H11X14932   7.221   2.981   9.595 -0.4532  2.2927  2.2807
  137SAPE  H11Y14933   7.042   2.961   9.607 -1.4420 -0.8836  1.2052
  137SAPE  C31214934   7.159   2.775   9.589 -0.0890  0.1002  0.1346
  137SAPE  H12X14935   7.069   2.715   9.617  0.7469 -1.3721 -0.2384
  137SAPE  H12Y14936   7.239   2.723   9.646 -0.4204 -0.4321  0.1281
  137SAPE  C31314937   7.181   2.772   9.441  0.0480  0.0671  0.4595
  137SAPE  H13X14938   7.236   2.678   9.422  1.2171  0.8094 -0.0163
  137SAPE  H13Y14939   7.247   2.852   9.401 -0.4690 -0.2367 -1.1088
  137SAPE  C31414940   7.055   2.782   9.349 -0.3317  1.0938 -0.2423
  137SAPE  H14X14941   7.010   2.883   9.353  0.1251  1.3386 -1.0099
  137SAPE  H14Y14942   6.984   2.710   9.396  0.7093 -1.2127 -1.9632
  137SAPE  C31514943   7.077   2.739   9.206  0.4294 -0.3030 -0.0372
  137SAPE  H15X14944   6.979   2.713   9.163 -0.2679  0.7401  0.8476
  137SAPE  H15Y14945   7.143   2.649   9.203  0.6454 -0.3289  2.7401
  137SAPE  C31614946   7.131   2.854   9.115  0.0879  0.3772  0.4233
  137SAPE  H16X14947   7.236   2.882   9.137  1.0006 -1.2987 -1.5677
  137SAPE  H16Y14948   7.082   2.951   9.138  1.3860  1.0682  0.3703
  137SAPE  C31714949   7.108   2.812   8.969  0.3401  0.4770  0.2854
  137SAPE  H17X14950   7.135   2.707   8.943 -1.3616  0.2769 -0.8296
  137SAPE  H17Y14951   7.187   2.870   8.917  1.0277  0.2925  1.1040
  137SAPE  C31814952   6.969   2.840   8.906  0.1046 -0.0102 -0.4205
  137SAPE  H18X14953   6.972   2.830   8.796  0.7609  0.5663 -0.4609
  137SAPE  H18Y14954   6.939   2.943   8.936  1.6482  0.6467 -1.0589
  137SAPE  H18Z14955   6.895   2.762   8.937  0.1656 -0.0147 -0.2828
  138SAPE     N14956   2.447   3.556  10.757  0.0153  0.2200 -0.2742
  138SAPE   HN114957   2.374   3.514  10.818  1.1035  1.5530  2.0783
  138SAPE   HN214958   2.489   3.472  10.711 -0.4043  0.6000 -1.3903
  138SAPE   HN314959   2.521   3.587  10.824 -0.0810  0.1177 -0.1187
  138SAPE   C1214960   2.415   3.659  10.654 -0.4483 -0.5985  0.7041
  138SAPE  H12A14961   2.485   3.651  10.569 -1.4450  1.8084 -0.4159
  138SAPE  H12B14962   2.423   3.757  10.705 -1.8905  0.3739 -0.8384
  138SAPE   C1114963   2.269   3.643  10.614 -0.0179 -0.6011 -0.3788
  138SAPE  H11A14964   2.254   3.539  10.577 -0.8327 -0.4318 -0.5382
  138SAPE  H11B14965   2.238   3.711  10.532 -1.7116 -0.6916  0.1611
  138SAPE     P14966   2.019   3.699  10.685 -0.4148 -0.2560  0.1350
  138SAPE   O1314967   1.931   3.647  10.791 -0.7441  0.2126  0.0754
  138SAPE   O1414968   2.007   3.848  10.660 -0.3691 -0.1592 -0.4560
  138SAPE   O1214969   2.177   3.662  10.723 -0.1214  0.0896  0.3969
  138SAPE   O1114970   1.991   3.623  10.546  0.3748 -0.2954 -0.6672
  138SAPE    C114971   1.965   3.485  10.558  0.9736 -0.4358 -0.6817
  138SAPE    HA14972   2.031   3.436  10.633 -0.8646  1.3934  2.3609
  138SAPE    HB14973   1.859   3.468  10.585  0.0828  2.2257 -2.0535
  138SAPE    C214974   1.978   3.408  10.427 -0.7451  0.4900  0.2721
  138SAPE    HS14975   2.082   3.371  10.435 -0.1304  2.0058 -0.2508
  138SAPE   O2114976   1.955   3.501  10.323  0.8774  0.7208  0.0215
  138SAPE   C2114977   2.058   3.547  10.256  0.1102  0.0318 -0.6512
  138SAPE   O2214978   2.170   3.506  10.270 -0.0795 -0.5457 -0.0681
  138SAPE   C2214979   2.024   3.670  10.176 -0.2745 -1.3812 -0.2531
  138SAPE   H2R14980   1.917   3.668  10.144 -0.3150 -0.5752 -0.1673
  138SAPE   H2S14981   2.049   3.757  10.240  0.0086 -1.7250  0.1067
  138SAPE    C314982   1.881   3.282  10.425  0.6634 -0.4940 -0.2599
  138SAPE    HX14983   1.781   3.327  10.408  0.5888 -1.2264 -2.0283
  138SAPE    HY14984   1.886   3.238  10.526 -0.3724 -2.4418 -1.0067
  138SAPE   O3114985   1.914   3.195  10.318 -0.0044 -0.6876 -0.0901
  138SAPE   C3114986   2.009   3.107  10.335 -0.5465 -0.6095 -0.3324
  138SAPE   O3214987   2.070   3.087  10.439 -0.1641 -0.2279  0.7586
  138SAPE   C3214988   2.016   3.031  10.203 -0.1718 -0.4635 -0.1209
  138SAPE   H2X14989   1.992   3.108  10.127 -2.6958  1.4652  2.3741
  138SAPE   H2Y14990   1.946   2.947  10.221  1.7024 -1.6501  2.2497
  138SAPE   C2314991   2.103   3.678  10.040  0.1620  0.3737  0.2953
  138SAPE   H3R14992   2.208   3.644  10.053  0.0859 -0.5823 -1.3016
  138SAPE   H3S14993   2.099   3.783  10.005 -1.2866  0.9004  1.8620
  138SAPE   C2414994   2.034   3.588   9.930  0.1482 -0.2720  0.5232
  138SAPE   H4R14995   2.076   3.616   9.831 -0.5470  0.8451  0.5346
  138SAPE   H4S14996   1.931   3.624   9.910  0.9838  0.7892 -2.3887
  138SAPE   C2514997   2.035   3.438   9.948  0.0485  0.2567 -0.0511
  138SAPE   H5R14998   2.135   3.394   9.962  0.1086  0.6958  0.9662
  138SAPE   C2614999   1.932   3.354   9.962  0.2835 -0.4761 -0.4802
  138SAPE   H6R15000   1.942   3.245   9.964 -0.9029 -0.6219 -1.1014
  138SAPE   C2715001   1.786   3.395   9.945  0.6041  0.3129  0.4845
  138SAPE   H7R15002   1.722   3.315   9.903  0.7283  0.7525 -0.5809
  138SAPE   H7S15003   1.781   3.479   9.871  1.2298  0.0377  0.1228
  138SAPE   C2815004   1.731   3.418  10.084 -0.2376  0.5730  0.0355
  138SAPE   H8R15005   1.771   3.356  10.166 -1.4594  0.0648  0.2602
  138SAPE   C2915006   1.631   3.509  10.113 -0.2258 -0.1390 -0.6793
  138SAPE   H9R15007   1.608   3.522  10.220  4.0897 -0.9513  0.5446
  138SAPE  C21015008   1.558   3.598  10.015 -0.2895  0.4483 -0.3641
  138SAPE  H10R15009   1.593   3.590   9.911 -1.1992 -1.2229 -0.5782
  138SAPE  H10S15010   1.572   3.704  10.048 -0.3554  0.0150  1.1490
  138SAPE  C21115011   1.415   3.558  10.011  0.0066 -0.9964 -0.2304
  138SAPE  H11R15012   1.374   3.495  10.091  0.0725 -0.6596  0.0689
  138SAPE  C21215013   1.324   3.597   9.915 -0.4944 -0.1735 -0.1343
  138SAPE  H12R15014   1.219   3.578   9.940 -0.7432  0.7317 -0.4693
  138SAPE  C21315015   1.358   3.677   9.794  0.4721  0.1288 -0.4178
  138SAPE  H13R15016   1.451   3.641   9.745 -0.1710 -2.7894  0.3230
  138SAPE  H13S15017   1.385   3.776   9.835  1.4230 -0.0487 -0.6071
  138SAPE  C21415018   1.231   3.699   9.711 -0.1771 -0.0681 -0.3881
  138SAPE  H14R15019   1.141   3.730   9.766 -0.2947 -0.1227 -0.5517
  138SAPE  C21515020   1.219   3.664   9.577  0.0127 -0.5799 -0.2754
  138SAPE  H15R15021   1.131   3.690   9.517  1.3220  2.4098 -1.0497
  138SAPE  C21615022   1.341   3.604   9.497 -0.5217  0.0463  0.1896
  138SAPE  H16R15023   1.439   3.622   9.547 -0.1371 -1.5620  0.0550
  138SAPE  H16S15024   1.362   3.652   9.400 -1.3652  1.6492  0.7669
  138SAPE  C21715025   1.324   3.455   9.478 -0.3286 -0.0038  0.5605
  138SAPE  H17R15026   1.273   3.403   9.562  2.3309 -1.6042  1.2804
  138SAPE  H17S15027   1.418   3.397   9.479 -0.2546  0.1136  0.4824
  138SAPE  C21815028   1.250   3.422   9.346 -0.4329  0.5504 -0.0152
  138SAPE  H18R15029   1.145   3.458   9.351 -1.6757 -2.5648 -1.1003
  138SAPE  H18S15030   1.247   3.312   9.332  1.2216  0.5491 -0.5557
  138SAPE  C21915031   1.322   3.488   9.220 -0.5978 -0.3260 -0.1098
  138SAPE  H19R15032   1.433   3.489   9.220 -0.5635  2.1133 -1.0044
  138SAPE  H19S15033   1.277   3.589   9.213 -0.0295 -0.1241 -0.9540
  138SAPE  C22015034   1.272   3.409   9.094 -0.1276 -0.5226 -0.3640
  138SAPE  H20R15035   1.323   3.448   9.003 -0.8242 -0.3379 -0.6797
  138SAPE  H20S15036   1.164   3.409   9.070 -0.2829 -0.2008  0.3193
  138SAPE  H20T15037   1.302   3.303   9.107 -0.0626 -0.6292 -1.2664
  138SAPE   C3315038   2.154   2.981  10.162  0.6490  0.3227  0.0508
  138SAPE   H3X15039   2.193   2.906  10.233 -0.0874  0.6712  0.8425
  138SAPE   H3Y15040   2.220   3.070  10.177 -1.0303  1.3222  2.2543
  138SAPE   C3415041   2.178   2.943  10.011  0.0047  0.2288  0.3066
  138SAPE   H4X15042   2.286   2.920  10.003  0.6536  3.3115 -1.2010
  138SAPE   H4Y15043   2.149   3.029   9.947  0.3831 -0.1035 -0.3242
  138SAPE   C3515044   2.099   2.818   9.962  0.6329 -0.1137 -0.1490
  138SAPE   H5X15045   1.990   2.838   9.954  0.8236  0.2728 -2.4449
  138SAPE   H5Y15046   2.112   2.738  10.039  0.0530 -1.0794 -1.0269
  138SAPE   C3615047   2.156   2.765   9.828 -0.3804 -0.0804 -0.3692
  138SAPE   H6X15048   2.104   2.673   9.794 -1.1069 -0.0179  0.5342
  138SAPE   H6Y15049   2.262   2.736   9.842 -0.4286 -1.1696 -2.0207
  138SAPE   C3715050   2.155   2.863   9.706 -0.3362 -0.4290  0.5523
  138SAPE   H7X15051   2.213   2.954   9.733 -1.5160  0.4409  0.2322
  138SAPE   H7Y15052   2.049   2.883   9.682  0.1103  0.4473 -0.8109
  138SAPE   C3815053   2.218   2.797   9.578 -0.4246  0.0868  0.0693
  138SAPE   H8X15054   2.181   2.693   9.564  0.4926 -0.2274 -0.0396
  138SAPE   H8Y15055   2.327   2.816   9.576 -0.3737  0.1564 -3.8425
  138SAPE   C3915056   2.168   2.877   9.460 -0.0397  0.0210  0.1178
  138SAPE   H9X15057   2.187   2.985   9.475 -1.7959  0.8925 -3.0879
  138SAPE   H9Y15058   2.057   2.868   9.461 -0.0739  0.4251  0.7814
  138SAPE  C31015059   2.226   2.847   9.323 -0.4202  0.1273  0.3061
  138SAPE  H10X15060   2.199   2.742   9.301  0.1104 -0.1100  0.7745
  138SAPE  H10Y15061   2.337   2.850   9.318 -0.3814 -1.5788 -0.6901
  138SAPE  C31115062   2.172   2.929   9.207  0.6228  0.0921  0.4431
  138SAPE  H11X15063   2.178   3.038   9.228 -0.6794  0.0310  1.2281
  138SAPE  H11Y15064   2.066   2.900   9.195  0.6363 -0.6166  1.8672
  138SAPE  C31215065   2.243   2.905   9.071 -0.3941 -0.1306  0.0625
  138SAPE  H12X15066   2.210   2.808   9.030  2.8781 -2.0591  1.5626
  138SAPE  H12Y15067   2.352   2.893   9.092  0.0471  0.6212 -1.6658
  138SAPE  C31315068   2.230   3.019   8.968 -1.0835  0.0863  0.4834
  138SAPE  H13X15069   2.257   3.114   9.020 -0.7945  0.4331 -0.2846
  138SAPE  H13Y15070   2.123   3.025   8.938 -0.4272  1.5414 -1.7898
  138SAPE  C31415071   2.330   3.002   8.848  0.6935 -0.2048 -0.3101
  138SAPE  H14X15072   2.430   3.010   8.895  1.9987  0.1858 -2.9516
  138SAPE  H14Y15073   2.322   3.086   8.775 -0.1210  0.7688  0.8489
  138SAPE  C31515074   2.318   2.872   8.782 -0.3606 -0.0153 -1.1964
  138SAPE  H15X15075   2.211   2.848   8.764 -0.6352 -0.0495  0.3835
  138SAPE  H15Y15076   2.366   2.794   8.845  0.1989  0.5932 -0.8545
  138SAPE  C31615077   2.375   2.853   8.647 -0.0819 -0.1177  0.2713
  138SAPE  H16X15078   2.386   2.742   8.641  1.2862  0.0099  0.2299
  138SAPE  H16Y15079   2.474   2.901   8.635  0.0628 -0.8518 -2.2897
  138SAPE  C31715080   2.275   2.895   8.535 -0.4193  0.0947  0.0099
  138SAPE  H17X15081   2.181   2.836   8.543 -1.0680  0.9342 -1.1277
  138SAPE  H17Y15082   2.331   2.856   8.447 -2.3599  2.4663 -2.4505
  138SAPE  C31815083   2.251   3.039   8.514 -0.5553  0.3774  0.2399
  138SAPE  H18X15084   2.199   3.053   8.417  0.4870  1.1644 -0.2244
  138SAPE  H18Y15085   2.349   3.090   8.507  0.9296 -2.5053 -1.4372
  138SAPE  H18Z15086   2.180   3.084   8.587  0.5326  1.5397  0.6141
  139SAPE     N15087   5.634   6.410  10.343  0.3466 -0.3402  1.0143
  139SAPE   HN115088   5.701   6.417  10.264 -0.7811  0.4184  0.0970
  139SAPE   HN215089   5.692   6.422  10.429 -1.0953 -1.1446  2.1423
  139SAPE   HN315090   5.588   6.317  10.336 -0.9563  0.4200 -2.7715
  139SAPE   C1215091   5.548   6.528  10.327  0.7401 -0.3467 -0.0585
  139SAPE  H12A15092   5.464   6.510  10.257  2.3829  0.4483 -2.3758
  139SAPE  H12B15093   5.624   6.599  10.286  1.7346 -2.5432 -2.2156
  139SAPE   C1115094   5.503   6.578  10.459  0.9612 -0.8624 -0.6550
  139SAPE  H11A15095   5.465   6.679  10.430  1.6022 -0.3538  0.2188
  139SAPE  H11B15096   5.575   6.596  10.542 -1.4176  3.4701  0.8135
  139SAPE     P15097   5.250   6.550  10.539 -0.4326 -0.3976  0.2115
  139SAPE   O1315098   5.189   6.495  10.660 -0.4044 -0.2371 -0.0478
  139SAPE   O1415099   5.244   6.696  10.519 -0.0640  0.2689 -0.6072
  139SAPE   O1215100   5.395   6.501  10.522 -0.6479 -0.0313  0.9911
  139SAPE   O1115101   5.178   6.486  10.414  0.5766  0.4589 -0.3130
  139SAPE    C115102   5.188   6.343  10.387  0.1433  0.3146  0.0587
  139SAPE    HA15103   5.296   6.319  10.381 -0.0240 -0.5137  0.2697
  139SAPE    HB15104   5.144   6.292  10.475 -1.9275  2.2650  0.2408
  139SAPE    C215105   5.126   6.310  10.250  0.3073 -0.0066 -0.1747
  139SAPE    HS15106   5.163   6.210  10.217  0.3913 -0.1906  0.4659
  139SAPE   O2115107   5.157   6.407  10.152 -0.6696 -0.2214 -0.4061
  139SAPE   C2115108   5.272   6.384  10.089 -0.2200  0.5482  0.1122
  139SAPE   O2215109   5.356   6.299  10.122  0.4123  0.1036  0.1146
  139SAPE   C2215110   5.291   6.493   9.980  0.2626 -0.4836  0.0178
  139SAPE   H2R15111   5.254   6.453   9.883  1.3265  1.6475 -1.3562
  139SAPE   H2S15112   5.251   6.592  10.012 -4.4444 -1.5821 -1.6554
  139SAPE    C315113   4.977   6.307  10.256  0.7282  0.0707 -0.0542
  139SAPE    HX15114   4.936   6.404  10.292  0.6961  0.0611 -0.0647
  139SAPE    HY15115   4.950   6.230  10.332 -1.3611  0.7225 -0.0556
  139SAPE   O3115116   4.916   6.263  10.130  0.4420  1.0228  0.5036
  139SAPE   C3115117   4.850   6.364  10.066 -0.1665  0.1880  0.3281
  139SAPE   O3215118   4.839   6.477  10.097 -0.4902 -0.2281  0.7039
  139SAPE   C3215119   4.792   6.310   9.938  0.4905 -0.8439 -0.2667
  139SAPE   H2X15120   4.687   6.291   9.968  0.8510  0.5627  2.1520
  139SAPE   H2Y15121   4.830   6.213   9.900 -0.3417 -0.5548 -1.9499
  139SAPE   C2315122   5.443   6.519   9.949 -0.2434  0.0405  0.1468
  139SAPE   H3R15123   5.493   6.544  10.045 -1.1120  0.9530  0.3692
  139SAPE   H3S15124   5.437   6.613   9.890  0.7089  0.9920  1.5121
  139SAPE   C2415125   5.514   6.420   9.857  0.1706 -0.2957 -0.1229
  139SAPE   H4R15126   5.457   6.410   9.762  3.0527 -1.4546 -1.8724
  139SAPE   H4S15127   5.517   6.315   9.895  1.4678 -0.5533 -0.8671
  139SAPE   C2515128   5.652   6.462   9.814  1.1482  0.1619 -0.5298
  139SAPE   H5R15129   5.716   6.495   9.898 -0.5384 -0.6817  1.1753
  139SAPE   C2615130   5.701   6.454   9.690  0.2615  0.2078  0.4587
  139SAPE   H6R15131   5.805   6.486   9.672  0.6754 -0.6260  1.3118
  139SAPE   C2715132   5.634   6.404   9.563 -0.8493 -0.1949 -0.5658
  139SAPE   H7R15133   5.533   6.361   9.583 -1.4568  2.3682  2.6938
  139SAPE   H7S15134   5.689   6.321   9.514 -2.0630 -0.5786 -1.3319
  139SAPE   C2815135   5.624   6.512   9.455 -0.3706  0.0764 -0.4814
  139SAPE   H8R15136   5.698   6.514   9.375 -1.1557 -1.8669 -1.3310
  139SAPE   C2915137   5.530   6.602   9.427  0.5219 -0.4475 -0.5118
  139SAPE   H9R15138   5.536   6.667   9.339 -1.1586 -0.4524 -0.6516
  139SAPE  C21015139   5.407   6.638   9.504  0.0839  0.1448  0.2093
  139SAPE  H10R15140   5.353   6.543   9.524  0.0415 -0.1014 -1.0091
  139SAPE  H10S15141   5.338   6.697   9.440  0.8275  0.3279 -0.4301
  139SAPE  C21115142   5.435   6.711   9.628  0.6742  0.3230  0.0202
  139SAPE  H11R15143   5.512   6.666   9.692  0.0904 -1.6597 -0.6030
  139SAPE  C21215144   5.385   6.825   9.673 -0.7564  0.0788 -0.0509
  139SAPE  H12R15145   5.422   6.854   9.772  0.4743 -1.4148 -0.0415
  139SAPE  C21315146   5.280   6.916   9.607  0.2297  0.6822  0.2904
  139SAPE  H13R15147   5.182   6.902   9.657 -0.2222  0.3742 -0.6552
  139SAPE  H13S15148   5.274   6.898   9.498  1.9597  2.5101 -0.1666
  139SAPE  C21415149   5.320   7.063   9.620 -0.3900 -0.1314 -0.6212
  139SAPE  H14R15150   5.319   7.097   9.724  0.5453 -3.6878  0.7053
  139SAPE  C21515151   5.347   7.140   9.516  0.0868  0.0154 -0.3318
  139SAPE  H15R15152   5.379   7.242   9.542  0.7957 -0.1003 -0.7323
  139SAPE  C21615153   5.344   7.106   9.363 -0.0715 -0.6640  0.3080
  139SAPE  H16R15154   5.282   7.182   9.311  0.9728 -0.6516 -0.9858
  139SAPE  H16S15155   5.288   7.012   9.346 -1.6935  0.1222  1.1130
  139SAPE  C21715156   5.490   7.092   9.307 -0.3387 -0.3620 -0.3057
  139SAPE  H17R15157   5.546   7.026   9.377  0.3627  1.0057  0.4634
  139SAPE  H17S15158   5.534   7.194   9.306 -1.1863  0.0365  0.8434
  139SAPE  C21815159   5.504   7.051   9.156  0.0747 -0.1806 -0.0862
  139SAPE  H18R15160   5.610   7.070   9.128 -0.4744 -0.1369 -2.2690
  139SAPE  H18S15161   5.437   7.113   9.093  0.6432  0.4077 -0.1247
  139SAPE  C21915162   5.479   6.903   9.140  0.2772  0.0807 -0.1800
  139SAPE  H19R15163   5.373   6.894   9.171  0.5508 -1.1995  0.4419
  139SAPE  H19S15164   5.541   6.840   9.207  1.9821 -0.1269 -1.8377
  139SAPE  C22015165   5.492   6.869   8.991 -0.3160 -0.0551 -0.0883
  139SAPE  H20R15166   5.595   6.872   8.951 -0.1299 -0.2175  0.3792
  139SAPE  H20S15167   5.441   6.946   8.929  1.9881  1.2750 -0.4331
  139SAPE  H20T15168   5.438   6.772   8.980 -2.7200  1.3055 -1.3174
  139SAPE   C3315169   4.800   6.421   9.825 -0.0259 -0.2111  0.2313
  139SAPE   H3X15170   4.749   6.507   9.872 -1.4112 -0.9155  0.0525
  139SAPE   H3Y15171   4.745   6.371   9.742  1.7373 -1.6196 -0.1699
  139SAPE   C3415172   4.934   6.472   9.777 -0.5758 -0.6293 -0.2555
  139SAPE   H4X15173   4.994   6.382   9.753  0.1898  0.3149 -2.0371
  139SAPE   H4Y15174   4.991   6.527   9.855  0.9234 -0.8556 -1.1617
  139SAPE   C3515175   4.911   6.554   9.658  0.3090 -0.1965 -0.8074
  139SAPE   H5X15176   4.818   6.614   9.658  1.1546  1.2133 -2.6456
  139SAPE   H5Y15177   4.900   6.469   9.587 -0.1326 -2.4547  1.8126
  139SAPE   C3615178   5.026   6.639   9.613 -0.1757  0.1915  0.0271
  139SAPE   H6X15179   5.107   6.565   9.591 -1.1159 -0.8867  0.0673
  139SAPE   H6Y15180   5.068   6.699   9.696  0.5226  0.8418 -0.7815
  139SAPE   C3715181   4.985   6.746   9.499  0.2551  1.0249  0.5772
  139SAPE   H7X15182   5.064   6.824   9.496 -0.1327  1.4162 -2.2705
  139SAPE   H7Y15183   4.891   6.793   9.535 -1.2558 -0.2469 -1.4713
  139SAPE   C3815184   4.960   6.681   9.361 -0.6446 -0.5028  0.1979
  139SAPE   H8X15185   4.868   6.619   9.365 -0.6165 -0.6148 -0.7485
  139SAPE   H8Y15186   5.058   6.638   9.331 -0.0261  1.1277 -0.2064
  139SAPE   C3915187   4.922   6.794   9.259  0.7623 -0.0628 -0.2739
  139SAPE   H9X15188   4.830   6.843   9.298  1.6051  0.7442  0.7098
  139SAPE   H9Y15189   4.906   6.757   9.155  0.8380 -1.6353  0.2394
  139SAPE  C31015190   5.029   6.907   9.245  0.0028 -0.2898 -0.6824
  139SAPE  H10X15191   5.118   6.842   9.229 -1.4728 -2.2866 -1.0578
  139SAPE  H10Y15192   5.046   6.993   9.313 -0.0995  0.2177 -1.2941
  139SAPE  C31115193   5.007   6.977   9.109 -0.0867 -0.6852  0.5515
  139SAPE  H11X15194   4.923   7.048   9.097 -0.4742 -1.5111 -2.9307
  139SAPE  H11Y15195   4.990   6.902   9.028  0.2542  0.9351 -1.0859
  139SAPE  C31215196   5.135   7.041   9.055  0.2449  0.0266  0.7385
  139SAPE  H12X15197   5.205   6.955   9.068 -0.3773 -0.3704  1.5509
  139SAPE  H12Y15198   5.170   7.126   9.117  0.1185  2.0274 -1.7559
  139SAPE  C31315199   5.134   7.088   8.909 -0.1986  0.6337 -0.4517
  139SAPE  H13X15200   5.215   7.161   8.889  1.5524 -0.8111  1.1019
  139SAPE  H13Y15201   5.041   7.148   8.893 -0.4149 -0.0411 -1.9784
  139SAPE  C31415202   5.127   6.977   8.805 -0.3713  0.3831 -0.0226
  139SAPE  H14X15203   5.034   6.917   8.817  0.6906 -1.5632 -0.9484
  139SAPE  H14Y15204   5.212   6.906   8.814 -1.0169 -0.3047  0.8655
  139SAPE  C31515205   5.149   7.044   8.667  0.8891 -0.0786 -0.1834
  139SAPE  H15X15206   5.255   7.077   8.657  1.4411 -2.1851 -2.6040
  139SAPE  H15Y15207   5.079   7.128   8.652 -2.2729 -2.6618 -1.1225
  139SAPE  C31615208   5.129   6.951   8.541  0.2035 -0.4049 -0.0817
  139SAPE  H16X15209   5.190   6.862   8.567  0.2409 -0.0366  1.1433
  139SAPE  H16Y15210   5.021   6.928   8.534  0.3660 -0.8076 -1.6102
  139SAPE  C31715211   5.178   7.010   8.406 -0.5950 -0.5793 -0.2869
  139SAPE  H17X15212   5.288   7.017   8.421 -0.6116 -1.0552  0.0670
  139SAPE  H17Y15213   5.143   7.116   8.406 -2.9462 -1.3217  0.0183
  139SAPE  C31815214   5.148   6.935   8.275  0.7353 -0.6199  0.3897
  139SAPE  H18X15215   5.048   6.964   8.234  0.5409 -2.3059 -0.4307
  139SAPE  H18Y15216   5.163   6.825   8.273  4.2526 -0.2415 -1.3660
  139SAPE  H18Z15217   5.227   6.973   8.207 -0.5168 -0.1510 -0.8711
  140SAPE     N15218   4.286   2.787  10.835  0.1104 -0.3888  0.0687
  140SAPE   HN115219   4.224   2.841  10.772  1.4996  1.7402  0.4387
  140SAPE   HN215220   4.351   2.729  10.778  0.7836 -0.2289  0.6615
  140SAPE   HN315221   4.220   2.720  10.881  0.1782 -1.0569 -0.7610
  140SAPE   C1215222   4.361   2.862  10.938  0.1966  0.3685  0.7328
  140SAPE  H12A15223   4.470   2.844  10.932  0.0175 -0.3068 -0.9753
  140SAPE  H12B15224   4.324   2.833  11.039  0.6730  0.0128  0.8069
  140SAPE   C1115225   4.344   3.015  10.916 -0.3592  0.2414  0.1775
  140SAPE  H11A15226   4.388   3.049  10.820 -1.9587  0.7814 -0.4015
  140SAPE  H11B15227   4.393   3.067  11.002 -1.3981  0.3011  0.7578
  140SAPE     P15228   4.125   3.076  10.792 -0.4809 -0.1288 -0.1179
  140SAPE   O1315229   4.102   2.947  10.721  0.5485  0.1688  0.1375
  140SAPE   O1415230   4.005   3.162  10.821  0.2087 -0.1297  0.2709
  140SAPE   O1215231   4.205   3.047  10.926 -0.2371 -0.3375  0.5883
  140SAPE   O1115232   4.218   3.152  10.696 -0.2825  0.0673 -0.0507
  140SAPE    C115233   4.216   3.293  10.676  0.1987 -0.0194 -0.3159
  140SAPE    HA15234   4.184   3.339  10.772 -0.1172 -0.4946 -0.1857
  140SAPE    HB15235   4.315   3.330  10.641  0.8637 -1.6549 -0.2338
  140SAPE    C215236   4.110   3.336  10.567 -0.2292  0.3277  0.1453
  140SAPE    HS15237   4.008   3.310  10.600 -0.1731 -0.3212 -0.1958
  140SAPE   O2115238   4.144   3.263  10.445  0.2136  0.2453 -0.2720
  140SAPE   C2115239   4.056   3.188  10.388 -0.2254 -0.1992 -0.3590
  140SAPE   O2215240   3.937   3.176  10.426 -0.4182  0.3704  0.1429
  140SAPE   C2215241   4.130   3.093  10.287  0.0407  0.1923 -0.6321
  140SAPE   H2R15242   4.205   3.158  10.237 -0.0544 -0.1579 -1.2372
  140SAPE   H2S15243   4.181   3.007  10.335 -0.5077  0.2102  0.0092
  140SAPE    C315244   4.110   3.493  10.533  0.1316  0.2416 -0.6537
  140SAPE    HX15245   4.106   3.550  10.629 -0.8956 -2.5445  1.0662
  140SAPE    HY15246   4.018   3.513  10.476  0.0323  1.5325 -0.0885
  140SAPE   O3115247   4.218   3.541  10.458 -0.1528 -0.0400  0.5036
  140SAPE   C3115248   4.200   3.544  10.322  0.1385  0.1529 -0.3386
  140SAPE   O3215249   4.096   3.509  10.272  0.0131 -0.7060  0.0043
  140SAPE   C3215250   4.333   3.580  10.249 -0.5577  0.2538  0.0855
  140SAPE   H2X15251   4.401   3.493  10.260 -2.3910 -1.2849 -0.1511
  140SAPE   H2Y15252   4.376   3.678  10.277 -0.4473  0.4156 -0.6213
  140SAPE   C2315253   4.034   3.032  10.181 -0.1056  0.3067 -0.1056
  140SAPE   H3R15254   3.961   2.984  10.250  1.8828 -0.0203  1.9086
  140SAPE   H3S15255   4.085   2.950  10.126  0.4056  0.1774  0.5447
  140SAPE   C2415256   3.974   3.128  10.075  0.2876  0.2427 -0.3869
  140SAPE   H4R15257   3.917   3.206  10.129 -0.3429 -0.9950  0.7850
  140SAPE   H4S15258   3.898   3.059  10.033  3.3353 -2.6938 -1.5812
  140SAPE   C2515259   4.062   3.202   9.970 -0.0089 -0.0808 -0.7872
  140SAPE   H5R15260   4.132   3.275  10.013 -0.1517 -0.6535  0.4329
  140SAPE   C2615261   4.065   3.193   9.837  0.1179  0.4011 -0.2239
  140SAPE   H6R15262   4.134   3.257   9.781  2.0562  1.5767  3.2405
  140SAPE   C2715263   3.970   3.101   9.753 -0.6087  0.3714 -0.1685
  140SAPE   H7R15264   3.868   3.142   9.737 -1.4522 -0.7072  2.0564
  140SAPE   H7S15265   3.945   3.004   9.802 -0.0620 -0.2459 -1.0840
  140SAPE   C2815266   4.044   3.092   9.618  0.0131  0.1340  0.3044
  140SAPE   H8R15267   4.035   3.184   9.559  1.1150 -1.1844 -2.0896
  140SAPE   C2915268   4.127   2.993   9.580  0.3522 -0.5106  0.4565
  140SAPE   H9R15269   4.181   2.996   9.484  1.1379 -0.9892  0.8837
  140SAPE  C21015270   4.152   2.860   9.653  0.5586 -0.7915 -0.6694
  140SAPE  H10R15271   4.123   2.780   9.581  1.4524 -1.0104 -0.7939
  140SAPE  H10S15272   4.092   2.851   9.746 -1.6798 -2.0351 -2.1316
  140SAPE  C21115273   4.303   2.837   9.669  0.4486  0.9285 -0.9152
  140SAPE  H11R15274   4.354   2.812   9.575 -0.9323 -4.0890 -0.5923
  140SAPE  C21215275   4.372   2.855   9.788  0.0303  0.1875  0.3353
  140SAPE  H12R15276   4.482   2.859   9.784  0.1964 -2.6162  0.3030
  140SAPE  C21315277   4.309   2.900   9.921 -0.1563  0.6839 -0.1175
  140SAPE  H13R15278   4.328   2.813   9.987  0.3949  1.1702  0.3670
  140SAPE  H13S15279   4.200   2.921   9.919 -0.2856  0.1781  0.9717
  140SAPE  C21415280   4.377   3.024   9.971 -0.0964  0.0041 -0.0779
  140SAPE  H14R15281   4.332   3.120   9.946 -0.1777  0.4102  1.4885
  140SAPE  C21515282   4.475   3.028  10.064 -0.9973 -0.1995 -0.1588
  140SAPE  H15R15283   4.508   3.125  10.105  0.3037  0.3188 -2.2418
  140SAPE  C21615284   4.540   2.917  10.132 -0.0151 -0.6770 -0.8704
  140SAPE  H16R15285   4.648   2.937  10.119  0.2049  0.3162  1.9546
  140SAPE  H16S15286   4.514   2.823  10.078 -0.5013 -0.3884 -1.1498
  140SAPE  C21715287   4.502   2.908  10.283  0.2199  0.4626  0.1764
  140SAPE  H17R15288   4.530   2.806  10.319 -0.7443 -0.2364 -0.9802
  140SAPE  H17S15289   4.392   2.914  10.300  0.1732 -2.3698  1.4131
  140SAPE  C21815290   4.576   3.017  10.364  0.2523  0.2843  0.0829
  140SAPE  H18R15291   4.541   3.119  10.336 -1.4198 -0.6508 -1.4726
  140SAPE  H18S15292   4.684   3.020  10.341  0.3885 -0.2995  0.6225
  140SAPE  C21915293   4.558   2.988  10.516  0.7383 -0.2000 -0.3820
  140SAPE  H19R15294   4.600   2.887  10.536  1.2862  0.1413  0.2234
  140SAPE  H19S15295   4.448   2.986  10.534  0.6353 -2.6087 -0.9218
  140SAPE  C22015296   4.622   3.082  10.619  0.5004 -0.2417  0.5324
  140SAPE  H20R15297   4.590   3.185  10.596  2.1482 -0.1857 -1.8802
  140SAPE  H20S15298   4.732   3.078  10.611  0.5012  0.2647  0.2608
  140SAPE  H20T15299   4.592   3.050  10.721  1.3957 -0.7035  0.6629
  140SAPE   C3315300   4.314   3.574  10.097  0.4509  0.2637  0.4527
  140SAPE   H3X15301   4.294   3.673  10.051 -1.6076  0.3078  1.3257
  140SAPE   H3Y15302   4.230   3.509  10.065 -0.1370  0.5821  1.3224
  140SAPE   C3415303   4.442   3.527  10.026  0.1979  0.3998  0.4338
  140SAPE   H4X15304   4.476   3.427  10.060  1.1056  0.0289 -1.4585
  140SAPE   H4Y15305   4.521   3.600  10.056 -0.4889  0.8742  1.1347
  140SAPE   C3515306   4.444   3.527   9.873  0.5970 -0.2329 -0.2133
  140SAPE   H5X15307   4.545   3.562   9.842 -0.3785  1.4779 -1.6185
  140SAPE   H5Y15308   4.375   3.597   9.822 -0.6233  0.8117  2.6859
  140SAPE   C3615309   4.412   3.385   9.814 -0.2442 -0.9205  0.0284
  140SAPE   H6X15310   4.304   3.361   9.822 -0.2597 -1.4306 -1.4427
  140SAPE   H6Y15311   4.464   3.307   9.875  2.7386  2.0278  1.5836
  140SAPE   C3715312   4.460   3.366   9.672 -0.0652 -0.5532  0.6259
  140SAPE   H7X15313   4.568   3.393   9.664 -0.3793  0.3969 -0.7145
  140SAPE   H7Y15314   4.404   3.438   9.610 -0.3978  0.8732  2.4934
  140SAPE   C3815315   4.438   3.228   9.612 -0.6267 -0.4467 -0.1463
  140SAPE   H8X15316   4.331   3.201   9.628 -0.7998  0.5625  0.4429
  140SAPE   H8Y15317   4.503   3.161   9.671  1.1368  1.3601  0.0392
  140SAPE   C3915318   4.470   3.223   9.465 -0.3434  0.8218  0.1645
  140SAPE   H9X15319   4.570   3.260   9.433 -0.8960  0.1835 -2.5320
  140SAPE   H9Y15320   4.393   3.286   9.416 -0.4523 -0.5546 -1.4951
  140SAPE  C31015321   4.471   3.074   9.416 -0.1690 -0.1218 -0.1636
  140SAPE  H10X15322   4.380   3.019   9.450 -0.3656 -0.6305 -1.4501
  140SAPE  H10Y15323   4.564   3.020   9.444 -0.3897 -0.6065 -0.3534
  140SAPE  C31115324   4.466   3.087   9.261 -0.2049  0.2047 -0.4487
  140SAPE  H11X15325   4.506   2.987   9.233  2.6961  0.8824  0.9108
  140SAPE  H11Y15326   4.542   3.150   9.210  0.0382  1.9552  1.8960
  140SAPE  C31215327   4.331   3.128   9.199 -0.0336 -0.1467  0.2883
  140SAPE  H12X15328   4.319   3.238   9.205 -1.4943 -0.2204 -0.8634
  140SAPE  H12Y15329   4.249   3.079   9.256 -1.4823  1.2202 -0.5479
  140SAPE  C31315330   4.312   3.088   9.052  0.9380  0.0801  0.7493
  140SAPE  H13X15331   4.219   3.133   9.011  1.4815  1.7710  1.2913
  140SAPE  H13Y15332   4.304   2.977   9.046  2.2638  0.0617 -2.6188
  140SAPE  C31415333   4.432   3.137   8.964  0.0645 -0.0941 -0.1028
  140SAPE  H14X15334   4.510   3.059   8.952 -0.3523 -0.5754  0.2883
  140SAPE  H14Y15335   4.473   3.233   9.003  0.3220 -0.6033  0.8984
  140SAPE  C31515336   4.392   3.155   8.815 -0.7190  0.0475  1.1684
  140SAPE  H15X15337   4.308   3.226   8.796  0.1244  0.5317 -1.0549
  140SAPE  H15Y15338   4.348   3.057   8.786  3.1658 -1.2952 -0.8398
  140SAPE  C31615339   4.514   3.191   8.731 -0.2486  0.2473 -0.8273
  140SAPE  H16X15340   4.584   3.105   8.741  0.9766  1.1822 -1.1551
  140SAPE  H16Y15341   4.568   3.281   8.765  0.6710 -0.3326 -0.7415
  140SAPE  C31715342   4.477   3.224   8.588  0.0660  0.5626 -0.6089
  140SAPE  H17X15343   4.426   3.323   8.586  0.4356  0.7984  0.6094
  140SAPE  H17Y15344   4.408   3.142   8.559  1.6203 -0.4965 -1.4232
  140SAPE  C31815345   4.586   3.238   8.476 -0.5737 -0.8441  0.2779
  140SAPE  H18X15346   4.642   3.143   8.467 -1.0548 -1.0405 -0.7642
  140SAPE  H18Y15347   4.666   3.309   8.505 -0.2919 -0.5983 -1.0501
  140SAPE  H18Z15348   4.533   3.264   8.382  1.6326  0.9890 -0.5494
  141SAPE     N15349   6.175   6.483  10.456 -0.1148 -0.5109 -0.2716
  141SAPE   HN115350   6.116   6.431  10.524 -0.8332  0.3405 -0.2269
  141SAPE   HN215351   6.136   6.578  10.443  1.4327  0.0163 -1.2944
  141SAPE   HN315352   6.162   6.445  10.360 -0.1135  2.7937 -1.6961
  141SAPE   C1215353   6.319   6.471  10.505  0.2302  0.5114 -0.7103
  141SAPE  H12A15354   6.321   6.530  10.599  0.3760  3.2588 -2.3289
  141SAPE  H12B15355   6.390   6.515  10.431  1.1251 -1.1432 -0.8691
  141SAPE   C1115356   6.354   6.326  10.546  0.2579  0.3867  0.1988
  141SAPE  H11A15357   6.444   6.342  10.609 -1.4958  0.4400  2.8026
  141SAPE  H11B15358   6.369   6.259  10.458 -1.4578 -0.1333  0.2625
  141SAPE     P15359   6.291   6.151  10.725 -0.2164  0.2749  0.1982
  141SAPE   O1315360   6.379   6.210  10.823  0.0290 -0.0647 -0.3036
  141SAPE   O1415361   6.165   6.099  10.776 -0.1459 -0.5612 -0.3328
  141SAPE   O1215362   6.247   6.265  10.628 -0.6928 -0.7316 -0.1325
  141SAPE   O1115363   6.368   6.042  10.638 -0.4401 -0.0443 -0.2611
  141SAPE    C115364   6.306   5.954  10.534 -1.0841 -0.2503 -0.9752
  141SAPE    HA15365   6.199   5.986  10.536 -0.8335  0.5944 -0.7584
  141SAPE    HB15366   6.356   5.980  10.439  0.7028  0.6087  0.1448
  141SAPE    C215367   6.325   5.807  10.568 -0.9919  0.0490 -0.3912
  141SAPE    HS15368   6.326   5.790  10.678  0.8414  1.1489 -0.1983
  141SAPE   O2115369   6.464   5.779  10.531  0.2875 -0.5945  0.6047
  141SAPE   C2115370   6.513   5.670  10.572 -0.0972  0.4941  1.0295
  141SAPE   O2215371   6.445   5.582  10.627  0.3244  0.5116  0.0078
  141SAPE   C2215372   6.661   5.671  10.542 -0.2321  0.5002  0.5655
  141SAPE   H2R15373   6.718   5.763  10.568 -0.0310  1.1531 -1.9500
  141SAPE   H2S15374   6.707   5.587  10.599  1.7524  0.0845 -1.4803
  141SAPE    C315375   6.222   5.727  10.494  0.3295  0.1088 -0.4207
  141SAPE    HX15376   6.124   5.750  10.540  0.9249 -2.3912  2.4471
  141SAPE    HY15377   6.237   5.619  10.513 -0.9700  0.5096  3.8730
  141SAPE   O3115378   6.219   5.761  10.356  0.5546  0.1902 -0.0999
  141SAPE   C3115379   6.262   5.667  10.267 -0.7347  0.3907 -0.4444
  141SAPE   O3215380   6.270   5.542  10.295  0.0490  0.1933  0.4486
  141SAPE   C3215381   6.312   5.739  10.142  0.5389  0.2490 -0.7344
  141SAPE   H2X15382   6.407   5.795  10.157  1.4211 -0.8726 -1.9567
  141SAPE   H2Y15383   6.231   5.809  10.114  0.3836 -0.1234 -1.2295
  141SAPE   C2315384   6.678   5.649  10.387 -0.2661 -0.7706 -0.8878
  141SAPE   H3R15385   6.786   5.668  10.368  0.2585 -0.7873  1.7305
  141SAPE   H3S15386   6.621   5.722  10.326 -0.7116 -0.3208  0.0499
  141SAPE   C2415387   6.661   5.503  10.329 -0.1554 -0.1145 -0.1036
  141SAPE   H4R15388   6.696   5.504  10.224 -1.9742  1.0072 -0.7457
  141SAPE   H4S15389   6.554   5.483  10.311  0.0842 -2.0757  0.4095
  141SAPE   C2515390   6.723   5.392  10.403  0.4810  0.0919 -0.2823
  141SAPE   H5R15391   6.676   5.379  10.502 -0.1959 -1.5313 -0.7885
  141SAPE   C2615392   6.822   5.318  10.360  0.2476 -0.1068  0.0859
  141SAPE   H6R15393   6.862   5.242  10.430  0.2019  0.0908  0.3266
  141SAPE   C2715394   6.900   5.336  10.232 -0.0276 -0.0646 -0.5447
  141SAPE   H7R15395   7.007   5.325  10.262 -0.1504  0.0052 -0.0779
  141SAPE   H7S15396   6.905   5.439  10.190 -0.9037  0.8826  1.5254
  141SAPE   C2815397   6.847   5.234  10.138 -0.0622 -1.1306 -0.0110
  141SAPE   H8R15398   6.781   5.153  10.174 -1.6827  0.6889  1.3341
  141SAPE   C2915399   6.895   5.227  10.009 -0.7976  0.3842 -0.1821
  141SAPE   H9R15400   6.857   5.160   9.931 -0.2580  0.9386 -0.9338
  141SAPE  C21015401   6.994   5.319   9.944 -0.6741  0.2851  0.2088
  141SAPE  H10R15402   7.056   5.253   9.879 -0.0120  0.6969  0.4141
  141SAPE  H10S15403   7.065   5.384   9.998 -0.1576  1.4808 -1.7945
  141SAPE  C21115404   6.914   5.418   9.865 -0.5063  0.6474  0.6245
  141SAPE  H11R15405   6.857   5.487   9.929 -0.6209  0.3146  0.8834
  141SAPE  C21215406   6.893   5.421   9.730 -0.2371  0.1465 -0.3695
  141SAPE  H12R15407   6.826   5.501   9.695  0.5286  1.6135  1.3412
  141SAPE  C21315408   6.952   5.319   9.631 -0.4639 -0.2880 -0.0160
  141SAPE  H13R15409   7.020   5.253   9.688  0.2399  1.8438  1.7581
  141SAPE  H13S15410   7.010   5.382   9.559  1.2330  0.0581  1.5647
  141SAPE  C21415411   6.852   5.237   9.563 -0.0477  0.0841 -0.5484
  141SAPE  H14R15412   6.780   5.176   9.620 -1.3433  0.7743 -1.3947
  141SAPE  C21515413   6.832   5.231   9.434  0.4677 -0.6132  0.4213
  141SAPE  H15R15414   6.753   5.163   9.399  0.2679 -0.9649  1.5040
  141SAPE  C21615415   6.894   5.304   9.319 -1.1582  0.7147 -0.1581
  141SAPE  H16R15416   6.989   5.248   9.301 -0.0959  2.4580 -0.2474
  141SAPE  H16S15417   6.934   5.403   9.349 -1.0137  0.0406  2.0195
  141SAPE  C21715418   6.799   5.315   9.202 -0.2244  1.1276 -0.1922
  141SAPE  H17R15419   6.713   5.381   9.227 -2.0667 -1.6994  1.6575
  141SAPE  H17S15420   6.759   5.215   9.174 -0.6981  1.0011  0.8917
  141SAPE  C21815421   6.872   5.356   9.073 -0.4923 -0.3211 -0.0787
  141SAPE  H18R15422   6.958   5.288   9.056 -1.6915 -3.1492  3.7730
  141SAPE  H18S15423   6.899   5.461   9.097 -0.0248 -0.8207  1.7315
  141SAPE  C21915424   6.776   5.366   8.947  0.1932  0.0471  0.8472
  141SAPE  H19R15425   6.825   5.445   8.886 -1.2299 -0.5777 -1.2286
  141SAPE  H19S15426   6.687   5.428   8.971  0.8693  1.6876 -0.6298
  141SAPE  C22015427   6.744   5.238   8.867  0.0315  0.0023 -0.1469
  141SAPE  H20R15428   6.667   5.253   8.789  1.9426  2.0992 -1.7487
  141SAPE  H20S15429   6.711   5.158   8.938 -2.3399 -0.5537 -1.7799
  141SAPE  H20T15430   6.839   5.199   8.825  0.8370  1.1017  0.5857
  141SAPE   C3315431   6.328   5.654  10.015  0.0172 -0.2151  0.5901
  141SAPE   H3X15432   6.240   5.670   9.949  1.0301  0.0686 -0.7287
  141SAPE   H3Y15433   6.331   5.546  10.043 -0.9607 -0.1116  1.1573
  141SAPE   C3415434   6.448   5.683   9.917  0.0305 -1.1373 -0.1263
  141SAPE   H4X15435   6.526   5.746   9.965 -1.1266 -0.8085  1.4194
  141SAPE   H4Y15436   6.412   5.745   9.832 -1.9357 -0.7870  0.9075
  141SAPE   C3515437   6.499   5.552   9.873 -0.7766 -0.5844 -0.0301
  141SAPE   H5X15438   6.536   5.492   9.959 -0.2256  1.6770  1.3896
  141SAPE   H5Y15439   6.580   5.575   9.800  0.5990 -0.7899  1.3880
  141SAPE   C3615440   6.413   5.468   9.788  0.1208  0.1445 -0.5012
  141SAPE   H6X15441   6.359   5.529   9.713 -1.1983  1.3256  1.2961
  141SAPE   H6Y15442   6.324   5.416   9.831  1.4120 -1.5957  0.1791
  141SAPE   C3715443   6.481   5.358   9.708  0.4807 -0.1951  0.5746
  141SAPE   H7X15444   6.545   5.292   9.770  1.6114  0.6683  0.3668
  141SAPE   H7Y15445   6.559   5.396   9.638  0.6917 -0.4330  0.6837
  141SAPE   C3815446   6.374   5.268   9.658 -0.1963 -0.4497  0.3805
  141SAPE   H8X15447   6.312   5.334   9.593  1.1034 -0.4009 -0.8568
  141SAPE   H8Y15448   6.314   5.217   9.736  1.0761 -1.5025  0.7054
  141SAPE   C3915449   6.433   5.158   9.566  0.8732  0.1525  0.1666
  141SAPE   H9X15450   6.494   5.091   9.631  0.5640 -0.1298  0.1680
  141SAPE   H9Y15451   6.499   5.210   9.493 -0.1100  0.1485 -0.7550
  141SAPE  C31015452   6.320   5.076   9.492 -0.4386 -0.0747  0.4108
  141SAPE  H10X15453   6.241   5.144   9.454 -2.4015 -0.5491  3.3036
  141SAPE  H10Y15454   6.261   5.020   9.568  1.2264 -1.0225  1.0679
  141SAPE  C31115455   6.366   4.987   9.377  0.3354  0.3020 -0.2094
  141SAPE  H11X15456   6.272   4.951   9.329  0.2100  0.0646  0.2072
  141SAPE  H11Y15457   6.424   4.899   9.413 -2.0385 -1.2321  0.0784
  141SAPE  C31215458   6.444   5.053   9.262 -0.3697  0.3676 -0.1767
  141SAPE  H12X15459   6.480   4.970   9.197  0.0286 -1.3864  2.1504
  141SAPE  H12Y15460   6.535   5.101   9.305 -0.3908  1.4713 -1.2903
  141SAPE  C31315461   6.372   5.169   9.196  0.0177 -0.1129 -0.6689
  141SAPE  H13X15462   6.437   5.234   9.134  1.9932  0.9461  2.2891
  141SAPE  H13Y15463   6.341   5.245   9.272  0.2505 -1.7824  1.1652
  141SAPE  C31415464   6.243   5.135   9.110 -0.1526 -0.1493 -0.4533
  141SAPE  H14X15465   6.182   5.065   9.172  2.2028 -0.4738  1.6675
  141SAPE  H14Y15466   6.274   5.075   9.022 -2.2013  0.0063 -1.3329
  141SAPE  C31515467   6.172   5.263   9.078  0.2094 -0.2720  0.1313
  141SAPE  H15X15468   6.255   5.335   9.060  0.4201 -0.1904  1.3263
  141SAPE  H15Y15469   6.117   5.303   9.166 -1.1597 -1.0576 -0.3368
  141SAPE  C31615470   6.082   5.265   8.951  0.0526  0.9228 -0.1016
  141SAPE  H16X15471   5.995   5.203   8.981  0.5491  0.3093  0.0975
  141SAPE  H16Y15472   6.135   5.226   8.861  2.1294  0.6672  1.1538
  141SAPE  C31715473   6.047   5.404   8.912  0.1976  0.2224  0.1494
  141SAPE  H17X15474   6.145   5.452   8.888  0.0946  0.2843 -0.1426
  141SAPE  H17Y15475   6.011   5.465   8.998 -0.6425 -1.9045  1.4028
  141SAPE  C31815476   5.951   5.429   8.800  0.6757 -0.2115  0.6397
  141SAPE  H18X15477   5.965   5.527   8.750 -0.0588  0.2950  1.4090
  141SAPE  H18Y15478   5.846   5.414   8.832 -1.0786  0.1215 -4.0917
  141SAPE  H18Z15479   5.968   5.359   8.715 -1.3033 -0.6238  0.5355
  142SAPE     N15480   6.823   3.877  11.435  0.3960  0.1934  0.7986
  142SAPE   HN115481   6.836   3.816  11.519 -0.0137 -1.3835 -0.2337
  142SAPE   HN215482   6.731   3.857  11.391  1.4149 -3.5672 -0.0170
  142SAPE   HN315483   6.896   3.844  11.369 -0.9292 -2.3629  0.4535
  142SAPE   C1215484   6.835   4.027  11.465  0.1140 -0.0581  0.3372
  142SAPE  H12A15485   6.932   4.040  11.518 -0.9413 -2.4262  3.1314
  142SAPE  H12B15486   6.747   4.051  11.529 -0.3176  1.0481 -0.6433
  142SAPE   C1115487   6.843   4.125  11.345  0.1079  0.3485 -0.2910
  142SAPE  H11A15488   6.948   4.158  11.330 -0.4758  2.5611  0.1403
  142SAPE  H11B15489   6.792   4.220  11.373  1.3844  0.4110  2.0780
  142SAPE     P15490   6.847   4.017  11.113  0.5620  0.0276  0.5417
  142SAPE   O1315491   6.925   4.128  11.059 -0.2836  0.0797  0.4164
  142SAPE   O1415492   6.924   3.904  11.169 -0.3921  0.1548  0.2657
  142SAPE   O1215493   6.772   4.076  11.235 -0.4328  0.2255 -0.1302
  142SAPE   O1115494   6.743   3.977  11.005 -0.0602  0.0844 -0.6375
  142SAPE    C115495   6.617   4.041  11.004  0.2075  0.4579  0.0204
  142SAPE    HA15496   6.553   3.972  11.063  2.0927 -0.5740  0.9573
  142SAPE    HB15497   6.605   4.136  11.061  0.5603  1.7708 -2.0173
  142SAPE    C215498   6.559   4.075  10.862 -0.1398 -0.0866  0.2604
  142SAPE    HS15499   6.448   4.089  10.862  0.0450  1.5873  0.5631
  142SAPE   O2115500   6.598   3.977  10.762 -0.0643  0.0769  0.0357
  142SAPE   C2115501   6.531   3.865  10.763 -0.6952 -0.4694  0.1865
  142SAPE   O2215502   6.444   3.825  10.839 -0.1024  0.5270  0.0843
  142SAPE   C2215503   6.588   3.789  10.642  0.2883  0.2944 -0.4259
  142SAPE   H2R15504   6.687   3.830  10.614 -0.0239  2.5057  1.3813
  142SAPE   H2S15505   6.621   3.694  10.688 -0.2097  1.1061  1.7588
  142SAPE    C315506   6.612   4.212  10.807 -0.6950  0.4023  0.0018
  142SAPE    HX15507   6.723   4.205  10.814 -0.6708  0.7913  0.0277
  142SAPE    HY15508   6.566   4.286  10.876 -1.7005 -0.1399 -0.0732
  142SAPE   O3115509   6.553   4.236  10.674  0.5581 -0.1822 -0.1432
  142SAPE   C3115510   6.629   4.240  10.571 -0.6583 -0.7706  0.0483
  142SAPE   O3215511   6.751   4.215  10.568 -0.2067 -0.0018  0.1983
  142SAPE   C3215512   6.552   4.275  10.447 -0.3747  0.6229 -1.7086
  142SAPE   H2X15513   6.549   4.386  10.439 -1.4589  0.7157 -0.3508
  142SAPE   H2Y15514   6.450   4.234  10.462 -0.9503  2.1868 -1.2054
  142SAPE   C2315515   6.484   3.767  10.533  0.0206  0.4453  0.3966
  142SAPE   H3R15516   6.467   3.863  10.481  0.0784 -0.3714 -1.1939
  142SAPE   H3S15517   6.389   3.728  10.577 -0.0072 -1.9030 -1.5366
  142SAPE   C2415518   6.533   3.666  10.428  0.3895  0.7212 -0.0608
  142SAPE   H4R15519   6.536   3.563  10.468 -0.0744  0.4150 -0.7935
  142SAPE   H4S15520   6.636   3.677  10.389  0.3705  0.2743 -0.2473
  142SAPE   C2515521   6.431   3.669  10.321  0.9876 -0.5683 -0.0426
  142SAPE   H5R15522   6.327   3.668  10.355  0.8648  0.4536 -0.3515
  142SAPE   C2615523   6.459   3.656  10.193 -0.0240 -0.1966 -0.3461
  142SAPE   H6R15524   6.370   3.653  10.128 -0.0424  1.9799 -0.4822
  142SAPE   C2715525   6.591   3.631  10.126  0.8531 -0.0664 -1.1159
  142SAPE   H7R15526   6.661   3.587  10.201 -0.0646 -2.2582 -1.4904
  142SAPE   H7S15527   6.645   3.726  10.105 -0.7258  0.8585 -1.0723
  142SAPE   C2815528   6.600   3.544   9.999 -0.5036 -0.4851  0.3522
  142SAPE   H8R15529   6.615   3.436  10.013  0.7131 -0.3822 -0.0016
  142SAPE   C2915530   6.598   3.594   9.873 -0.2967 -0.0795 -0.4114
  142SAPE   H9R15531   6.616   3.531   9.784  1.8521  1.0662 -0.8767
  142SAPE  C21015532   6.574   3.736   9.835  0.0274  0.5817  0.5067
  142SAPE  H10R15533   6.671   3.779   9.802  0.1123  0.3128  0.3978
  142SAPE  H10S15534   6.537   3.795   9.921  2.4546  0.2498  1.8709
  142SAPE  C21115535   6.467   3.754   9.730  0.2595  0.0448 -0.1806
  142SAPE  H11R15536   6.364   3.759   9.767  0.2877  1.2528 -0.2340
  142SAPE  C21215537   6.483   3.786   9.598 -0.3688  0.2324 -0.3818
  142SAPE  H12R15538   6.392   3.805   9.539 -1.9346  0.6749  2.0427
  142SAPE  C21315539   6.618   3.795   9.519 -0.1920  0.1748  0.0855
  142SAPE  H13R15540   6.669   3.886   9.556 -2.4670  2.0073 -1.0168
  142SAPE  H13S15541   6.587   3.827   9.417  0.4433 -0.2996 -0.2629
  142SAPE  C21415542   6.708   3.676   9.491 -0.6594 -0.9435  0.1598
  142SAPE  H14R15543   6.651   3.588   9.458 -0.8143 -1.1015  0.8486
  142SAPE  C21515544   6.839   3.679   9.517 -0.2173 -0.0731  0.0011
  142SAPE  H15R15545   6.892   3.584   9.497  0.6761  0.3019  0.5476
  142SAPE  C21615546   6.922   3.785   9.570 -0.2758 -0.0589  0.7062
  142SAPE  H16R15547   6.864   3.874   9.603  2.6290  2.6333 -0.8169
  142SAPE  H16S15548   6.989   3.813   9.486 -0.0787 -1.4326  0.3882
  142SAPE  C21715549   7.011   3.743   9.687  0.0341 -0.5463  0.0251
  142SAPE  H17R15550   7.071   3.665   9.637 -0.1966  0.3639 -1.7478
  142SAPE  H17S15551   6.962   3.691   9.772  0.8834 -1.0715  0.1954
  142SAPE  C21815552   7.114   3.845   9.732  0.0871 -0.3132 -0.0815
  142SAPE  H18R15553   7.180   3.890   9.656 -1.0154  0.0111 -0.8703
  142SAPE  H18S15554   7.176   3.803   9.813 -2.8048 -0.7783  2.0743
  142SAPE  C21915555   7.049   3.968   9.800 -0.2234  0.6453 -0.7661
  142SAPE  H19R15556   6.981   3.926   9.878 -0.6872  0.6274 -1.1714
  142SAPE  H19S15557   6.989   4.034   9.734 -0.6872  1.2871  0.2734
  142SAPE  C22015558   7.155   4.061   9.865  0.6538  1.0132 -0.4950
  142SAPE  H20R15559   7.230   4.001   9.921  2.0647  0.9245 -2.3890
  142SAPE  H20S15560   7.106   4.142   9.922 -0.7103  0.2332 -0.5138
  142SAPE  H20T15561   7.212   4.113   9.785  1.1969  0.9948 -0.1227
  142SAPE   C3315562   6.629   4.221  10.322  0.4400 -0.4878 -0.2927
  142SAPE   H3X15563   6.620   4.111  10.317  1.8877 -0.5874 -1.3367
  142SAPE   H3Y15564   6.735   4.253  10.319  0.3586 -0.0178  1.0020
  142SAPE   C3415565   6.569   4.271  10.187  0.1314  0.2795 -0.5179
  142SAPE   H4X15566   6.546   4.376  10.217 -0.3135 -0.5035  2.1239
  142SAPE   H4Y15567   6.468   4.234  10.163  1.0534 -1.5630 -1.7572
  142SAPE   C3515568   6.656   4.272  10.062 -0.1507 -0.0095 -0.4585
  142SAPE   H5X15569   6.762   4.260  10.093 -0.5795  0.0340  1.1455
  142SAPE   H5Y15570   6.656   4.373  10.018 -3.4646  0.5158  0.5017
  142SAPE   C3615571   6.617   4.181   9.943 -0.2305  0.4481 -0.3616
  142SAPE   H6X15572   6.514   4.195   9.906 -0.7253  1.1935  1.2261
  142SAPE   H6Y15573   6.626   4.078   9.981  0.9547  0.4670 -0.5305
  142SAPE   C3715574   6.722   4.192   9.828  0.4711 -0.9875 -0.0614
  142SAPE   H7X15575   6.715   4.107   9.756 -0.4786 -2.5266  1.7648
  142SAPE   H7Y15576   6.817   4.187   9.884 -0.5012 -0.9042  1.6582
  142SAPE   C3815577   6.722   4.318   9.738 -0.6450 -0.0215  0.4316
  142SAPE   H8X15578   6.725   4.402   9.810  1.8297 -0.2817  0.7260
  142SAPE   H8Y15579   6.632   4.325   9.673 -0.5470  0.0775  0.3079
  142SAPE   C3915580   6.851   4.321   9.649 -0.0962  0.2285  0.4107
  142SAPE   H9X15581   6.933   4.284   9.714 -0.4726 -0.2498  0.6168
  142SAPE   H9Y15582   6.869   4.428   9.624  1.0528 -0.6857 -3.2897
  142SAPE  C31015583   6.840   4.227   9.525  0.2694  0.1351 -0.3362
  142SAPE  H10X15584   6.739   4.193   9.493  1.0675  0.2543 -3.2465
  142SAPE  H10Y15585   6.902   4.139   9.549  0.7130  0.9930  1.8648
  142SAPE  C31115586   6.911   4.291   9.394  0.1366 -0.2726 -0.2952
  142SAPE  H11X15587   6.950   4.202   9.341  0.6818  0.0557 -0.4451
  142SAPE  H11Y15588   7.000   4.343   9.434 -1.1353  0.5637  1.6282
  142SAPE  C31215589   6.825   4.380   9.308 -0.4282 -0.0884  0.0949
  142SAPE  H12X15590   6.887   4.423   9.226 -0.6842 -0.8859 -0.5365
  142SAPE  H12Y15591   6.761   4.456   9.356 -0.3680 -0.3619  0.6221
  142SAPE  C31315592   6.730   4.293   9.216 -0.2668  0.1902  0.6121
  142SAPE  H13X15593   6.651   4.252   9.283 -0.4083 -0.3879  0.0978
  142SAPE  H13Y15594   6.795   4.219   9.165 -0.7109 -0.3059  0.7443
  142SAPE  C31415595   6.665   4.377   9.104 -0.6127 -0.3682 -0.4254
  142SAPE  H14X15596   6.733   4.432   9.035  1.6370 -1.1588  1.0557
  142SAPE  H14Y15597   6.611   4.450   9.167 -1.6050 -0.2356 -1.4085
  142SAPE  C31515598   6.560   4.302   9.022  0.9513  0.4918 -0.2674
  142SAPE  H15X15599   6.490   4.380   8.983  2.0452  1.3863 -0.4883
  142SAPE  H15Y15600   6.499   4.228   9.077 -0.7722 -1.8325 -4.7350
  142SAPE  C31615601   6.624   4.227   8.912 -0.0304 -0.2517  0.2870
  142SAPE  H16X15602   6.658   4.135   8.965  0.0819 -0.2985  0.1349
  142SAPE  H16Y15603   6.715   4.283   8.881  0.3565 -1.7772 -1.4939
  142SAPE  C31715604   6.536   4.190   8.790 -0.3393 -0.1501  0.3716
  142SAPE  H17X15605   6.506   4.277   8.727  1.9524 -0.6038 -1.4944
  142SAPE  H17Y15606   6.447   4.135   8.826  0.9246 -3.3247 -1.0061
  142SAPE  C31815607   6.613   4.082   8.705 -0.0502 -0.7649 -0.8705
  142SAPE  H18X15608   6.647   4.002   8.775 -1.6663 -0.0041  0.9089
  142SAPE  H18Y15609   6.707   4.121   8.661  0.9695 -2.9143 -0.7381
  142SAPE  H18Z15610   6.550   4.031   8.629 -1.9526  1.2611 -0.7487
  143SAPE     N15611   0.240   4.296  10.893 -0.1252 -0.2242 -0.3086
  143SAPE   HN115612   0.321   4.232  10.904  1.2689  1.5555  0.4010
  143SAPE   HN215613   0.274   4.386  10.934 -2.3227 -0.1685  1.5854
  143SAPE   HN315614   0.159   4.261  10.947  1.0437 -4.7580 -1.1301
  143SAPE   C1215615   0.199   4.297  10.752  0.3662  0.2142  0.0065
  143SAPE  H12A15616   0.286   4.339  10.699  0.7952 -1.0928 -0.3612
  143SAPE  H12B15617   0.103   4.351  10.734 -0.0087 -0.2124  0.6743
  143SAPE   C1115618   0.180   4.150  10.701  0.2201 -0.0054  0.2283
  143SAPE  H11A15619   0.132   4.160  10.601 -1.3940  1.0508  1.0691
  143SAPE  H11B15620   0.097   4.099  10.755 -2.4637  2.7684 -1.0227
  143SAPE     P15621   0.373   4.000  10.805  0.1497  0.0954  0.0230
  143SAPE   O1315622   0.409   4.087  10.921 -0.0189 -0.3016 -0.1904
  143SAPE   O1415623   0.273   3.893  10.833 -0.0814  0.0280  0.0367
  143SAPE   O1215624   0.310   4.091  10.693  0.1540  0.0030 -0.7603
  143SAPE   O1115625   0.497   3.941  10.732 -0.1291 -0.5579  0.0478
  143SAPE    C115626   0.496   3.832  10.646 -0.6590 -0.5868  0.0465
  143SAPE    HA15627   0.592   3.778  10.661 -1.0520 -0.7445  2.3236
  143SAPE    HB15628   0.427   3.752  10.680  0.2116 -1.0838  0.7045
  143SAPE    C215629   0.480   3.871  10.492  0.1040 -0.0291  0.1836
  143SAPE    HS15630   0.538   3.964  10.475  0.4738 -0.4009 -0.5988
  143SAPE   O2115631   0.345   3.890  10.467  0.6328  0.9262 -0.1443
  143SAPE   C2115632   0.307   3.983  10.378 -0.1619  0.9380 -1.2173
  143SAPE   O2215633   0.376   4.062  10.325  0.2317  0.1209  0.6098
  143SAPE   C2215634   0.158   3.966  10.363 -0.4940 -0.1892  0.0079
  143SAPE   H2R15635   0.118   3.893  10.437 -1.0046  1.6131  1.5963
  143SAPE   H2S15636   0.106   4.059  10.393 -1.6996 -0.1516 -2.0321
  143SAPE    C315637   0.527   3.751  10.394 -0.3263 -0.0191 -0.1310
  143SAPE    HX15638   0.463   3.661  10.398  0.6639 -0.6863  1.9728
  143SAPE    HY15639   0.624   3.720  10.438 -0.4400 -0.1528  0.0263
  143SAPE   O3115640   0.544   3.797  10.258  0.7097 -0.0808  0.2029
  143SAPE   C3115641   0.649   3.871  10.227 -0.4907  0.6611 -0.5975
  143SAPE   O3215642   0.751   3.883  10.298  0.2557 -0.1740  0.6442
  143SAPE   C3215643   0.619   3.931  10.089 -0.1824 -0.6829  0.9641
  143SAPE   H2X15644   0.527   3.992  10.107 -0.4490 -0.3604 -1.2640
  143SAPE   H2Y15645   0.599   3.841  10.027  0.7113 -0.8050  0.8426
  143SAPE   C2315646   0.103   3.940  10.219 -1.0894 -0.3161  0.0064
  143SAPE   H3R15647   0.174   3.961  10.136 -0.2918 -2.8863 -0.0631
  143SAPE   H3S15648   0.003   3.986  10.206 -0.0737  1.7867 -0.7109
  143SAPE   C2415649   0.078   3.787  10.187 -0.1140  0.0784 -1.2753
  143SAPE   H4R15650   0.046   3.771  10.082  1.7254 -1.2634 -1.6649
  143SAPE   H4S15651  -0.010   3.771  10.253  0.8643 -1.0432 -0.1965
  143SAPE   C2515652   0.192   3.690  10.200 -0.3403 -0.0812  0.1421
  143SAPE   H5R15653   0.283   3.723  10.251  0.8587 -0.4470 -1.6824
  143SAPE   C2615654   0.214   3.570  10.141  0.1904  0.7047  0.6225
  143SAPE   H6R15655   0.297   3.515  10.186 -1.4356 -1.5401  1.0570
  143SAPE   C2715656   0.116   3.489  10.058 -0.2832  0.6259  0.7049
  143SAPE   H7R15657   0.102   3.549   9.966  0.3370 -1.2289 -0.6569
  143SAPE   H7S15658   0.025   3.488  10.122  1.1843 -3.0540  3.1005
  143SAPE   C2815659   0.160   3.348  10.035 -0.8529  0.0083 -0.0498
  143SAPE   H8R15660   0.149   3.293  10.129 -1.4141 -1.7826 -1.1312
  143SAPE   C2915661   0.196   3.296   9.914  0.4908 -0.2528  0.0132
  143SAPE   H9R15662   0.250   3.202   9.928  1.2212  0.0955 -0.4170
  143SAPE  C21015663   0.204   3.381   9.787  0.4781 -0.3332 -0.1683
  143SAPE  H10R15664   0.291   3.450   9.795 -0.5653  1.2132 -1.4737
  143SAPE  H10S15665   0.113   3.443   9.777 -0.4924 -1.8522 -1.3922
  143SAPE  C21115666   0.211   3.285   9.670  0.3199  0.4509 -0.1229
  143SAPE  H11R15667   0.140   3.200   9.673  0.3317  0.2743 -2.5502
  143SAPE  C21215668   0.287   3.275   9.561  0.9675 -0.4085  0.1975
  143SAPE  H12R15669   0.252   3.200   9.488 -0.8858  1.5036 -0.9813
  143SAPE  C21315670   0.393   3.376   9.513 -0.2187  0.1069  0.0518
  143SAPE  H13R15671   0.496   3.338   9.529 -0.4357 -0.5632 -0.1090
  143SAPE  H13S15672   0.394   3.468   9.575  0.7277 -0.2079  0.5249
  143SAPE  C21415673   0.389   3.408   9.367 -1.0054  0.6366 -0.2856
  143SAPE  H14R15674   0.384   3.325   9.295 -3.0221  0.2540  0.2199
  143SAPE  C21515675   0.410   3.529   9.312  0.3122 -0.2608 -0.1472
  143SAPE  H15R15676   0.425   3.544   9.204  1.3392  2.0770  0.2488
  143SAPE  C21615677   0.423   3.657   9.389 -0.3825 -0.1415 -0.2998
  143SAPE  H16R15678   0.362   3.642   9.480 -0.3656 -1.7749 -0.5148
  143SAPE  H16S15679   0.385   3.742   9.328 -0.0767 -0.7897 -1.4306
  143SAPE  C21715680   0.572   3.697   9.432 -0.9944  0.3829 -0.2915
  143SAPE  H17R15681   0.578   3.808   9.436  1.1913  0.4844 -2.9780
  143SAPE  H17S15682   0.640   3.684   9.345 -0.7594  1.3311 -0.2630
  143SAPE  C21815683   0.630   3.638   9.569  0.5565 -0.4725  0.1446
  143SAPE  H18R15684   0.611   3.528   9.579  1.7408 -0.5341  2.1391
  143SAPE  H18S15685   0.579   3.675   9.660 -3.6033 -1.0972 -1.6633
  143SAPE  C21915686   0.781   3.662   9.583  1.1357  0.8925 -0.4454
  143SAPE  H19R15687   0.836   3.640   9.489  2.3452  1.7921  0.0297
  143SAPE  H19S15688   0.826   3.593   9.658 -0.2703  1.3044  0.8243
  143SAPE  C22015689   0.817   3.806   9.609  0.0872  0.0208 -0.8818
  143SAPE  H20R15690   0.781   3.864   9.522 -0.1269 -1.0161 -1.4962
  143SAPE  H20S15691   0.928   3.812   9.609  0.1094 -0.2484 -1.8179
  143SAPE  H20T15692   0.781   3.834   9.711  0.6932 -1.1564 -0.3212
  143SAPE   C3315693   0.728   4.018  10.042 -0.4044  0.8800 -0.0223
  143SAPE   H3X15694   0.820   3.959  10.022 -1.9482 -1.8436  0.4632
  143SAPE   H3Y15695   0.752   4.093  10.121 -0.8214  0.9104  0.0791
  143SAPE   C3415696   0.699   4.085   9.907  0.2573  0.8267 -0.7126
  143SAPE   H4X15697   0.633   4.174   9.914  1.7744  2.0313 -1.0617
  143SAPE   H4Y15698   0.654   4.005   9.846 -0.9634 -0.9676  2.2889
  143SAPE   C3515699   0.827   4.143   9.836  0.6680  0.2622  1.3708
  143SAPE   H5X15700   0.880   4.055   9.795  1.9963  1.4079  0.5509
  143SAPE   H5Y15701   0.889   4.196   9.912 -0.5929  1.0415  1.9066
  143SAPE   C3615702   0.795   4.234   9.716  1.1243  0.6737 -0.2142
  143SAPE   H6X15703   0.886   4.289   9.685 -0.4867  3.2864 -0.6366
  143SAPE   H6Y15704   0.715   4.308   9.740  1.6554  0.8550  1.0386
  143SAPE   C3715705   0.723   4.153   9.602  0.1413 -0.3909  0.2787
  143SAPE   H7X15706   0.631   4.100   9.638  0.3348  0.2643  1.8446
  143SAPE   H7Y15707   0.801   4.079   9.573  0.0703 -1.3134  2.2640
  143SAPE   C3815708   0.687   4.245   9.478  0.3652  0.4714 -0.0746
  143SAPE   H8X15709   0.778   4.300   9.447  0.0858  2.5166  2.4087
  143SAPE   H8Y15710   0.608   4.319   9.501 -1.2946 -1.4000  0.4709
  143SAPE   C3915711   0.639   4.165   9.366  0.3320 -0.3567 -0.3133
  143SAPE   H9X15712   0.563   4.096   9.409  0.7963 -0.0885  0.9920
  143SAPE   H9Y15713   0.721   4.104   9.322  0.4963 -0.6391  0.3706
  143SAPE  C31015714   0.573   4.259   9.260  0.5110  0.9034 -0.5533
  143SAPE  H10X15715   0.640   4.339   9.224  0.9003 -0.0547 -2.0315
  143SAPE  H10Y15716   0.496   4.313   9.320  0.2342 -0.9197  0.8077
  143SAPE  C31115717   0.508   4.191   9.143  0.1033 -0.6363 -0.0469
  143SAPE  H11X15718   0.429   4.263   9.113  0.4256 -0.1777  0.1970
  143SAPE  H11Y15719   0.459   4.097   9.176  0.2088 -0.3448  0.9694
  143SAPE  C31215720   0.608   4.171   9.027  0.0203 -0.0093 -0.9687
  143SAPE  H12X15721   0.698   4.118   9.065  0.1741  2.0136  1.7572
  143SAPE  H12Y15722   0.624   4.271   8.981 -1.2185  0.2223 -0.9373
  143SAPE  C31315723   0.559   4.086   8.907 -0.2449  0.5527 -0.2990
  143SAPE  H13X15724   0.470   4.138   8.867 -1.6715 -1.1604  0.5051
  143SAPE  H13Y15725   0.527   3.986   8.942 -0.3388  1.6769  3.2946
  143SAPE  C31415726   0.667   4.073   8.797  0.2212 -0.1736 -0.0260
  143SAPE  H14X15727   0.744   4.014   8.850 -0.5791 -1.4498 -0.2639
  143SAPE  H14Y15728   0.702   4.169   8.752  1.6732 -1.2065 -1.1697
  143SAPE  C31515729   0.628   3.984   8.685 -0.3083  0.2393  0.3359
  143SAPE  H15X15730   0.563   4.047   8.620  1.7654  1.4918 -0.6274
  143SAPE  H15Y15731   0.574   3.892   8.717 -0.7275  0.9757  1.8278
  143SAPE  C31615732   0.746   3.945   8.586 -0.4589 -0.1576 -0.6330
  143SAPE  H16X15733   0.817   3.896   8.656 -1.0625 -1.5886 -0.9912
  143SAPE  H16Y15734   0.797   4.037   8.552 -3.0307  1.6473  0.1016
  143SAPE  C31715735   0.703   3.858   8.469  0.1801 -0.1732  1.0386
  143SAPE  H17X15736   0.634   3.918   8.406 -0.5022  0.2895  2.1923
  143SAPE  H17Y15737   0.632   3.781   8.506 -0.0785  0.4322  1.8551
  143SAPE  C31815738   0.806   3.805   8.383 -0.0384 -0.3295  0.5893
  143SAPE  H18X15739   0.763   3.762   8.290 -0.3432  0.3096  0.4311
  143SAPE  H18Y15740   0.869   3.730   8.437 -1.0441 -0.1813  2.0016
  143SAPE  H18Z15741   0.880   3.879   8.345 -0.3924 -0.2162  0.1094
  144SAPE     N15742   2.815   2.274  10.993 -0.1233 -0.2414  0.1803
  144SAPE   HN115743   2.832   2.342  10.916 -2.5302 -0.0055 -0.2029
  144SAPE   HN215744   2.904   2.256  11.045 -0.2296 -0.0441  0.4300
  144SAPE   HN315745   2.798   2.184  10.943  3.7791 -0.1239 -1.7816
  144SAPE   C1215746   2.711   2.295  11.097 -0.4791 -0.2656  0.7048
  144SAPE  H12A15747   2.630   2.352  11.049 -1.4466 -0.6967  1.7778
  144SAPE  H12B15748   2.758   2.348  11.183  1.0394  0.2227 -0.3843
  144SAPE   C1115749   2.655   2.164  11.140  0.0100  0.0502 -0.1880
  144SAPE  H11A15750   2.594   2.184  11.231  2.8881 -1.6380  2.3080
  144SAPE  H11B15751   2.732   2.102  11.189 -1.2352 -0.4302  1.2440
  144SAPE     P15752   2.644   1.981  10.957 -0.1430 -0.0606  0.0604
  144SAPE   O1315753   2.769   2.026  10.893  0.0702 -0.0771  0.3197
  144SAPE   O1415754   2.655   1.874  11.057 -0.2062 -0.1557  0.6536
  144SAPE   O1215755   2.581   2.097  11.033 -0.3848 -0.6230  0.0204
  144SAPE   O1115756   2.536   1.939  10.851 -0.0376 -0.2026 -0.5599
  144SAPE    C115757   2.431   2.021  10.800  0.0134  0.3896  0.3960
  144SAPE    HA15758   2.338   1.988  10.850  1.9864 -2.4240  2.5522
  144SAPE    HB15759   2.454   2.129  10.817 -0.2780  0.4264  0.5647
  144SAPE    C215760   2.416   1.984  10.649  0.1941  0.0490 -0.0232
  144SAPE    HS15761   2.468   1.886  10.636  0.4883  0.1602  0.3068
  144SAPE   O2115762   2.477   2.095  10.586 -0.0494  0.2689 -0.4095
  144SAPE   C2115763   2.551   2.061  10.483 -0.4807 -0.3611 -0.1671
  144SAPE   O2215764   2.567   1.951  10.437  0.1697  0.0514  0.9834
  144SAPE   C2215765   2.618   2.190  10.427  0.7424  0.1337  0.1953
  144SAPE   H2R15766   2.540   2.240  10.366  2.9600  2.9763 -0.5310
  144SAPE   H2S15767   2.641   2.251  10.517 -0.9829  0.7544  0.2632
  144SAPE    C315768   2.270   1.963  10.604 -0.5510  0.0816 -0.6816
  144SAPE    HX15769   2.216   2.056  10.631  1.9313  1.2511  0.5582
  144SAPE    HY15770   2.225   1.889  10.674 -1.2920  1.7176  0.6304
  144SAPE   O3115771   2.264   1.940  10.462  0.5634 -0.1170 -0.6244
  144SAPE   C3115772   2.274   1.805  10.439 -0.0576  0.3922  0.7545
  144SAPE   O3215773   2.323   1.725  10.517  0.1774 -0.2292 -0.0179
  144SAPE   C3215774   2.220   1.775  10.298 -0.0009  0.4323 -0.0799
  144SAPE   H2X15775   2.258   1.862  10.240  0.4818 -0.0241 -0.4610
  144SAPE   H2Y15776   2.109   1.781  10.303 -0.0914  1.5927 -2.1871
  144SAPE   C2315777   2.750   2.176  10.348 -0.0808 -0.2000  0.4377
  144SAPE   H3R15778   2.722   2.097  10.274 -0.1586  1.1877 -1.0776
  144SAPE   H3S15779   2.834   2.144  10.412  0.7205 -0.3540 -0.6654
  144SAPE   C2415780   2.790   2.301  10.271 -0.5682  0.2907 -0.7201
  144SAPE   H4R15781   2.807   2.378  10.349  0.1288 -0.8069  0.2353
  144SAPE   H4S15782   2.715   2.353  10.208 -0.3090 -0.0575 -1.3276
  144SAPE   C2515783   2.922   2.292  10.209  0.2049  0.1510 -0.4405
  144SAPE   H5R15784   3.001   2.250  10.273 -0.7251 -1.3749 -0.2415
  144SAPE   C2615785   2.951   2.319  10.075  0.5472  0.4645 -0.1913
  144SAPE   H6R15786   3.053   2.299  10.041 -0.3090 -3.7589 -0.8013
  144SAPE   C2715787   2.852   2.366   9.963 -0.0565 -0.4600 -0.2470
  144SAPE   H7R15788   2.744   2.377   9.988  0.0039 -0.1494 -0.1160
  144SAPE   H7S15789   2.854   2.281   9.892  0.9335 -0.5240 -0.1616
  144SAPE   C2815790   2.899   2.497   9.897 -0.4505  1.2873 -0.2511
  144SAPE   H8R15791   2.937   2.579   9.961  0.3612  0.2648  0.6096
  144SAPE   C2915792   2.904   2.520   9.766  0.0988  0.0770  0.3063
  144SAPE   H9R15793   2.926   2.618   9.721 -0.1620  0.9198  1.9548
  144SAPE  C21015794   2.854   2.419   9.663 -0.4507  0.3864  0.0534
  144SAPE  H10R15795   2.793   2.469   9.585 -1.5142  0.2804  0.7895
  144SAPE  H10S15796   2.792   2.338   9.705 -0.2759  0.8299  1.2159
  144SAPE  C21115797   2.973   2.363   9.591 -0.2504  0.1892 -0.5802
  144SAPE  H11R15798   3.050   2.319   9.656 -0.2733  0.8517 -0.0909
  144SAPE  C21215799   3.004   2.350   9.458  0.4296 -0.5839 -0.3537
  144SAPE  H12R15800   3.104   2.316   9.428  2.1402  1.2901  2.6948
  144SAPE  C21315801   2.921   2.395   9.346  0.5572  0.3048 -0.1472
  144SAPE  H13R15802   2.817   2.372   9.376  0.8119  0.4145  0.8457
  144SAPE  H13S15803   2.947   2.334   9.257  1.4415 -1.6966  1.3934
  144SAPE  C21415804   2.943   2.542   9.305  0.5366 -0.0437 -0.5585
  144SAPE  H14R15805   2.889   2.618   9.363  1.6095  0.7176 -0.5374
  144SAPE  C21515806   3.020   2.581   9.201  0.2770  0.3183 -0.3259
  144SAPE  H15R15807   3.030   2.690   9.192 -1.9226  0.7568  1.5487
  144SAPE  C21615808   3.084   2.487   9.100 -1.0298  0.6087 -0.8031
  144SAPE  H16R15809   3.023   2.397   9.080 -1.1510  0.2579  0.9713
  144SAPE  H16S15810   3.185   2.445   9.123 -0.7422  1.0055 -1.3163
  144SAPE  C21715811   3.097   2.563   8.961 -0.2896 -0.5495  0.0464
  144SAPE  H17R15812   3.193   2.617   8.976 -0.1185 -0.6978 -0.4976
  144SAPE  H17S15813   3.018   2.640   8.947 -1.2743 -1.6015 -0.3655
  144SAPE  C21815814   3.096   2.471   8.842  0.0090 -0.7566 -0.2142
  144SAPE  H18R15815   3.095   2.519   8.742  0.6149  0.6149  0.4142
  144SAPE  H18S15816   2.996   2.422   8.845 -1.1729  1.2696 -2.8454
  144SAPE  C21915817   3.202   2.360   8.835 -0.1879 -0.5452  0.1441
  144SAPE  H19R15818   3.209   2.306   8.932 -1.2779  0.2822  0.7114
  144SAPE  H19S15819   3.299   2.414   8.821  0.0602 -1.2153 -0.8330
  144SAPE  C22015820   3.179   2.264   8.720 -0.3240 -0.7324 -0.1882
  144SAPE  H20R15821   3.261   2.189   8.725 -0.3546 -0.8463 -1.2929
  144SAPE  H20S15822   3.182   2.313   8.620  2.1266 -2.8026 -1.2298
  144SAPE  H20T15823   3.083   2.209   8.724  0.6848 -2.7843 -2.2308
  144SAPE   C3315824   2.265   1.631  10.250 -0.3736  0.2053  0.9096
  144SAPE   H3X15825   2.214   1.558  10.315 -0.7389 -1.3657 -1.0413
  144SAPE   H3Y15826   2.376   1.625  10.252 -0.0536  2.2899 -2.1256
  144SAPE   C3415827   2.220   1.608  10.105  0.1696  0.1301 -0.2776
  144SAPE   H4X15828   2.109   1.617  10.110  0.0582 -1.3173  0.5140
  144SAPE   H4Y15829   2.245   1.504  10.075  1.8154 -0.3103  2.3140
  144SAPE   C3515830   2.279   1.709  10.006  0.4461 -0.0822  0.0506
  144SAPE   H5X15831   2.385   1.678   9.997  1.6632  2.5969  3.1643
  144SAPE   H5Y15832   2.278   1.814  10.042  0.4781  0.4187 -1.3556
  144SAPE   C3615833   2.220   1.710   9.865  0.9539  0.5289 -0.1489
  144SAPE   H6X15834   2.258   1.788   9.796  3.7114 -1.9764 -1.6670
  144SAPE   H6Y15835   2.110   1.726   9.870  0.6242 -1.6504  1.0220
  144SAPE   C3715836   2.232   1.580   9.785  0.2603  0.3987  0.2809
  144SAPE   H7X15837   2.194   1.495   9.846  2.6144 -1.1752 -0.3206
  144SAPE   H7Y15838   2.337   1.550   9.765  0.0976  0.7431 -1.1902
  144SAPE   C3815839   2.165   1.608   9.642 -0.5591  0.1137  0.1940
  144SAPE   H8X15840   2.095   1.694   9.655 -0.5541  0.0135  0.9377
  144SAPE   H8Y15841   2.119   1.513   9.611  2.2081 -1.0734 -0.5722
  144SAPE   C3915842   2.276   1.644   9.539 -0.6848 -0.5013  0.0015
  144SAPE   H9X15843   2.350   1.713   9.585 -1.2773  2.5391 -3.1459
  144SAPE   H9Y15844   2.237   1.706   9.456  1.5704 -0.5547 -1.1781
  144SAPE  C31015845   2.356   1.521   9.483  0.2019 -0.7930 -0.0010
  144SAPE  H10X15846   2.281   1.441   9.469 -2.9823  1.5418  2.2333
  144SAPE  H10Y15847   2.434   1.493   9.556  0.5046 -0.9849 -0.3938
  144SAPE  C31115848   2.417   1.563   9.345 -0.1565 -0.1617 -0.6661
  144SAPE  H11X15849   2.492   1.645   9.352  0.5118 -0.8872  1.1492
  144SAPE  H11Y15850   2.328   1.603   9.291 -0.8720  1.0531  1.3077
  144SAPE  C31215851   2.478   1.444   9.272  0.3389 -0.0764 -0.2410
  144SAPE  H12X15852   2.402   1.364   9.271 -1.5649  1.4255  3.0882
  144SAPE  H12Y15853   2.562   1.398   9.329 -0.4676 -0.1490  0.9335
  144SAPE  C31315854   2.532   1.472   9.128  0.6065  0.1265 -0.0076
  144SAPE  H13X15855   2.575   1.574   9.120  1.6683 -0.1264  1.9677
  144SAPE  H13Y15856   2.438   1.468   9.067 -1.1983  3.1354  2.2884
  144SAPE  C31415857   2.642   1.377   9.058  0.6594  1.0211 -0.0446
  144SAPE  H14X15858   2.747   1.402   9.085  0.1559  0.6306  2.5090
  144SAPE  H14Y15859   2.616   1.406   8.954  1.4515  0.7987 -0.3154
  144SAPE  C31515860   2.634   1.225   9.076 -0.1903  0.5266 -0.0628
  144SAPE  H15X15861   2.529   1.193   9.062 -0.0644  1.2578 -3.4696
  144SAPE  H15Y15862   2.660   1.192   9.179  2.3065 -0.0361 -0.8011
  144SAPE  C31615863   2.721   1.141   8.983 -0.1401  0.4626 -0.2001
  144SAPE  H16X15864   2.824   1.176   9.006 -0.1665  0.7066 -0.4453
  144SAPE  H16Y15865   2.701   1.167   8.876 -0.7561  1.0153  0.0423
  144SAPE  C31715866   2.718   0.986   8.994 -0.2720 -0.0935 -0.0677
  144SAPE  H17X15867   2.796   0.942   8.927 -0.9731  0.4673 -1.2878
  144SAPE  H17Y15868   2.625   0.938   8.957 -0.3525 -0.0423  0.0710
  144SAPE  C31815869   2.751   0.940   9.138  0.1857  0.5579 -0.1430
  144SAPE  H18X15870   2.745   0.831   9.154  2.1990  0.6057  1.2939
  144SAPE  H18Y15871   2.672   0.986   9.201 -0.1634  0.5172 -0.5458
  144SAPE  H18Z15872   2.853   0.975   9.162  1.4625 -2.3196 -0.9360
  145SAPE     N15873   0.950   2.289  10.836  0.3193  0.5926  0.2534
  145SAPE   HN115874   0.865   2.326  10.789 -0.8193 -2.8169 -0.6063
  145SAPE   HN215875   0.916   2.200  10.877 -0.6931  0.3761 -0.9993
  145SAPE   HN315876   0.976   2.348  10.918 -0.8484  1.6546 -0.0922
  145SAPE   C1215877   1.075   2.258  10.753 -0.2895  0.0590  0.7462
  145SAPE  H12A15878   1.115   2.355  10.717  1.9520 -0.4476  1.7303
  145SAPE  H12B15879   1.048   2.185  10.673 -1.2073  1.2746 -0.0860
  145SAPE   C1115880   1.190   2.199  10.834  0.6749  0.4706 -0.4206
  145SAPE  H11A15881   1.283   2.210  10.775  2.2411 -0.3460  1.7774
  145SAPE  H11B15882   1.163   2.092  10.838 -0.9779  0.8592 -0.3185
  145SAPE     P15883   1.331   2.274  11.056  0.2284 -0.3663 -0.5773
  145SAPE   O1315884   1.338   2.405  11.120  0.0180 -0.0370  0.0142
  145SAPE   O1415885   1.338   2.161  11.146  0.4908 -0.4637 -0.2040
  145SAPE   O1215886   1.206   2.263  10.966 -0.4558  0.0382  0.0299
  145SAPE   O1115887   1.441   2.263  10.945 -0.1053  0.5330  0.4311
  145SAPE    C115888   1.526   2.153  10.918  0.2587 -0.1270 -0.0543
  145SAPE    HA15889   1.587   2.115  11.003 -1.5184 -1.5662  0.6287
  145SAPE    HB15890   1.451   2.073  10.903  1.4669 -1.0525 -1.4715
  145SAPE    C215891   1.622   2.162  10.797 -0.9326  0.2591  0.2580
  145SAPE    HS15892   1.710   2.222  10.830 -0.3342 -1.2130  1.4359
  145SAPE   O2115893   1.553   2.221  10.686 -0.8090 -0.0100 -0.3031
  145SAPE   C2115894   1.562   2.352  10.685  0.8782  0.6956  0.0082
  145SAPE   O2215895   1.613   2.422  10.771  0.1138  0.3746 -1.1771
  145SAPE   C2215896   1.483   2.394  10.552 -0.9754  0.0108  0.0389
  145SAPE   H2R15897   1.570   2.433  10.495  2.0221 -3.3731  1.8623
  145SAPE   H2S15898   1.450   2.305  10.495  0.7666 -0.5156 -0.1921
  145SAPE    C315899   1.679   2.026  10.755 -0.3735 -0.0671  1.2105
  145SAPE    HX15900   1.597   1.952  10.768  1.1523 -1.5663  2.8841
  145SAPE    HY15901   1.760   1.981  10.817  1.8008 -1.3917 -2.3201
  145SAPE   O3115902   1.711   2.030  10.610 -0.0327  0.0962 -0.0115
  145SAPE   C3115903   1.838   2.059  10.583  0.1706 -0.1134 -0.0422
  145SAPE   O3215904   1.915   2.092  10.665 -0.3917  0.0077 -0.5211
  145SAPE   C3215905   1.872   2.008  10.443  0.2786 -0.0382 -0.7801
  145SAPE   H2X15906   1.802   1.923  10.428 -2.7794  2.4922 -1.9430
  145SAPE   H2Y15907   1.981   1.984  10.435  0.9220  2.0289  0.8027
  145SAPE   C2315908   1.361   2.482  10.568  0.3908 -0.7067 -0.1683
  145SAPE   H3R15909   1.387   2.567  10.634 -2.7564 -0.1995  0.5654
  145SAPE   H3S15910   1.285   2.413  10.610  1.1785 -0.9123  0.9542
  145SAPE   C2415911   1.324   2.538  10.429  0.9175  0.9673  0.7728
  145SAPE   H4R15912   1.228   2.593  10.439  0.6046  0.6529 -0.4193
  145SAPE   H4S15913   1.300   2.455  10.360 -0.0466 -0.7814  3.0892
  145SAPE   C2515914   1.416   2.639  10.367 -0.2877 -0.1585  0.5438
  145SAPE   H5R15915   1.494   2.670  10.437 -0.1235  1.1470 -0.1775
  145SAPE   C2615916   1.421   2.670  10.232  0.4420  0.7157 -0.6898
  145SAPE   H6R15917   1.484   2.749  10.190  1.4265  1.3133  1.7623
  145SAPE   C2715918   1.333   2.618  10.125  0.2023  0.0134 -0.2594
  145SAPE   H7R15919   1.279   2.705  10.082 -0.9279  0.0704  1.1993
  145SAPE   H7S15920   1.249   2.562  10.170  0.0791  1.3145  1.2282
  145SAPE   C2815921   1.404   2.547  10.010  0.9573  0.3768 -0.2448
  145SAPE   H8R15922   1.456   2.457  10.047 -0.5556 -0.9947 -1.3347
  145SAPE   C2915923   1.388   2.565   9.879 -0.2664  0.2738  0.1516
  145SAPE   H9R15924   1.443   2.504   9.806  1.7055 -0.3455  2.0203
  145SAPE  C21015925   1.299   2.668   9.809  0.9762  0.7368 -0.0725
  145SAPE  H10R15926   1.302   2.760   9.871 -0.4679  0.1717  0.8903
  145SAPE  H10S15927   1.195   2.629   9.816  1.0768  0.7054  1.6746
  145SAPE  C21115928   1.332   2.705   9.666  0.5192  0.5037 -1.0139
  145SAPE  H11R15929   1.439   2.728   9.655  1.0199  1.1569  3.3715
  145SAPE  C21215930   1.246   2.711   9.565 -0.0722  0.4429  0.5310
  145SAPE  H12R15931   1.288   2.755   9.473  0.6053 -0.7152  0.2650
  145SAPE  C21315932   1.096   2.684   9.564 -0.2551 -0.1286 -0.1096
  145SAPE  H13R15933   1.051   2.666   9.664 -1.2929 -1.4996 -0.8018
  145SAPE  H13S15934   1.081   2.591   9.505  0.9696 -0.6296  0.3161
  145SAPE  C21415935   1.009   2.796   9.505 -0.1537  0.1343  0.1029
  145SAPE  H14R15936   0.955   2.852   9.583 -1.2795  0.1759 -0.6774
  145SAPE  C21515937   0.994   2.834   9.375  0.5185  0.2883 -0.4528
  145SAPE  H15R15938   0.922   2.913   9.348 -2.2174 -2.7295 -2.6773
  145SAPE  C21615939   1.069   2.774   9.258 -0.1606 -0.7869 -0.6256
  145SAPE  H16R15940   1.128   2.687   9.293 -2.3533 -1.2561  2.2575
  145SAPE  H16S15941   1.141   2.854   9.231 -0.9857  0.7630  1.4805
  145SAPE  C21715942   0.969   2.737   9.143  0.6894 -0.1289  0.4148
  145SAPE  H17R15943   0.882   2.684   9.188  1.1153 -0.7498  0.5350
  145SAPE  H17S15944   1.020   2.669   9.071 -0.4069 -1.0751  0.4962
  145SAPE  C21815945   0.907   2.853   9.073 -0.0701  0.1977  0.1883
  145SAPE  H18R15946   0.993   2.918   9.046  1.2394 -0.8583  1.6694
  145SAPE  H18S15947   0.841   2.908   9.143 -2.2762 -0.3186 -1.3801
  145SAPE  C21915948   0.825   2.827   8.952  0.1407  0.0639  0.5567
  145SAPE  H19R15949   0.752   2.743   8.951  1.0664 -0.7747 -1.2460
  145SAPE  H19S15950   0.895   2.817   8.866  0.2259  0.7017  0.5481
  145SAPE  C22015951   0.749   2.954   8.918 -0.0895  0.2689 -0.1689
  145SAPE  H20R15952   0.706   2.943   8.816  0.9320 -2.4053 -0.3918
  145SAPE  H20S15953   0.811   3.045   8.931 -0.4081  0.8182 -2.0876
  145SAPE  H20T15954   0.670   2.955   8.996 -0.7292 -1.5289 -0.7266
  145SAPE   C3315955   1.855   2.122  10.343 -0.9652 -0.4817  0.2474
  145SAPE   H3X15956   1.894   2.217  10.384 -0.0252 -1.0217  0.6339
  145SAPE   H3Y15957   1.748   2.146  10.326 -0.7962  0.4023  0.4014
  145SAPE   C3415958   1.914   2.083  10.207  0.0528 -0.9921  0.4235
  145SAPE   H4X15959   2.017   2.046  10.227  1.0511  0.6291 -1.3384
  145SAPE   H4Y15960   1.918   2.167  10.134  0.0406 -0.8700  0.5608
  145SAPE   C3515961   1.847   1.971  10.136 -0.5023  0.9600  0.0280
  145SAPE   H5X15962   1.736   1.976  10.142 -0.5994 -0.3962 -0.2286
  145SAPE   H5Y15963   1.872   1.873  10.181  0.9212  1.2598 -0.0816
  145SAPE   C3615964   1.883   1.956   9.988  0.7774  0.1103 -0.2563
  145SAPE   H6X15965   1.822   1.866   9.963  1.0118 -0.0858 -0.1281
  145SAPE   H6Y15966   1.989   1.928   9.975  0.5929 -0.5812 -0.3141
  145SAPE   C3715967   1.844   2.073   9.891 -0.5681 -0.5618  0.1420
  145SAPE   H7X15968   1.905   2.165   9.904 -3.4381  1.4962  0.1791
  145SAPE   H7Y15969   1.742   2.106   9.921  0.2279 -0.1730  2.7379
  145SAPE   C3815970   1.822   2.037   9.741 -0.0547 -0.9523 -0.7372
  145SAPE   H8X15971   1.778   2.122   9.686  2.5429  1.0594  0.0657
  145SAPE   H8Y15972   1.756   1.947   9.739  0.0637 -1.2494  2.6991
  145SAPE   C3915973   1.960   1.998   9.688 -0.2548  0.5800  0.3216
  145SAPE   H9X15974   1.995   1.911   9.747  0.5772  1.2425  0.8272
  145SAPE   H9Y15975   2.034   2.079   9.708  0.8447 -0.5642  1.0392
  145SAPE  C31015976   1.953   1.991   9.537  0.2897  0.1191  1.1140
  145SAPE  H10X15977   1.898   2.080   9.500  0.0141 -1.1470 -1.8025
  145SAPE  H10Y15978   1.890   1.905   9.505  0.5238  0.2945  0.1757
  145SAPE  C31115979   2.096   1.984   9.472 -0.0419 -0.1013  0.0011
  145SAPE  H11X15980   2.131   1.888   9.517 -2.0678 -0.4653  0.9208
  145SAPE  H11Y15981   2.161   2.070   9.499 -1.5264  0.8194  0.7852
  145SAPE  C31215982   2.093   1.973   9.326  0.4575 -0.6736  0.1417
  145SAPE  H12X15983   2.053   1.875   9.294 -0.0766 -0.7210  0.9329
  145SAPE  H12Y15984   2.193   1.976   9.278  0.8643  3.3488  0.8587
  145SAPE  C31315985   2.029   2.091   9.247 -0.2154  0.2012 -0.0688
  145SAPE  H13X15986   2.062   2.190   9.285 -1.3446  0.4245  0.3726
  145SAPE  H13Y15987   1.921   2.082   9.273  0.3069 -1.8142  1.7163
  145SAPE  C31415988   2.048   2.091   9.097 -0.3706  0.6076 -0.2182
  145SAPE  H14X15989   2.156   2.076   9.077 -0.0101  0.3553  1.7632
  145SAPE  H14Y15990   2.023   2.192   9.056  0.1931  0.0143 -2.1071
  145SAPE  C31515991   1.952   1.990   9.020 -0.0710  0.0963  0.0471
  145SAPE  H15X15992   1.847   2.000   9.053 -0.7072 -1.0850 -1.5102
  145SAPE  H15Y15993   1.975   1.882   9.031  0.2333  0.1643  0.0841
  145SAPE  C31615994   1.942   2.008   8.871 -0.4352  0.1895 -0.1732
  145SAPE  H16X15995   1.904   2.110   8.847  0.7606  0.3225 -1.6377
  145SAPE  H16Y15996   1.856   1.950   8.831  0.8367 -2.0573  0.2429
  145SAPE  C31715997   2.068   1.994   8.785  0.0672 -0.0389  0.0113
  145SAPE  H17X15998   2.121   1.898   8.803  0.0163 -0.3929 -1.5460
  145SAPE  H17Y15999   2.136   2.074   8.820 -0.7119  0.2684  0.8766
  145SAPE  C31816000   2.041   2.004   8.634 -1.1560  0.3207 -0.1576
  145SAPE  H18X16001   2.133   1.982   8.576  0.2661 -0.0692  2.1487
  145SAPE  H18Y16002   2.008   2.107   8.607 -0.8334  0.0380 -1.7435
  145SAPE  H18Z16003   1.966   1.925   8.613 -1.7217  0.3681  1.5588
  146SAPE     N16004   6.250   2.162  11.088 -0.2178  0.0069  0.0515
  146SAPE   HN116005   6.258   2.171  10.985 -1.5428  2.7278  0.1103
  146SAPE   HN216006   6.345   2.179  11.128 -1.2980  0.6539  2.5413
  146SAPE   HN316007   6.207   2.074  11.122 -1.4902  1.0893  1.3690
  146SAPE   C1216008   6.156   2.264  11.151  0.3596 -0.0125  0.3216
  146SAPE  H12A16009   6.155   2.241  11.259 -1.7394  1.4649  0.6661
  146SAPE  H12B16010   6.060   2.237  11.103  0.6596  0.6693 -0.7204
  146SAPE   C1116011   6.189   2.409  11.130 -0.5924  0.4063  0.0398
  146SAPE  H11A16012   6.291   2.430  11.170 -0.6176 -0.1559  0.4074
  146SAPE  H11B16013   6.116   2.468  11.189 -0.8859 -1.4659  1.6451
  146SAPE     P16014   6.270   2.547  10.929  0.2265  0.1157  0.0435
  146SAPE   O1316015   6.264   2.675  11.007  0.1693  0.0292 -0.3827
  146SAPE   O1416016   6.397   2.480  10.909  0.2377 -0.0881 -0.1425
  146SAPE   O1216017   6.170   2.448  10.991  0.6029  0.4191  0.2304
  146SAPE   O1116018   6.220   2.579  10.783  0.3664  0.2640 -0.0889
  146SAPE    C116019   6.168   2.479  10.687 -0.4433  0.3403 -0.9778
  146SAPE    HA16020   6.247   2.407  10.656  1.7741  2.2424  0.0383
  146SAPE    HB16021   6.104   2.404  10.738  2.2587 -0.5430  1.3984
  146SAPE    C216022   6.097   2.530  10.561  0.4098  0.0435 -0.7280
  146SAPE    HS16023   6.068   2.438  10.506  1.8854 -1.3682  0.7293
  146SAPE   O2116024   6.188   2.605  10.477 -0.2129  0.6492 -0.6810
  146SAPE   C2116025   6.273   2.536  10.408 -0.6069 -0.4111  0.1649
  146SAPE   O2216026   6.286   2.414  10.408 -0.1035 -0.0314 -0.3018
  146SAPE   C2216027   6.352   2.638  10.320  0.2679  0.0158  0.2746
  146SAPE   H2R16028   6.324   2.739  10.356  0.2805  0.1311 -0.0423
  146SAPE   H2S16029   6.460   2.619  10.341 -0.1609 -1.8058  1.0783
  146SAPE    C316030   5.972   2.623  10.601 -0.1182 -0.2894  0.0331
  146SAPE    HX16031   6.015   2.690  10.678 -0.9245  0.5965 -0.2730
  146SAPE    HY16032   5.900   2.560  10.656  0.2365 -1.0657 -0.3684
  146SAPE   O3116033   5.910   2.693  10.488  0.3964 -0.1190  0.0205
  146SAPE   C3116034   5.839   2.800  10.519  0.3121  0.4892  0.6849
  146SAPE   O3216035   5.836   2.858  10.623  0.5281 -0.5189 -0.2906
  146SAPE   C3216036   5.762   2.839  10.394  0.8004  0.0817 -0.5947
  146SAPE   H2X16037   5.691   2.756  10.372 -0.8727  1.5082 -0.7820
  146SAPE   H2Y16038   5.831   2.859  10.309  0.1354  1.1897 -0.8981
  146SAPE   C2316039   6.348   2.620  10.161 -0.1686 -0.8603  0.3817
  146SAPE   H3R16040   6.392   2.522  10.132  1.3939  0.1616 -0.8778
  146SAPE   H3S16041   6.424   2.688  10.117 -1.6081  0.1781 -0.5784
  146SAPE   C2416042   6.205   2.631  10.096  0.9621 -0.1123 -0.2789
  146SAPE   H4R16043   6.146   2.562  10.159 -0.3954  0.9593 -0.3289
  146SAPE   H4S16044   6.214   2.591   9.993  0.0274  0.0403 -0.4292
  146SAPE   C2516045   6.160   2.775  10.104  0.0231 -0.5815 -0.2739
  146SAPE   H5R16046   6.120   2.811  10.200  0.7132  0.8211 -0.4728
  146SAPE   C2616047   6.165   2.864  10.005 -0.0407  0.2388  0.5753
  146SAPE   H6R16048   6.115   2.960  10.021 -2.0803 -0.5616 -0.6884
  146SAPE   C2716049   6.220   2.832   9.862  0.2816  0.0815 -0.2303
  146SAPE   H7R16050   6.136   2.788   9.805  0.5439  1.2729 -1.6003
  146SAPE   H7S16051   6.303   2.760   9.876  1.0813  1.3403  2.0774
  146SAPE   C2816052   6.271   2.955   9.784  0.5898  0.1129 -0.2534
  146SAPE   H8R16053   6.313   3.034   9.848 -0.3346  0.7757 -0.4422
  146SAPE   C2916054   6.254   2.981   9.652 -0.1868 -0.5374 -0.4113
  146SAPE   H9R16055   6.302   3.065   9.598 -0.3282 -0.7556 -0.8858
  146SAPE  C21016056   6.194   2.893   9.548  0.5550  0.2699 -0.0723
  146SAPE  H10R16057   6.088   2.916   9.525  0.0780 -2.4208 -0.9293
  146SAPE  H10S16058   6.194   2.791   9.593  0.8747  0.0455 -0.5718
  146SAPE  C21116059   6.283   2.877   9.428  0.6075  0.8374  0.1256
  146SAPE  H11R16060   6.336   2.781   9.423  1.0429  1.1305 -1.6355
  146SAPE  C21216061   6.301   2.956   9.318  0.0373 -0.0301 -0.5289
  146SAPE  H12R16062   6.371   2.922   9.241  0.0369 -0.3484 -0.3910
  146SAPE  C21316063   6.232   3.085   9.283 -0.0029  0.9929 -0.5241
  146SAPE  H13R16064   6.153   3.127   9.349  0.4508  1.8318 -0.5070
  146SAPE  H13S16065   6.172   3.073   9.191  2.0809 -0.0769 -1.8196
  146SAPE  C21416066   6.337   3.196   9.276 -1.4682 -0.1920  0.0475
  146SAPE  H14R16067   6.404   3.197   9.363  1.1718  0.4876 -1.8863
  146SAPE  C21516068   6.353   3.292   9.189  0.1239 -0.6384  0.6993
  146SAPE  H15R16069   6.432   3.368   9.186  0.0741 -0.6229 -0.5031
  146SAPE  C21616070   6.267   3.323   9.072  0.2365  0.6386 -0.0547
  146SAPE  H16R16071   6.242   3.431   9.068  0.7203  0.7167 -1.0912
  146SAPE  H16S16072   6.175   3.260   9.066 -0.7126  1.4724  3.5075
  146SAPE  C21716073   6.330   3.287   8.932  0.4227 -0.3479 -0.4573
  146SAPE  H17R16074   6.344   3.178   8.916  0.8919 -0.0891 -1.9449
  146SAPE  H17S16075   6.435   3.322   8.919  0.5622 -0.8730 -0.7963
  146SAPE  C21816076   6.262   3.362   8.816  0.8151 -0.1665  0.5941
  146SAPE  H18R16077   6.154   3.334   8.810  0.7918  0.2111 -1.9985
  146SAPE  H18S16078   6.313   3.333   8.722  0.0048 -0.7158  0.3124
  146SAPE  C21916079   6.254   3.515   8.847 -0.5382  0.0465  0.0152
  146SAPE  H19R16080   6.183   3.533   8.930  1.9993 -1.1348  2.5967
  146SAPE  H19S16081   6.198   3.560   8.762  2.1993  1.4427 -1.1874
  146SAPE  C22016082   6.383   3.593   8.878  0.6444 -0.1880 -0.0418
  146SAPE  H20R16083   6.443   3.547   8.959  1.9077 -0.1489 -0.9275
  146SAPE  H20S16084   6.348   3.695   8.906 -0.8608 -0.3069 -1.3805
  146SAPE  H20T16085   6.457   3.588   8.795  1.2493 -2.3854  0.5739
  146SAPE   C3316086   5.687   2.968  10.419  0.8839  0.7913  0.1671
  146SAPE   H3X16087   5.754   3.036  10.476  2.4088  0.3751 -1.0652
  146SAPE   H3Y16088   5.604   2.955  10.491  1.2036  1.9188  0.7654
  146SAPE   C3416089   5.654   3.038  10.284  0.3410 -0.3777 -0.2883
  146SAPE   H4X16090   5.558   3.088  10.309 -0.1494 -2.1790  1.7614
  146SAPE   H4Y16091   5.620   2.975  10.199 -0.8628  1.5154 -1.3013
  146SAPE   C3516092   5.752   3.147  10.243 -0.0729  0.1698 -0.2979
  146SAPE   H5X16093   5.853   3.102  10.252 -0.6481 -1.1582 -0.2519
  146SAPE   H5Y16094   5.742   3.230  10.316  3.6221  0.0009  0.6176
  146SAPE   C3616095   5.733   3.197  10.100 -0.3492 -0.5246  0.4937
  146SAPE   H6X16096   5.793   3.288  10.081  1.9348 -2.1356 -0.4369
  146SAPE   H6Y16097   5.626   3.215  10.075 -0.1071 -2.4114 -2.2928
  146SAPE   C3716098   5.775   3.099   9.989  1.0564 -0.2765 -0.3080
  146SAPE   H7X16099   5.741   2.997  10.017  1.6123  0.5421  4.0845
  146SAPE   H7Y16100   5.885   3.102   9.973  0.7362  0.2414 -2.7833
  146SAPE   C3816101   5.724   3.140   9.848 -0.1002 -0.5349 -0.0446
  146SAPE   H8X16102   5.771   3.237   9.824 -3.1166  0.9140 -0.6405
  146SAPE   H8Y16103   5.615   3.153   9.865 -0.5012 -0.2158 -2.5098
  146SAPE   C3916104   5.762   3.047   9.730 -0.1935  1.1343  0.1254
  146SAPE   H9X16105   5.698   2.956   9.734 -1.7691  2.2704  1.9173
  146SAPE   H9Y16106   5.865   3.005   9.739 -0.4245  0.3131 -0.8432
  146SAPE  C31016107   5.762   3.108   9.592 -0.5119 -0.4839 -0.4093
  146SAPE  H10X16108   5.829   3.197   9.598 -0.9790 -0.1715  0.3798
  146SAPE  H10Y16109   5.667   3.156   9.557 -0.6094  0.4210  1.0378
  146SAPE  C31116110   5.817   3.017   9.473  0.8215 -0.1679 -0.1295
  146SAPE  H11X16111   5.760   2.923   9.488 -0.6793  0.7124 -0.0762
  146SAPE  H11Y16112   5.924   2.994   9.491  0.4886 -3.1857 -1.4026
  146SAPE  C31216113   5.791   3.080   9.327 -0.6682 -0.0667 -0.0922
  146SAPE  H12X16114   5.832   3.183   9.330 -0.0064 -0.2657 -1.6583
  146SAPE  H12Y16115   5.682   3.087   9.311 -0.3557  1.2818 -1.8332
  146SAPE  C31316116   5.857   3.004   9.214 -0.3334  0.6974  0.1816
  146SAPE  H13X16117   5.789   2.918   9.197  0.7954 -0.5064  1.4769
  146SAPE  H13Y16118   5.950   2.957   9.255 -1.6035 -0.1827  2.2597
  146SAPE  C31416119   5.887   3.099   9.090 -0.9935 -0.3698  1.3168
  146SAPE  H14X16120   5.948   3.178   9.138  1.0886 -0.5605 -0.8484
  146SAPE  H14Y16121   5.794   3.149   9.055 -1.5048  0.6546  3.8905
  146SAPE  C31516122   5.947   3.033   8.967  0.2017 -0.9537 -0.0458
  146SAPE  H15X16123   6.053   2.999   8.978  0.5438 -0.4955 -1.5885
  146SAPE  H15Y16124   5.949   3.110   8.886  3.4789 -1.1730 -0.3394
  146SAPE  C31616125   5.869   2.914   8.915  0.0929  0.3313  0.3559
  146SAPE  H16X16126   5.771   2.948   8.875 -0.5691  0.9061  2.3413
  146SAPE  H16Y16127   5.835   2.857   9.004  0.1017  0.8059  0.6663
  146SAPE  C31716128   5.935   2.823   8.821  0.4232  0.4000  0.5017
  146SAPE  H17X16129   5.873   2.733   8.807 -0.5905  1.1067  0.3125
  146SAPE  H17Y16130   6.033   2.793   8.863 -1.0439 -1.9646  2.5129
  146SAPE  C31816131   5.946   2.891   8.683 -0.3254  0.0782 -0.1817
  146SAPE  H18X16132   5.985   2.994   8.695  0.5019 -0.2341 -0.1171
  146SAPE  H18Y16133   5.849   2.907   8.631  0.1368 -0.8501 -1.3995
  146SAPE  H18Z16134   6.014   2.828   8.622  0.5986  0.8008  0.0742
  147SAPE     N16135   3.979   1.993   5.959 -0.0906 -0.5709 -0.0097
  147SAPE   HN116136   4.022   1.984   5.865  1.0308 -1.2842  0.5459
  147SAPE   HN216137   3.878   2.012   5.946  0.2782  0.5114 -1.5486
  147SAPE   HN316138   4.012   2.081   6.002  0.6019  1.2918 -3.9054
  147SAPE   C1216139   4.001   1.879   6.050 -0.1578 -0.1299 -0.3926
  147SAPE  H12A16140   4.107   1.852   6.027  0.2806  0.3272  0.9837
  147SAPE  H12B16141   3.943   1.791   6.016 -0.4332  0.8891 -2.7652
  147SAPE   C1116142   3.974   1.921   6.194  0.4203 -0.1377 -0.2651
  147SAPE  H11A16143   4.035   2.009   6.224 -1.1228  0.7479  0.3808
  147SAPE  H11B16144   4.003   1.841   6.265 -2.2247 -1.5364 -0.6596
  147SAPE     P16145   3.733   1.865   6.273  0.0000 -0.0549 -0.1400
  147SAPE   O1316146   3.629   1.959   6.327  0.7009  0.4408  0.1817
  147SAPE   O1416147   3.697   1.768   6.170  0.0365  0.3802  0.2727
  147SAPE   O1216148   3.838   1.960   6.205 -0.4198 -0.1639  0.4319
  147SAPE   O1116149   3.808   1.794   6.387  0.0546 -0.5498  0.2232
  147SAPE    C116150   3.750   1.696   6.473  0.0960  0.7237  0.1946
  147SAPE    HA16151   3.696   1.617   6.417  3.0297 -2.7420  1.8160
  147SAPE    HB16152   3.829   1.640   6.528  1.1812  3.1487  1.2587
  147SAPE    C216153   3.664   1.765   6.589  0.7558 -0.0976  0.4424
  147SAPE    HS16154   3.595   1.835   6.538 -2.3760 -0.9773  3.1451
  147SAPE   O2116155   3.748   1.839   6.676  0.8585 -0.1052  0.3669
  147SAPE   C2116156   3.712   1.959   6.723  0.5947 -0.0141  0.2035
  147SAPE   O2216157   3.619   2.030   6.687  0.4024 -0.1559 -0.2939
  147SAPE   C2216158   3.806   1.998   6.837 -0.2444 -0.4222 -0.4639
  147SAPE   H2R16159   3.897   1.935   6.825 -0.0384  0.0170 -1.2972
  147SAPE   H2S16160   3.852   2.098   6.823  2.5625 -1.6281 -0.5322
  147SAPE    C316161   3.577   1.669   6.675 -0.3571 -0.1233  0.2662
  147SAPE    HX16162   3.634   1.599   6.740 -0.7707 -0.6353  0.0855
  147SAPE    HY16163   3.516   1.602   6.611  1.6287  1.2576 -3.3606
  147SAPE   O3116164   3.492   1.743   6.767  0.2512 -0.2124  0.7019
  147SAPE   C3116165   3.373   1.789   6.712  0.2958 -0.5419  0.5799
  147SAPE   O3216166   3.332   1.777   6.599 -0.1991 -0.0548  0.1432
  147SAPE   C3216167   3.286   1.858   6.821 -0.0240 -0.2611  0.4386
  147SAPE   H2X16168   3.238   1.949   6.779 -1.2130 -1.7122 -1.5236
  147SAPE   H2Y16169   3.354   1.893   6.902 -2.1777 -0.0603  2.2343
  147SAPE   C2316170   3.729   1.963   6.969  1.0123 -0.2129 -0.8965
  147SAPE   H3R16171   3.797   1.973   7.056  0.7457 -0.4800 -0.6525
  147SAPE   H3S16172   3.698   1.856   6.959  0.1168  0.1868 -2.9572
  147SAPE   C2416173   3.613   2.050   7.010  0.5338 -0.1625  0.0792
  147SAPE   H4R16174   3.566   2.005   7.100 -0.6227  0.1265 -0.3612
  147SAPE   H4S16175   3.542   2.051   6.925 -0.0362 -0.7611  0.5369
  147SAPE   C2516176   3.648   2.193   7.039 -0.1143  0.1590 -0.6044
  147SAPE   H5R16177   3.654   2.254   6.948  1.2486  0.0660 -0.5972
  147SAPE   C2616178   3.679   2.245   7.161 -0.1452 -0.4210 -0.0534
  147SAPE   H6R16179   3.705   2.352   7.163 -0.3791 -0.3770  1.2496
  147SAPE   C2716180   3.680   2.180   7.300  0.1171  0.4193  0.1783
  147SAPE   H7R16181   3.607   2.097   7.295 -2.1829  2.3869 -3.3551
  147SAPE   H7S16182   3.630   2.248   7.372  0.9487 -0.6631  1.8382
  147SAPE   C2816183   3.809   2.120   7.340 -0.0598 -0.7809 -1.1010
  147SAPE   H8R16184   3.850   2.045   7.271  0.9897 -1.5390  0.2812
  147SAPE   C2916185   3.869   2.147   7.462 -0.6331 -0.1329  0.9295
  147SAPE   H9R16186   3.969   2.105   7.479 -1.3085 -2.8043 -1.0949
  147SAPE  C21016187   3.826   2.234   7.581  0.1204 -0.2394 -0.4888
  147SAPE  H10R16188   3.728   2.285   7.569 -1.1427 -2.8433 -2.1560
  147SAPE  H10S16189   3.895   2.312   7.619  1.1287 -1.0186 -0.6667
  147SAPE  C21116190   3.805   2.133   7.695  0.0932 -0.2343 -0.6587
  147SAPE  H11R16191   3.835   2.028   7.691 -1.7487 -0.9316  1.5594
  147SAPE  C21216192   3.746   2.167   7.817 -0.4583 -0.3072 -0.0622
  147SAPE  H12R16193   3.740   2.092   7.897  0.6604 -1.9701 -1.4694
  147SAPE  C21316194   3.691   2.303   7.837  0.6647 -0.2253  0.3115
  147SAPE  H13R16195   3.605   2.300   7.766  0.9594 -0.4851 -0.0358
  147SAPE  H13S16196   3.758   2.383   7.797  1.8368 -2.0733 -1.6472
  147SAPE  C21416197   3.658   2.329   7.983  0.5041  0.5154 -0.8581
  147SAPE  H14R16198   3.751   2.338   8.041 -0.1971  0.2316  0.3452
  147SAPE  C21516199   3.542   2.346   8.050  0.0734 -0.5633  0.0786
  147SAPE  H15R16200   3.558   2.363   8.157 -0.7652 -0.3316  0.1699
  147SAPE  C21616201   3.405   2.356   8.004  0.5043  0.1138  0.8950
  147SAPE  H16R16202   3.383   2.457   7.965 -0.0305  0.6909  2.6146
  147SAPE  H16S16203   3.338   2.357   8.092  0.6774  0.2575  1.0251
  147SAPE  C21716204   3.363   2.241   7.905  0.9374  0.0160 -0.4611
  147SAPE  H17R16205   3.412   2.264   7.808  1.2746 -0.3469 -0.3787
  147SAPE  H17S16206   3.254   2.251   7.888  0.9165 -0.4752 -0.6263
  147SAPE  C21816207   3.397   2.101   7.956 -0.4219 -0.1418 -0.0354
  147SAPE  H18R16208   3.501   2.073   7.983 -1.1588 -4.2296 -0.7557
  147SAPE  H18S16209   3.396   2.041   7.862  2.5843  1.3256 -1.1316
  147SAPE  C21916210   3.299   2.047   8.064  0.3952  0.5832 -0.0669
  147SAPE  H19R16211   3.197   2.043   8.021  0.5138 -0.5039 -0.2761
  147SAPE  H19S16212   3.304   2.126   8.142  1.4820 -0.3068  0.7931
  147SAPE  C22016213   3.336   1.905   8.104 -0.4723 -0.0339  0.2526
  147SAPE  H20R16214   3.435   1.907   8.154 -0.5171 -1.2650  0.4134
  147SAPE  H20S16215   3.352   1.843   8.013  1.1425  0.2391  0.3226
  147SAPE  H20T16216   3.260   1.847   8.160  0.1430 -1.0491  0.0575
  147SAPE   C3316217   3.189   1.764   6.893  0.1045 -0.3045  0.1907
  147SAPE   H3X16218   3.247   1.671   6.915  0.0512 -0.8629 -1.8357
  147SAPE   H3Y16219   3.114   1.734   6.817  1.3491 -2.4556 -0.2772
  147SAPE   C3416220   3.119   1.820   7.019 -0.2175 -0.6979  0.0453
  147SAPE   H4X16221   3.042   1.746   7.051 -1.1932 -0.2965 -1.2784
  147SAPE   H4Y16222   3.069   1.912   6.981  2.6116  0.5238 -0.9460
  147SAPE   C3516223   3.197   1.864   7.140 -0.4892 -0.0641  0.1708
  147SAPE   H5X16224   3.123   1.920   7.202 -0.0960  0.6749 -0.0136
  147SAPE   H5Y16225   3.271   1.935   7.097  1.7268 -1.8681  0.7916
  147SAPE   C3616226   3.276   1.746   7.195  0.8162  0.5366  0.7538
  147SAPE   H6X16227   3.228   1.650   7.171  0.4866  1.4195 -2.5661
  147SAPE   H6Y16228   3.270   1.763   7.305  2.0205  0.8531  0.7915
  147SAPE   C3716229   3.430   1.733   7.172 -1.0104 -0.0454 -0.2011
  147SAPE   H7X16230   3.449   1.774   7.071  0.4359  0.2570  0.1664
  147SAPE   H7Y16231   3.464   1.627   7.173  2.1859  0.8576  0.8802
  147SAPE   C3816232   3.518   1.803   7.277 -0.0516 -0.6683  0.0591
  147SAPE   H8X16233   3.476   1.905   7.291  1.3400  0.2254 -1.9131
  147SAPE   H8Y16234   3.610   1.824   7.219 -0.9244 -1.7081 -1.7961
  147SAPE   C3916235   3.544   1.727   7.407 -0.4734 -0.1397  0.1195
  147SAPE   H9X16236   3.623   1.652   7.390 -0.8705 -0.6015  0.2809
  147SAPE   H9Y16237   3.459   1.663   7.439 -0.7733  0.6796  1.0219
  147SAPE  C31016238   3.570   1.819   7.530 -0.1208 -0.3344 -0.6872
  147SAPE  H10X16239   3.481   1.878   7.561  0.4896  1.5193 -2.2329
  147SAPE  H10Y16240   3.649   1.886   7.491  0.8488  0.3534  2.2286
  147SAPE  C31116241   3.619   1.743   7.651 -0.5300  0.0377  0.3912
  147SAPE  H11X16242   3.663   1.816   7.722  0.7689 -0.8232  0.5093
  147SAPE  H11Y16243   3.704   1.675   7.630  0.1550  0.8531  0.4616
  147SAPE  C31216244   3.511   1.656   7.719  0.1901  0.5319  0.2585
  147SAPE  H12X16245   3.501   1.561   7.661  1.5757  0.1413  0.6168
  147SAPE  H12Y16246   3.417   1.715   7.722 -0.5533 -0.6218  0.5806
  147SAPE  C31316247   3.550   1.616   7.859  0.1717 -0.1682 -0.2207
  147SAPE  H13X16248   3.567   1.706   7.922 -0.4721 -0.9058  1.0609
  147SAPE  H13Y16249   3.651   1.571   7.851  0.4224  0.1585  0.8662
  147SAPE  C31416250   3.451   1.518   7.920  0.3681 -0.6990 -0.1227
  147SAPE  H14X16251   3.433   1.437   7.846  0.4936 -1.3719  0.5707
  147SAPE  H14Y16252   3.358   1.571   7.950  0.8725  0.8730 -1.2247
  147SAPE  C31516253   3.510   1.455   8.040 -0.2785  0.9011  0.6178
  147SAPE  H15X16254   3.610   1.420   8.006 -1.0881  0.2556 -1.2507
  147SAPE  H15Y16255   3.454   1.361   8.058  2.0960 -0.7565 -0.1166
  147SAPE  C31616256   3.512   1.540   8.171  0.2042 -0.7287  0.2729
  147SAPE  H16X16257   3.459   1.635   8.150 -1.9139 -1.4936  1.7311
  147SAPE  H16Y16258   3.615   1.567   8.200 -0.6456  1.5035  1.4203
  147SAPE  C31716259   3.444   1.467   8.295  0.1315  0.2871  0.6861
  147SAPE  H17X16260   3.504   1.373   8.288  0.7611  0.6550  1.0864
  147SAPE  H17Y16261   3.341   1.435   8.268  0.2317  0.8348 -0.3913
  147SAPE  C31816262   3.450   1.527   8.427 -0.0549  0.0753 -0.1814
  147SAPE  H18X16263   3.418   1.459   8.508  1.4424  1.5325  1.7597
  147SAPE  H18Y16264   3.382   1.614   8.437 -0.4113 -0.2806  0.5270
  147SAPE  H18Z16265   3.554   1.560   8.451 -1.2562  3.3632  1.0496
  148SAPE     N16266   2.807   6.282   6.458 -0.0398 -0.0817  0.3767
  148SAPE   HN116267   2.888   6.303   6.396  0.5235 -0.5993  0.9189
  148SAPE   HN216268   2.769   6.371   6.498  0.0530  0.1440 -0.0362
  148SAPE   HN316269   2.840   6.222   6.536  2.2628  0.7899  0.1583
  148SAPE   C1216270   2.687   6.230   6.388  0.3103 -0.6792 -0.2483
  148SAPE  H12A16271   2.652   6.140   6.443  0.8930 -2.4276 -2.6033
  148SAPE  H12B16272   2.726   6.206   6.287 -0.6137  0.6503 -0.9389
  148SAPE   C1116273   2.578   6.336   6.374 -0.1071 -0.1098 -0.3425
  148SAPE  H11A16274   2.497   6.297   6.309 -1.6456  1.0221  0.8190
  148SAPE  H11B16275   2.605   6.437   6.336 -0.3611  0.5664  1.1922
  148SAPE     P16276   2.524   6.483   6.586 -0.1046 -0.0949 -0.0205
  148SAPE   O1316277   2.676   6.507   6.577 -0.0551  0.2922  0.1925
  148SAPE   O1416278   2.438   6.593   6.544  0.1716 -0.3322 -0.0161
  148SAPE   O1216279   2.505   6.349   6.495  0.3600  0.1909 -0.4606
  148SAPE   O1116280   2.475   6.433   6.727 -0.2031  0.0968 -0.1182
  148SAPE    C116281   2.575   6.360   6.806 -0.1617  0.1674  0.0885
  148SAPE    HA16282   2.597   6.265   6.752 -4.0838 -1.2017  0.5630
  148SAPE    HB16283   2.661   6.422   6.838  1.8505 -2.8844  1.0545
  148SAPE    C216284   2.513   6.293   6.934 -0.1832  0.0303 -0.3211
  148SAPE    HS16285   2.447   6.214   6.893 -1.2467 -0.2589  1.7935
  148SAPE   O2116286   2.445   6.389   7.007 -0.4920  0.0257  0.2327
  148SAPE   C2116287   2.366   6.353   7.108  0.3833  0.3619 -1.0246
  148SAPE   O2216288   2.333   6.237   7.132 -0.3864 -0.2743  0.5185
  148SAPE   C2216289   2.350   6.479   7.198 -0.3441  0.0551  0.4081
  148SAPE   H2R16290   2.447   6.533   7.204  0.4875 -1.2668 -0.5449
  148SAPE   H2S16291   2.286   6.544   7.135 -1.1159 -0.5805  0.5186
  148SAPE    C316292   2.621   6.227   7.020 -0.6378 -0.2496  0.1109
  148SAPE    HX16293   2.667   6.155   6.949 -0.1386  0.4047 -0.2438
  148SAPE    HY16294   2.563   6.178   7.101  0.6727 -0.0958  1.1769
  148SAPE   O3116295   2.723   6.323   7.067  0.2661  0.1625 -0.7735
  148SAPE   C3116296   2.846   6.300   7.034 -0.3231 -0.0853 -0.0212
  148SAPE   O3216297   2.891   6.199   6.979 -0.0227 -0.6949 -0.1544
  148SAPE   C3216298   2.942   6.410   7.088  0.0998 -0.3809 -0.1027
  148SAPE   H2X16299   2.893   6.472   7.166 -0.2593  1.5309 -1.7555
  148SAPE   H2Y16300   2.956   6.483   7.006  0.3156  0.5585  0.7449
  148SAPE   C2316301   2.287   6.455   7.335  0.5423  1.2034 -0.3643
  148SAPE   H3R16302   2.187   6.409   7.321  1.3303 -0.9615  0.7709
  148SAPE   H3S16303   2.276   6.553   7.387 -0.6769  0.2692  1.2120
  148SAPE   C2416304   2.383   6.363   7.430 -0.5463  0.3054 -0.0828
  148SAPE   H4R16305   2.387   6.261   7.386  0.1323 -0.2280  1.1463
  148SAPE   H4S16306   2.322   6.366   7.523  1.8007 -2.5999  1.7719
  148SAPE   C2516307   2.519   6.422   7.445  0.4351  0.1479 -0.4869
  148SAPE   H5R16308   2.511   6.527   7.478 -1.2344 -0.1008  0.0094
  148SAPE   C2616309   2.633   6.352   7.432  0.8058  0.5246 -0.0236
  148SAPE   H6R16310   2.729   6.405   7.428  1.9789 -1.5304 -0.6480
  148SAPE   C2716311   2.642   6.204   7.397  0.0336 -0.1383  0.2029
  148SAPE   H7R16312   2.587   6.189   7.301  0.9119 -1.1010 -0.1643
  148SAPE   H7S16313   2.576   6.149   7.467 -1.3112 -0.1977 -1.0581
  148SAPE   C2816314   2.775   6.137   7.391  0.3717 -0.5252  0.2208
  148SAPE   H8R16315   2.818   6.116   7.292  0.9992 -0.0249  0.3835
  148SAPE   C2916316   2.834   6.090   7.497  0.3601  0.7662  0.1784
  148SAPE   H9R16317   2.929   6.039   7.476 -0.5765 -0.2415 -2.0669
  148SAPE  C21016318   2.777   6.085   7.633 -0.9562 -0.4135 -0.1300
  148SAPE  H10R16319   2.690   6.016   7.635  0.0534 -1.7145  1.7925
  148SAPE  H10S16320   2.737   6.188   7.644 -0.5840 -0.4426  1.8415
  148SAPE  C21116321   2.879   6.066   7.752  0.8478 -0.1365 -0.0697
  148SAPE  H11R16322   2.946   6.154   7.750 -3.1642  3.2775  0.6362
  148SAPE  C21216323   2.879   5.984   7.854 -0.2388  0.6042  0.6091
  148SAPE  H12R16324   2.952   5.999   7.935 -0.7507 -0.4095  1.2778
  148SAPE  C21316325   2.778   5.871   7.885  0.4975 -0.4810  0.2498
  148SAPE  H13R16326   2.812   5.775   7.842 -1.4727 -1.2246  0.2723
  148SAPE  H13S16327   2.683   5.885   7.829  2.2941  0.6318 -2.7751
  148SAPE  C21416328   2.752   5.858   8.032  0.1753 -0.3948 -0.0681
  148SAPE  H14R16329   2.662   5.905   8.073 -0.8501 -2.3105 -0.0114
  148SAPE  C21516330   2.839   5.803   8.121 -0.5760  0.2737 -0.4660
  148SAPE  H15R16331   2.806   5.792   8.225 -1.6876  0.5168 -0.7809
  148SAPE  C21616332   2.970   5.733   8.099 -0.3440 -0.4829 -0.2077
  148SAPE  H16R16333   3.048   5.754   8.175  0.4068 -0.8448 -0.8576
  148SAPE  H16S16334   3.021   5.765   8.005 -1.2535  0.9322 -0.2512
  148SAPE  C21716335   2.954   5.581   8.076 -0.6742 -0.2333 -0.5362
  148SAPE  H17R16336   2.856   5.554   8.032 -0.7395 -1.2721  0.2035
  148SAPE  H17S16337   2.954   5.525   8.172  2.5238  1.5141  0.6262
  148SAPE  C21816338   3.081   5.525   8.001  0.2836 -0.2183 -0.1008
  148SAPE  H18R16339   3.164   5.597   8.018 -0.6984  0.4358  2.2630
  148SAPE  H18S16340   3.060   5.515   7.892  0.3340  2.0445 -0.3622
  148SAPE  C21916341   3.121   5.389   8.052 -0.0268 -0.1771  0.4179
  148SAPE  H19R16342   3.046   5.314   8.020  0.7781 -0.5274 -0.7239
  148SAPE  H19S16343   3.126   5.393   8.163 -0.8738  0.3853  0.4489
  148SAPE  C22016344   3.252   5.346   7.990  0.2809 -0.3432  0.7272
  148SAPE  H20R16345   3.231   5.322   7.883 -0.8516  2.1102  0.3148
  148SAPE  H20S16346   3.296   5.259   8.043  1.6233 -1.1064 -1.4802
  148SAPE  H20T16347   3.324   5.431   7.987 -1.8824  1.5867  0.5775
  148SAPE   C3316348   3.076   6.360   7.131  0.4007  0.5097  0.6714
  148SAPE   H3X16349   3.139   6.450   7.143  0.6075  0.0787  3.8875
  148SAPE   H3Y16350   3.122   6.287   7.061 -1.9842  0.0321 -0.4660
  148SAPE   C3416351   3.078   6.300   7.274 -0.2440  0.3493 -0.0518
  148SAPE   H4X16352   3.038   6.196   7.266 -2.6827  1.0612  1.8561
  148SAPE   H4Y16353   3.022   6.363   7.346 -2.0736 -0.7394 -0.4551
  148SAPE   C3516354   3.220   6.279   7.329 -0.1856 -1.2281  0.4590
  148SAPE   H5X16355   3.236   6.384   7.362  1.3279 -1.9554  2.2388
  148SAPE   H5Y16356   3.288   6.260   7.243 -1.2767 -0.4831 -0.6065
  148SAPE   C3616357   3.245   6.184   7.442 -0.0846  0.4066 -0.5035
  148SAPE   H6X16358   3.351   6.151   7.440 -0.3843 -0.5973 -3.1839
  148SAPE   H6Y16359   3.191   6.089   7.427  0.4497 -0.0813  0.5399
  148SAPE   C3716360   3.203   6.237   7.578  0.6852  0.3084  0.0551
  148SAPE   H7X16361   3.094   6.258   7.587  0.7910  0.7152  0.3862
  148SAPE   H7Y16362   3.261   6.331   7.581 -2.6678  2.5489  0.0552
  148SAPE   C3816363   3.241   6.148   7.693  0.1845  0.4693  1.5859
  148SAPE   H8X16364   3.351   6.137   7.678  0.3316  2.2803  0.9606
  148SAPE   H8Y16365   3.188   6.051   7.687  0.5653  0.3355 -0.1101
  148SAPE   C3916366   3.217   6.205   7.833 -0.0842  0.0736 -0.8758
  148SAPE   H9X16367   3.110   6.224   7.851 -0.0912  1.6055 -2.3083
  148SAPE   H9Y16368   3.266   6.304   7.845 -1.4338  0.8268 -1.4230
  148SAPE  C31016369   3.262   6.099   7.946  0.7116 -0.3955  0.7668
  148SAPE  H10X16370   3.362   6.066   7.908  0.6142  1.2194 -1.0253
  148SAPE  H10Y16371   3.191   6.013   7.949  2.5549 -2.0132  0.3754
  148SAPE  C31116372   3.264   6.165   8.083  0.2944  0.2417 -0.8698
  148SAPE  H11X16373   3.343   6.242   8.096  2.0447 -1.6987  0.6301
  148SAPE  H11Y16374   3.297   6.093   8.160  0.7988  0.1964 -1.1270
  148SAPE  C31216375   3.124   6.223   8.110 -0.0507 -1.0375 -0.1477
  148SAPE  H12X16376   3.049   6.141   8.105 -2.3201  0.8831  0.6984
  148SAPE  H12Y16377   3.109   6.305   8.037  3.2106  0.8823  1.1329
  148SAPE  C31316378   3.110   6.290   8.255 -0.0190  0.3245 -0.1205
  148SAPE  H13X16379   3.023   6.358   8.254 -0.4348 -0.1638 -2.7726
  148SAPE  H13Y16380   3.194   6.362   8.267 -1.4527  1.8767  1.1389
  148SAPE  C31416381   3.104   6.177   8.359 -0.0331  0.1282  0.7151
  148SAPE  H14X16382   3.191   6.110   8.341 -1.5110 -1.6836 -0.1430
  148SAPE  H14Y16383   3.010   6.118   8.347  1.0908 -1.6479  0.2977
  148SAPE  C31516384   3.126   6.213   8.512 -0.2345  0.2941 -0.0796
  148SAPE  H15X16385   3.230   6.252   8.519 -1.0120  2.7596 -1.1844
  148SAPE  H15Y16386   3.113   6.121   8.573 -2.0217  1.8582  2.0766
  148SAPE  C31616387   3.037   6.321   8.580  0.1971  0.2080  1.0883
  148SAPE  H16X16388   2.932   6.292   8.562  0.7068 -0.0196 -2.0414
  148SAPE  H16Y16389   3.057   6.419   8.531 -0.3011  0.3072  1.0813
  148SAPE  C31716390   3.066   6.330   8.731  0.4789  0.1229 -0.2117
  148SAPE  H17X16391   3.175   6.353   8.736  0.3132  1.1455 -0.8789
  148SAPE  H17Y16392   3.044   6.236   8.786  2.6452  1.6720  3.6544
  148SAPE  C31816393   2.991   6.440   8.800  0.4365  0.3341 -0.1114
  148SAPE  H18X16394   3.013   6.537   8.752 -1.0244  0.4992 -0.4829
  148SAPE  H18Y16395   3.029   6.438   8.905  2.2949 -1.7176 -0.7391
  148SAPE  H18Z16396   2.881   6.429   8.802  0.3838  0.3872 -1.7838
  149SAPE     N16397   1.863   0.890   6.515  0.2669  0.0032  0.2031
  149SAPE   HN116398   1.957   0.894   6.470 -1.1205  1.0851 -2.8943
  149SAPE   HN216399   1.833   0.980   6.559 -0.8719  1.5065 -3.3455
  149SAPE   HN316400   1.877   0.823   6.594  1.0628 -0.8615 -0.6407
  149SAPE   C1216401   1.753   0.864   6.421  0.7803  0.1435 -0.2007
  149SAPE  H12A16402   1.718   0.959   6.377 -1.8442  0.1861  1.6907
  149SAPE  H12B16403   1.664   0.829   6.478 -0.7092  3.7299 -0.0789
  149SAPE   C1116404   1.777   0.753   6.313 -1.1143  0.1719 -0.3335
  149SAPE  H11A16405   1.846   0.801   6.240 -1.1561  1.8224  0.6717
  149SAPE  H11B16406   1.680   0.733   6.263  0.4326 -0.0931 -3.4519
  149SAPE     P16407   1.896   0.527   6.264  0.0537 -0.1875  0.2289
  149SAPE   O1316408   1.960   0.598   6.153 -0.4050  0.0445  0.5381
  149SAPE   O1416409   1.994   0.451   6.347 -0.8930 -0.1021 -0.6609
  149SAPE   O1216410   1.827   0.631   6.368 -0.2562 -0.1853 -0.1562
  149SAPE   O1116411   1.793   0.430   6.203 -0.5993  0.5524 -1.0256
  149SAPE    C116412   1.661   0.426   6.252  0.8227 -0.3270 -0.1777
  149SAPE    HA16413   1.624   0.507   6.319  0.2256 -0.3547 -0.4683
  149SAPE    HB16414   1.592   0.441   6.166 -0.4327  2.4845  1.1847
  149SAPE    C216415   1.636   0.289   6.318  0.0471  0.3554 -0.0554
  149SAPE    HS16416   1.536   0.277   6.366 -0.8496  1.9681 -1.4430
  149SAPE   O2116417   1.735   0.267   6.418 -0.1543  0.0651  0.1867
  149SAPE   C2116418   1.715   0.336   6.529  0.4458 -0.3732 -0.0168
  149SAPE   O2216419   1.614   0.408   6.546  0.1912  0.5016  0.1293
  149SAPE   C2216420   1.828   0.329   6.629 -0.3127 -0.1954 -0.3038
  149SAPE   H2R16421   1.845   0.220   6.645 -2.5817 -0.3698  1.5392
  149SAPE   H2S16422   1.913   0.380   6.579 -1.1715  2.6485  0.9191
  149SAPE    C316423   1.648   0.172   6.217  0.8952 -0.0760 -0.6104
  149SAPE    HX16424   1.739   0.178   6.155  1.5880 -0.5566  0.3286
  149SAPE    HY16425   1.563   0.178   6.146 -1.9750  2.3822  2.6401
  149SAPE   O3116426   1.654   0.047   6.286 -0.1087  0.8435  0.3283
  149SAPE   C3116427   1.551   0.010   6.366  0.3316  0.4099  0.6532
  149SAPE   O3216428   1.447   0.073   6.383 -0.4855 -0.1157  0.5343
  149SAPE   C3216429   1.589  -0.123   6.431  0.4606 -0.3196 -0.6735
  149SAPE   H2X16430   1.695  -0.116   6.466  0.5896 -0.3069 -1.0619
  149SAPE   H2Y16431   1.587  -0.200   6.352 -1.3306  0.7491 -1.7341
  149SAPE   C2316432   1.811   0.405   6.760 -0.1080  0.0861 -0.2588
  149SAPE   H3R16433   1.739   0.347   6.823  0.9364  0.4324  1.3178
  149SAPE   H3S16434   1.766   0.504   6.741  1.5084  1.0749  0.8290
  149SAPE   C2416435   1.939   0.411   6.844 -0.2505  0.6898  0.6905
  149SAPE   H4R16436   1.916   0.476   6.931 -2.0224  0.6074  0.3180
  149SAPE   H4S16437   2.016   0.451   6.775 -1.6806 -0.3044 -1.5899
  149SAPE   C2516438   1.983   0.270   6.877  0.0888 -0.7250  0.1594
  149SAPE   H5R16439   2.028   0.212   6.796  0.1840 -0.6736  0.1751
  149SAPE   C2616440   1.970   0.218   7.003 -0.2355  0.1120  0.3520
  149SAPE   H6R16441   2.011   0.116   7.002  0.5290  0.3562  2.5536
  149SAPE   C2716442   1.906   0.263   7.130  0.5751 -0.6076  0.0150
  149SAPE   H7R16443   1.804   0.288   7.094  0.8172 -2.7746 -2.4519
  149SAPE   H7S16444   1.946   0.362   7.161  0.0713 -0.1637 -0.7385
  149SAPE   C2816445   1.904   0.158   7.237  0.3068 -0.5569  0.0165
  149SAPE   H8R16446   1.844   0.071   7.208 -0.2825  0.0950 -0.7495
  149SAPE   C2916447   1.957   0.170   7.361 -0.3738 -0.6587 -0.2681
  149SAPE   H9R16448   1.938   0.089   7.433 -2.1209 -1.9515 -2.0664
  149SAPE  C21016449   2.035   0.291   7.415 -0.3097  0.3344 -0.3790
  149SAPE  H10R16450   1.959   0.356   7.466  0.2406 -0.8774  2.1583
  149SAPE  H10S16451   2.077   0.354   7.334  0.8754 -0.4793 -0.4124
  149SAPE  C21116452   2.154   0.254   7.502  0.3305 -0.5982 -0.1076
  149SAPE  H11R16453   2.250   0.260   7.450  1.3229 -0.2599  1.6712
  149SAPE  C21216454   2.150   0.216   7.631 -0.0376 -0.9272 -0.6755
  149SAPE  H12R16455   2.241   0.192   7.688 -0.4050  1.0730  0.8639
  149SAPE  C21316456   2.023   0.202   7.714  0.3615  0.2473 -0.1900
  149SAPE  H13R16457   2.033   0.111   7.777  0.9417 -0.4868 -1.3038
  149SAPE  H13S16458   1.933   0.194   7.649 -0.0466 -0.5216  0.4581
  149SAPE  C21416459   2.012   0.321   7.800  0.3858  0.2957 -0.0733
  149SAPE  H14R16460   1.992   0.410   7.739  2.2605  1.3406  0.7553
  149SAPE  C21516461   2.027   0.339   7.932  0.5187  0.1990 -0.2249
  149SAPE  H15R16462   2.008   0.435   7.982 -0.9848 -0.3269  0.2560
  149SAPE  C21616463   2.062   0.224   8.022  0.2726 -0.1629 -0.8726
  149SAPE  H16R16464   2.039   0.123   7.984  0.6739  0.0217 -1.6291
  149SAPE  H16S16465   2.018   0.232   8.124 -1.4145 -3.8099 -1.1883
  149SAPE  C21716466   2.215   0.224   8.061  0.0017 -0.1034  1.3158
  149SAPE  H17R16467   2.276   0.221   7.969  1.5324  1.8480  2.1886
  149SAPE  H17S16468   2.228   0.128   8.116 -1.8615 -1.0631  0.1915
  149SAPE  C21816469   2.266   0.339   8.154 -0.6464  0.5431  0.1396
  149SAPE  H18R16470   2.184   0.335   8.229 -2.1519 -1.6084 -1.5149
  149SAPE  H18S16471   2.266   0.433   8.095  0.9331  0.7815  0.4661
  149SAPE  C21916472   2.407   0.305   8.212  0.0560 -0.3284 -0.1693
  149SAPE  H19R16473   2.475   0.274   8.130  1.2554  1.5100  0.0703
  149SAPE  H19S16474   2.384   0.222   8.283 -1.6956 -1.2914 -1.7807
  149SAPE  C22016475   2.462   0.429   8.281 -0.2642  0.3055  0.5828
  149SAPE  H20R16476   2.563   0.413   8.324 -0.5296 -5.0017 -0.0594
  149SAPE  H20S16477   2.396   0.442   8.369 -0.0845  0.2217  0.7303
  149SAPE  H20T16478   2.453   0.517   8.214  0.1844 -2.3019 -3.1988
  149SAPE   C3316479   1.493  -0.163   6.552 -0.4311 -1.0612 -0.0714
  149SAPE   H3X16480   1.533  -0.260   6.588  1.0505 -0.2900  0.4639
  149SAPE   H3Y16481   1.391  -0.191   6.519 -0.6360  0.5898 -0.9682
  149SAPE   C3416482   1.514  -0.063   6.669 -0.2976 -0.0631 -0.7612
  149SAPE   H4X16483   1.428  -0.076   6.738 -1.2313  2.6865 -1.2920
  149SAPE   H4Y16484   1.502   0.042   6.637 -3.1846  0.0319  0.2748
  149SAPE   C3516485   1.647  -0.081   6.743 -0.3443  0.3871 -0.8047
  149SAPE   H5X16486   1.739  -0.100   6.684  0.6759  0.8800  0.5802
  149SAPE   H5Y16487   1.645  -0.174   6.803  0.2498  0.1039 -1.2089
  149SAPE   C3616488   1.670   0.046   6.827 -0.5124 -0.5930 -0.0421
  149SAPE   H6X16489   1.623   0.136   6.782 -1.3251 -1.1702 -0.3620
  149SAPE   H6Y16490   1.780   0.062   6.833 -0.4862 -1.0217  0.7236
  149SAPE   C3716491   1.605   0.038   6.966  0.1299  0.6681 -0.2617
  149SAPE   H7X16492   1.686   0.029   7.042 -0.9636  1.3152  1.0233
  149SAPE   H7Y16493   1.542  -0.053   6.978 -1.0723  1.3406 -1.2670
  149SAPE   C3816494   1.516   0.159   7.000  0.7531 -0.2536 -0.0055
  149SAPE   H8X16495   1.437   0.179   6.925 -1.2329 -0.8745  1.8014
  149SAPE   H8Y16496   1.571   0.255   7.014 -2.0497  1.2429  1.4873
  149SAPE   C3916497   1.446   0.137   7.136  0.0392 -0.1690 -0.8872
  149SAPE   H9X16498   1.378   0.049   7.135  0.1412 -0.3876  2.3032
  149SAPE   H9Y16499   1.391   0.230   7.162 -0.0408 -0.4479 -0.0489
  149SAPE  C31016500   1.542   0.091   7.250 -0.3985 -0.2757 -0.0232
  149SAPE  H10X16501   1.616   0.174   7.257  0.6426 -0.6371 -4.1391
  149SAPE  H10Y16502   1.585  -0.005   7.216  1.7233  1.1087 -1.5363
  149SAPE  C31116503   1.462   0.067   7.378  0.5051 -0.0993  0.1226
  149SAPE  H11X16504   1.395  -0.022   7.377 -0.2347  0.3105  3.4715
  149SAPE  H11Y16505   1.398   0.153   7.406  1.8996  0.7248  0.8601
  149SAPE  C31216506   1.559   0.043   7.495 -0.8890 -0.3465 -0.7326
  149SAPE  H12X16507   1.642   0.117   7.494 -0.3286 -0.9660 -1.7528
  149SAPE  H12Y16508   1.616  -0.050   7.474  3.0702  1.5825  0.6205
  149SAPE  C31316509   1.498   0.038   7.633 -0.5729 -0.4797  0.3923
  149SAPE  H13X16510   1.412  -0.033   7.631 -1.6615  0.8326 -1.5700
  149SAPE  H13Y16511   1.440   0.128   7.662 -1.3574 -0.7171 -0.3770
  149SAPE  C31416512   1.602   0.001   7.735 -0.7121 -0.5169  0.0261
  149SAPE  H14X16513   1.659   0.095   7.752 -0.4098 -1.1550  3.0872
  149SAPE  H14Y16514   1.688  -0.064   7.706 -0.5119 -0.1556 -0.1976
  149SAPE  C31516515   1.540  -0.039   7.873 -0.0430 -0.2680 -0.1248
  149SAPE  H15X16516   1.465  -0.120   7.866 -0.6170  0.2824 -0.4572
  149SAPE  H15Y16517   1.474   0.045   7.904 -0.2177 -1.0768  1.8227
  149SAPE  C31616518   1.645  -0.067   7.982  0.2965  0.1166 -0.1080
  149SAPE  H16X16519   1.709  -0.151   7.945  1.3878  1.0107 -0.2880
  149SAPE  H16Y16520   1.598  -0.121   8.067  2.4219 -0.9390  0.4681
  149SAPE  C31716521   1.719   0.055   8.028 -0.0060  0.9140 -0.1072
  149SAPE  H17X16522   1.684   0.140   7.965 -0.8531  1.8031  1.4966
  149SAPE  H17Y16523   1.828   0.040   8.020 -0.2479 -0.8751 -0.4486
  149SAPE  C31816524   1.690   0.098   8.169  0.6558 -0.2305  0.4805
  149SAPE  H18X16525   1.773   0.166   8.198  1.4750 -0.9127 -0.2163
  149SAPE  H18Y16526   1.661   0.020   8.242  0.1035 -2.0989 -1.6459
  149SAPE  H18Z16527   1.601   0.166   8.166  0.9392  0.1053 -0.6590
  150SAPE     N16528   0.812   1.340   6.431 -0.5609 -0.2285  0.0791
  150SAPE   HN116529   0.757   1.389   6.357  0.6358  0.6860 -0.2292
  150SAPE   HN216530   0.870   1.270   6.381  0.0877  0.6865 -0.4967
  150SAPE   HN316531   0.748   1.301   6.503 -3.1448 -0.5669 -2.2275
  150SAPE   C1216532   0.903   1.449   6.497  0.2529  0.0775 -0.0766
  150SAPE  H12A16533   0.833   1.499   6.568 -0.6209 -3.0282  1.4452
  150SAPE  H12B16534   0.926   1.527   6.423  0.9562  0.7784  0.8606
  150SAPE   C1116535   1.030   1.406   6.560 -0.1827  0.4395  0.5054
  150SAPE  H11A16536   1.031   1.338   6.647  1.1777 -3.4426 -2.2588
  150SAPE  H11B16537   1.087   1.493   6.599 -0.6408  0.1623  1.8310
  150SAPE     P16538   1.242   1.386   6.395 -0.1293  0.4530 -0.3427
  150SAPE   O1316539   1.303   1.270   6.325 -0.7722  0.0676 -0.3229
  150SAPE   O1416540   1.232   1.509   6.319 -1.0202  0.1393  0.4647
  150SAPE   O1216541   1.106   1.341   6.454  0.4588  0.2311 -0.0728
  150SAPE   O1116542   1.329   1.418   6.524 -0.6654 -0.2311 -0.0202
  150SAPE    C116543   1.357   1.313   6.620 -0.6146  0.5751  0.0240
  150SAPE    HA16544   1.260   1.280   6.664 -2.0942 -0.1174 -3.4684
  150SAPE    HB16545   1.398   1.220   6.575 -1.8287  0.2545 -0.4541
  150SAPE    C216546   1.461   1.353   6.717 -0.5417 -0.0790  0.2819
  150SAPE    HS16547   1.489   1.268   6.783 -0.2528  0.7732  1.2928
  150SAPE   O2116548   1.419   1.462   6.797  0.0538 -0.0581 -0.0705
  150SAPE   C2116549   1.318   1.439   6.880  0.1341  0.0207  0.0476
  150SAPE   O2216550   1.292   1.325   6.915 -0.5671 -0.5952  0.2924
  150SAPE   C2216551   1.262   1.575   6.935  0.3130 -1.1828  0.0094
  150SAPE   H2R16552   1.346   1.634   6.977 -1.6544  1.6627  0.1933
  150SAPE   H2S16553   1.237   1.638   6.848  4.2958  0.6384 -0.0165
  150SAPE    C316554   1.589   1.389   6.640 -0.1899 -0.1814  0.1393
  150SAPE    HX16555   1.586   1.474   6.568  1.4691 -1.2625 -1.2661
  150SAPE    HY16556   1.618   1.308   6.570 -1.5761 -1.7807  1.3423
  150SAPE   O3116557   1.696   1.410   6.732 -0.0700  0.1910 -0.7790
  150SAPE   C3116558   1.713   1.533   6.774 -0.3617  0.2363 -0.2440
  150SAPE   O3216559   1.656   1.634   6.740  0.5459  0.5371  0.0031
  150SAPE   C3216560   1.812   1.528   6.891  0.4039  0.5782 -0.4329
  150SAPE   H2X16561   1.818   1.630   6.934  0.2434  0.6176 -0.5005
  150SAPE   H2Y16562   1.912   1.493   6.858  0.2422  1.0896 -1.5158
  150SAPE   C2316563   1.144   1.545   7.027  0.2745 -0.5357  0.1558
  150SAPE   H3R16564   1.172   1.475   7.108 -0.1670 -0.3756  0.4486
  150SAPE   H3S16565   1.072   1.504   6.953 -1.2365 -0.6701  1.6516
  150SAPE   C2416566   1.105   1.679   7.100  0.0930 -0.2402  0.0937
  150SAPE   H4R16567   1.004   1.643   7.127 -0.3662 -0.6233 -1.9779
  150SAPE   H4S16568   1.090   1.761   7.027  1.5003  0.3938  0.4852
  150SAPE   C2516569   1.189   1.736   7.217 -0.5594 -0.6584 -0.2497
  150SAPE   H5R16570   1.272   1.804   7.194 -0.0551 -0.9011  0.7853
  150SAPE   C2616571   1.170   1.720   7.350 -0.9244  0.3574 -0.1565
  150SAPE   H6R16572   1.220   1.784   7.423 -2.2886  0.1803  0.9806
  150SAPE   C2716573   1.059   1.628   7.402 -0.9419  0.7194  0.0801
  150SAPE   H7R16574   1.045   1.548   7.326  0.3687 -0.6265  1.1781
  150SAPE   H7S16575   0.968   1.691   7.399 -1.4607  0.0044  0.3895
  150SAPE   C2816576   1.096   1.565   7.532 -0.3638  0.2415 -0.2717
  150SAPE   H8R16577   1.201   1.578   7.562 -0.7091  2.0156  0.3096
  150SAPE   C2916578   1.008   1.502   7.612  0.3744 -0.2502  0.5004
  150SAPE   H9R16579   1.047   1.461   7.706 -0.5340 -0.7839  0.6612
  150SAPE  C21016580   0.860   1.484   7.599  0.2946  0.2273 -0.1802
  150SAPE  H10R16581   0.804   1.523   7.511  1.2019 -1.8504 -1.7773
  150SAPE  H10S16582   0.819   1.535   7.688  3.8469  2.0680  0.6010
  150SAPE  C21116583   0.843   1.331   7.606  0.4770  0.6296  0.2188
  150SAPE  H11R16584   0.904   1.267   7.541  1.3470  0.9591  0.6826
  150SAPE  C21216585   0.767   1.259   7.690  0.2963  0.1976  0.4406
  150SAPE  H12R16586   0.764   1.152   7.663 -1.3938  0.1928  0.5629
  150SAPE  C21316587   0.678   1.307   7.803  0.3181 -0.2089  0.2043
  150SAPE  H13R16588   0.648   1.413   7.788  0.2708 -0.2338  0.1258
  150SAPE  H13S16589   0.741   1.294   7.895  0.7945 -1.4582 -0.2779
  150SAPE  C21416590   0.560   1.226   7.820 -0.4475 -0.1242  0.1534
  150SAPE  H14R16591   0.546   1.146   7.745 -0.7568  0.6309 -0.6088
  150SAPE  C21516592   0.463   1.244   7.913 -0.0853 -0.1547 -0.2506
  150SAPE  H15R16593   0.368   1.189   7.920  0.1838 -0.7496 -1.1298
  150SAPE  C21616594   0.462   1.347   8.022 -0.1867 -0.3017  0.0117
  150SAPE  H16R16595   0.558   1.401   8.010  0.3388 -1.2828 -0.3132
  150SAPE  H16S16596   0.455   1.303   8.124 -0.5615  1.5936  0.8346
  150SAPE  C21716597   0.345   1.450   8.013  0.0813 -0.3371 -0.1228
  150SAPE  H17R16598   0.330   1.488   7.909  0.5926 -0.2354 -0.1626
  150SAPE  H17S16599   0.383   1.540   8.066  1.9894 -0.4720 -1.1618
  150SAPE  C21816600   0.217   1.390   8.062  0.2662 -0.2268  0.1176
  150SAPE  H18R16601   0.239   1.361   8.167  0.4414 -1.2303 -0.1815
  150SAPE  H18S16602   0.192   1.297   8.006 -1.2034 -0.5647  1.2777
  150SAPE  C21916603   0.087   1.480   8.065 -0.3816 -0.5211  0.2649
  150SAPE  H19R16604   0.030   1.485   7.970 -1.2093  0.8065  0.8000
  150SAPE  H19S16605   0.128   1.580   8.091  0.1514 -1.3251  2.8029
  150SAPE  C22016606  -0.013   1.433   8.165  0.6041  0.2166 -0.5799
  150SAPE  H20R16607   0.022   1.460   8.267  2.7451  1.0017 -1.4657
  150SAPE  H20S16608  -0.022   1.323   8.151  1.2584  0.0378  0.2696
  150SAPE  H20T16609  -0.112   1.482   8.157  1.2172  1.6045  0.0629
  150SAPE   C3316610   1.752   1.430   6.996 -0.2963 -0.3476 -0.5172
  150SAPE   H3X16611   1.834   1.413   7.068 -0.1425  1.6324 -0.1699
  150SAPE   H3Y16612   1.731   1.336   6.940  2.1360 -1.5823  0.5382
  150SAPE   C3416613   1.633   1.479   7.066  0.4917 -0.0496  0.1367
  150SAPE   H4X16614   1.552   1.482   6.989  2.0791 -0.0366 -1.6084
  150SAPE   H4Y16615   1.637   1.584   7.102 -0.9421 -0.1144  0.5558
  150SAPE   C3516616   1.576   1.394   7.185 -0.1169  0.4991 -0.0323
  150SAPE   H5X16617   1.648   1.409   7.267 -0.2983  1.1013  0.0248
  150SAPE   H5Y16618   1.570   1.286   7.158 -0.8771  0.6104 -0.3545
  150SAPE   C3616619   1.438   1.430   7.237  0.4735  0.5325  0.3047
  150SAPE   H6X16620   1.366   1.392   7.161  2.7009  0.0158 -1.6858
  150SAPE   H6Y16621   1.426   1.540   7.233 -3.3910  0.2229 -0.7569
  150SAPE   C3716622   1.408   1.371   7.379  0.3531  0.1472 -0.0188
  150SAPE   H7X16623   1.336   1.431   7.438 -2.6458 -0.0193 -3.1627
  150SAPE   H7Y16624   1.502   1.358   7.437  1.0597  2.6802 -0.4743
  150SAPE   C3816625   1.347   1.231   7.363  0.4963 -0.2354  0.0096
  150SAPE   H8X16626   1.425   1.161   7.327  0.1716 -0.3885 -0.3870
  150SAPE   H8Y16627   1.269   1.236   7.284 -0.4699 -3.1030  0.6632
  150SAPE   C3916628   1.266   1.190   7.488 -0.0494 -0.2567 -0.3771
  150SAPE   H9X16629   1.221   1.092   7.461  1.2820 -0.6591 -1.2146
  150SAPE   H9Y16630   1.182   1.261   7.501  0.3967  0.1211  0.5154
  150SAPE  C31016631   1.357   1.193   7.614 -0.0458  0.7492  0.3045
  150SAPE  H10X16632   1.410   1.287   7.638  0.4502  0.0559  2.1076
  150SAPE  H10Y16633   1.431   1.115   7.586  0.6017  1.9509 -1.4872
  150SAPE  C31116634   1.288   1.149   7.746 -0.5568 -0.3926  0.1480
  150SAPE  H11X16635   1.227   1.234   7.784  0.2037  1.0500 -1.6786
  150SAPE  H11Y16636   1.365   1.128   7.823 -2.0602 -2.8067  1.0916
  150SAPE  C31216637   1.189   1.029   7.731  0.9260 -0.1875 -0.4981
  150SAPE  H12X16638   1.245   0.941   7.693  0.0588 -0.8341 -0.2968
  150SAPE  H12Y16639   1.116   1.065   7.656  0.2406 -0.2276  0.1323
  150SAPE  C31316640   1.122   0.981   7.865 -0.0226 -0.0323  0.4721
  150SAPE  H13X16641   1.058   0.895   7.836 -1.4189 -0.1924  3.7090
  150SAPE  H13Y16642   1.065   1.068   7.905 -0.2237  0.5561 -1.0092
  150SAPE  C31416643   1.222   0.926   7.961 -0.3758  0.8123 -0.0066
  150SAPE  H14X16644   1.301   0.998   7.992  0.1163  0.1165  0.3785
  150SAPE  H14Y16645   1.274   0.835   7.923 -1.3896 -0.6564  1.9659
  150SAPE  C31516646   1.155   0.883   8.093 -0.0035  1.0377 -0.2966
  150SAPE  H15X16647   1.102   0.785   8.087 -0.2997  1.2488 -1.3033
  150SAPE  H15Y16648   1.079   0.961   8.114 -3.0824 -1.4994 -1.2737
  150SAPE  C31616649   1.259   0.874   8.202  0.7792 -0.3480 -0.7572
  150SAPE  H16X16650   1.214   0.875   8.303  0.4111 -1.4442 -0.8882
  150SAPE  H16Y16651   1.325   0.963   8.204  2.1388 -1.3287 -0.3250
  150SAPE  C31716652   1.342   0.748   8.200 -0.7766 -0.1954 -0.3612
  150SAPE  H17X16653   1.396   0.737   8.103 -0.4518 -2.0058 -0.0060
  150SAPE  H17Y16654   1.277   0.659   8.213  1.2117 -1.5357  0.9401
  150SAPE  C31816655   1.449   0.740   8.310 -0.0099  0.0191  0.2153
  150SAPE  H18X16656   1.408   0.765   8.410 -1.1209 -1.4302  0.1512
  150SAPE  H18Y16657   1.527   0.818   8.300 -2.4244  2.4759 -0.5146
  150SAPE  H18Z16658   1.495   0.639   8.304  0.3154  0.1780 -0.0111
  151SAPE     N16659   3.346   6.490   6.382  0.1460 -0.5088  0.0469
  151SAPE   HN116660   3.278   6.545   6.327 -0.0380 -0.8751 -0.1005
  151SAPE   HN216661   3.411   6.436   6.321  2.6477  1.5522  0.7315
  151SAPE   HN316662   3.300   6.414   6.437 -2.0005 -0.6514 -1.7811
  151SAPE   C1216663   3.426   6.578   6.470 -0.2693  0.2992 -0.8085
  151SAPE  H12A16664   3.463   6.518   6.556 -2.3040  0.5320  0.2958
  151SAPE  H12B16665   3.355   6.651   6.514 -1.8690 -0.8782 -1.3140
  151SAPE   C1116666   3.535   6.644   6.381  0.0979 -0.7109  0.2007
  151SAPE  H11A16667   3.618   6.571   6.372  0.3835 -0.3151 -0.5020
  151SAPE  H11B16668   3.587   6.735   6.419 -1.3848  0.4080 -0.3290
  151SAPE     P16669   3.445   6.820   6.200  0.0718 -0.1508  0.0215
  151SAPE   O1316670   3.486   6.835   6.058  0.1486  0.5407 -0.2346
  151SAPE   O1416671   3.308   6.853   6.246  0.9286 -0.2202  0.4982
  151SAPE   O1216672   3.478   6.670   6.250  0.4806 -0.1875  0.3220
  151SAPE   O1116673   3.543   6.911   6.284 -0.0722 -0.0092  0.0828
  151SAPE    C116674   3.490   7.033   6.351  0.4537  0.0696 -0.7395
  151SAPE    HA16675   3.578   7.100   6.344 -1.2363  2.2419 -2.6222
  151SAPE    HB16676   3.407   7.092   6.308  0.3573  1.2953  1.0152
  151SAPE    C216677   3.465   7.014   6.510 -0.4841 -0.5435  0.2550
  151SAPE    HS16678   3.473   7.114   6.558  0.9885  0.2250 -1.4716
  151SAPE   O2116679   3.556   6.922   6.571 -0.1652  0.9234 -0.4516
  151SAPE   C2116680   3.687   6.965   6.579 -0.3932  0.3803 -0.1598
  151SAPE   O2216681   3.723   7.077   6.540 -0.3780  0.4939  0.4429
  151SAPE   C2216682   3.766   6.869   6.666 -0.2643 -1.1482 -0.3566
  151SAPE   H2R16683   3.831   6.806   6.601  0.3074  0.7737 -1.7483
  151SAPE   H2S16684   3.834   6.930   6.728  1.0278 -0.9927 -1.8592
  151SAPE    C316685   3.323   6.967   6.546  0.3085  0.3685  0.3602
  151SAPE    HX16686   3.310   6.865   6.505 -1.4711  0.2212  1.2294
  151SAPE    HY16687   3.257   7.033   6.486 -1.0304 -1.4884 -0.2859
  151SAPE   O3116688   3.295   6.974   6.685  0.5162 -0.7289  0.4321
  151SAPE   C3116689   3.303   6.862   6.755  0.1325 -0.8370  0.2006
  151SAPE   O3216690   3.350   6.759   6.721 -0.8072 -0.2712 -0.1851
  151SAPE   C3216691   3.245   6.874   6.900 -0.8851 -0.8931  0.5127
  151SAPE   H2X16692   3.192   6.971   6.901  2.4838  1.1006 -0.0202
  151SAPE   H2Y16693   3.337   6.891   6.961  0.4295 -1.1258 -1.3268
  151SAPE   C2316694   3.682   6.785   6.752  0.2684 -0.2864 -0.0135
  151SAPE   H3R16695   3.619   6.722   6.686 -0.7508  1.3080 -0.6349
  151SAPE   H3S16696   3.601   6.836   6.807 -0.5667 -1.6662  0.0684
  151SAPE   C2416697   3.758   6.699   6.854 -0.4384 -0.4393 -0.2605
  151SAPE   H4R16698   3.808   6.760   6.932  0.4076  1.2883 -2.0584
  151SAPE   H4S16699   3.839   6.649   6.796 -0.3994 -1.8586  0.9607
  151SAPE   C2516700   3.664   6.589   6.899  0.7555  0.4180  0.1640
  151SAPE   H5R16701   3.635   6.519   6.819  1.7964 -0.0541  0.1918
  151SAPE   C2616702   3.618   6.572   7.024 -0.7814  0.6916 -0.0287
  151SAPE   H6R16703   3.539   6.496   7.037 -0.7088  0.7787  1.0665
  151SAPE   C2716704   3.657   6.666   7.143  0.3403 -0.0747  0.0795
  151SAPE   H7R16705   3.582   6.747   7.155  0.0061 -0.7400  3.3262
  151SAPE   H7S16706   3.759   6.709   7.130  1.0304 -1.8519 -0.7627
  151SAPE   C2816707   3.649   6.588   7.271  0.2540 -0.0481  0.1725
  151SAPE   H8R16708   3.572   6.510   7.281 -0.8810  1.2446  2.3184
  151SAPE   C2916709   3.726   6.599   7.379  0.2627 -0.3315  0.5439
  151SAPE   H9R16710   3.709   6.546   7.473 -0.1876  0.6015  0.9972
  151SAPE  C21016711   3.848   6.688   7.395 -0.2263  0.3044 -0.3132
  151SAPE  H10R16712   3.836   6.728   7.498  2.2369 -0.6829  0.4184
  151SAPE  H10S16713   3.839   6.758   7.310 -0.9752 -0.1124 -0.5901
  151SAPE  C21116714   3.974   6.605   7.392 -0.8219 -0.6883  0.2352
  151SAPE  H11R16715   3.967   6.519   7.461 -0.5711 -1.3308 -0.5155
  151SAPE  C21216716   4.096   6.632   7.336  0.3250  0.6201  0.6378
  151SAPE  H12R16717   4.183   6.567   7.356 -0.7243 -0.6529  1.3095
  151SAPE  C21316718   4.140   6.749   7.250  0.4782  0.0170  0.0925
  151SAPE  H13R16719   4.232   6.794   7.292  0.3788  1.9727 -1.6320
  151SAPE  H13S16720   4.066   6.832   7.250 -1.3062 -1.4119  2.7358
  151SAPE  C21416721   4.165   6.680   7.116  0.3504 -0.3977  0.0096
  151SAPE  H14R16722   4.078   6.657   7.053 -0.2172  1.7451 -0.0952
  151SAPE  C21516723   4.285   6.640   7.075 -0.1999 -0.5919 -0.1505
  151SAPE  H15R16724   4.296   6.596   6.975  0.6548 -2.1825  0.5967
  151SAPE  C21616725   4.426   6.653   7.132  1.0510  0.7638 -0.4953
  151SAPE  H16R16726   4.438   6.737   7.205  0.8394  2.0184 -1.8667
  151SAPE  H16S16727   4.501   6.661   7.051  2.2219 -1.5936  0.2808
  151SAPE  C21716728   4.457   6.518   7.207 -0.1799  0.0948 -0.3397
  151SAPE  H17R16729   4.467   6.437   7.132 -1.8420 -0.1790 -0.2924
  151SAPE  H17S16730   4.376   6.485   7.275  2.1937 -2.7443  1.3179
  151SAPE  C21816731   4.593   6.535   7.281  0.5774 -0.4959  0.4118
  151SAPE  H18R16732   4.675   6.527   7.207  0.5171  1.6796  0.0417
  151SAPE  H18S16733   4.594   6.442   7.342  0.4198 -0.4267  0.5231
  151SAPE  C21916734   4.586   6.654   7.381 -0.2663  0.0393  0.0954
  151SAPE  H19R16735   4.491   6.664   7.437 -0.3071 -2.4466  0.6026
  151SAPE  H19S16736   4.591   6.751   7.328  0.8312  0.3678  0.7677
  151SAPE  C22016737   4.702   6.646   7.477  0.2566  0.7793  0.5165
  151SAPE  H20R16738   4.710   6.542   7.515 -1.5550 -0.4459 -2.1881
  151SAPE  H20S16739   4.790   6.666   7.412 -1.6651 -2.7073 -3.6242
  151SAPE  H20T16740   4.686   6.712   7.565 -2.8326 -1.3554  1.7614
  151SAPE   C3316741   3.167   6.750   6.944 -0.2816 -0.6074 -0.5127
  151SAPE   H3X16742   3.235   6.662   6.950  0.5396  0.0515  0.0177
  151SAPE   H3Y16743   3.091   6.742   6.864 -2.8214  1.9934  1.4067
  151SAPE   C3416744   3.103   6.776   7.084  0.7790  0.4529  0.4695
  151SAPE   H4X16745   3.036   6.688   7.100 -0.0867 -0.1700 -4.8043
  151SAPE   H4Y16746   3.058   6.875   7.105 -0.2400  0.0203  0.4016
  151SAPE   C3516747   3.209   6.778   7.195 -0.2290  0.9968 -0.1171
  151SAPE   H5X16748   3.271   6.869   7.184  2.6236 -1.0529 -3.4943
  151SAPE   H5Y16749   3.266   6.685   7.173  0.8011  1.1848  1.6508
  151SAPE   C3616750   3.157   6.756   7.339  0.8433  0.1590 -0.2501
  151SAPE   H6X16751   3.103   6.659   7.340 -2.5601  1.7630 -3.2303
  151SAPE   H6Y16752   3.100   6.840   7.385  0.3621 -1.7172  2.9042
  151SAPE   C3716753   3.258   6.724   7.448  0.5415  0.0915 -0.3924
  151SAPE   H7X16754   3.343   6.795   7.458  1.2637 -0.8139  0.0587
  151SAPE   H7Y16755   3.299   6.622   7.430  1.0206 -0.0180  1.1295
  151SAPE   C3816756   3.193   6.702   7.587 -0.0030  0.6680 -0.2508
  151SAPE   H8X16757   3.173   6.792   7.648 -2.7155  0.0461 -0.0962
  151SAPE   H8Y16758   3.263   6.632   7.638 -1.6683 -1.6031 -0.9081
  151SAPE   C3916759   3.061   6.611   7.590  0.3551 -0.1614  0.0977
  151SAPE   H9X16760   3.058   6.509   7.546 -1.3448 -1.9206  3.8461
  151SAPE   H9Y16761   2.985   6.672   7.536  1.4481 -0.2987 -1.6774
  151SAPE  C31016762   3.011   6.604   7.729  0.7718  0.0355  0.7915
  151SAPE  H10X16763   2.960   6.699   7.753 -0.0176 -0.0659 -0.3625
  151SAPE  H10Y16764   3.098   6.596   7.798  1.0464  0.8310  0.5425
  151SAPE  C31116765   2.911   6.486   7.761 -0.8631 -0.2473  0.3835
  151SAPE  H11X16766   2.976   6.397   7.747  0.9242  0.9438  0.6908
  151SAPE  H11Y16767   2.835   6.486   7.680 -0.1806  0.6334 -0.2867
  151SAPE  C31216768   2.829   6.499   7.891  0.0197 -0.4245  0.1844
  151SAPE  H12X16769   2.771   6.594   7.889 -0.0066 -0.1579  4.4944
  151SAPE  H12Y16770   2.895   6.502   7.981 -0.2986  0.2996  0.4014
  151SAPE  C31316771   2.722   6.386   7.887  0.4523  0.9537  0.0103
  151SAPE  H13X16772   2.778   6.291   7.893  2.6666  2.2788  4.2029
  151SAPE  H13Y16773   2.689   6.385   7.781 -0.5143 -2.6177  0.2320
  151SAPE  C31416774   2.598   6.393   7.979 -0.0705 -0.3564  0.4271
  151SAPE  H14X16775   2.554   6.495   7.970 -2.8633 -1.3296  1.8443
  151SAPE  H14Y16776   2.626   6.380   8.086  0.6411  0.6058  0.3704
  151SAPE  C31516777   2.481   6.299   7.935  0.2092  0.5844 -0.0675
  151SAPE  H15X16778   2.512   6.197   7.905  0.7311  1.3840 -2.4650
  151SAPE  H15Y16779   2.441   6.343   7.841  2.6739  0.0030 -1.5031
  151SAPE  C31616780   2.373   6.296   8.038 -0.4375 -0.3486 -0.4124
  151SAPE  H16X16781   2.281   6.280   7.978  0.7227 -2.6929 -1.7117
  151SAPE  H16Y16782   2.374   6.395   8.087  1.1660 -0.4749 -0.1382
  151SAPE  C31716783   2.408   6.186   8.139  0.5951 -0.7765 -0.6009
  151SAPE  H17X16784   2.368   6.218   8.237  0.7056  1.4890 -1.2430
  151SAPE  H17Y16785   2.518   6.168   8.135  1.2257  1.7962  2.1052
  151SAPE  C31816786   2.330   6.051   8.107  0.1698 -0.9921 -0.3746
  151SAPE  H18X16787   2.222   6.077   8.115  0.3797  0.1266 -0.9938
  151SAPE  H18Y16788   2.363   5.983   8.188  0.7494 -0.4932 -0.1845
  151SAPE  H18Z16789   2.339   6.021   8.001 -3.4600  1.0261 -1.4230
  152SAPE     N16790   6.761   0.838   6.106  0.0430  0.1602 -0.6779
  152SAPE   HN116791   6.825   0.917   6.131 -0.1872  0.0684  0.2678
  152SAPE   HN216792   6.663   0.869   6.091 -0.8909 -1.8362  0.7797
  152SAPE   HN316793   6.757   0.780   6.193 -0.4729  3.1525  1.4602
  152SAPE   C1216794   6.820   0.778   5.984 -0.0465  0.2953 -0.5506
  152SAPE  H12A16795   6.801   0.851   5.902 -0.5565  1.9945  1.0150
  152SAPE  H12B16796   6.758   0.688   5.970  0.7922 -0.3653 -0.1062
  152SAPE   C1116797   6.970   0.758   6.003  0.0478  0.1938 -0.1916
  152SAPE  H11A16798   7.019   0.857   5.998  1.6588 -0.6042 -0.9128
  152SAPE  H11B16799   6.998   0.692   5.918  1.5512  1.3330 -0.6181
  152SAPE     P16800   7.131   0.628   6.160  0.4713  0.0189 -0.3445
  152SAPE   O1316801   7.168   0.511   6.074  0.0985  0.4376  0.4541
  152SAPE   O1416802   7.226   0.734   6.180 -0.4670 -0.8763 -0.0471
  152SAPE   O1216803   6.997   0.691   6.125  0.3719 -0.3093 -0.3393
  152SAPE   O1116804   7.093   0.573   6.301  0.3037  0.0847  0.0749
  152SAPE    C116805   6.979   0.584   6.384  0.0176 -0.2676  0.0847
  152SAPE    HA16806   7.000   0.595   6.492 -1.3565  3.7315  0.1099
  152SAPE    HB16807   6.935   0.685   6.370 -2.8010 -1.6500 -2.1135
  152SAPE    C216808   6.880   0.470   6.358  0.7164 -0.7846  0.2427
  152SAPE    HS16809   6.842   0.474   6.254 -0.2227  0.5150  0.6197
  152SAPE   O2116810   6.769   0.492   6.445 -0.6464  0.1487  0.6160
  152SAPE   C2116811   6.681   0.594   6.409 -0.6052 -0.0879 -0.4093
  152SAPE   O2216812   6.705   0.678   6.324  0.7792  0.5322  0.0761
  152SAPE   C2216813   6.546   0.568   6.473 -0.3474 -0.3886 -0.1968
  152SAPE   H2R16814   6.482   0.508   6.405 -0.2362  1.9763 -2.5712
  152SAPE   H2S16815   6.575   0.496   6.552  2.6636 -0.7614 -1.4844
  152SAPE    C316816   6.932   0.322   6.368 -0.4557 -0.1734 -0.0200
  152SAPE    HX16817   7.001   0.300   6.284 -1.9382 -1.5394 -0.9527
  152SAPE    HY16818   6.857   0.248   6.333  1.3470 -1.2941 -1.7585
  152SAPE   O3116819   6.979   0.282   6.499  0.1755  0.0533  0.0318
  152SAPE   C3116820   7.113   0.296   6.511 -0.4156 -0.6282 -0.2836
  152SAPE   O3216821   7.193   0.317   6.427 -0.2352 -0.1342 -0.2655
  152SAPE   C3216822   7.139   0.290   6.661 -0.3062 -0.2011  0.6105
  152SAPE   H2X16823   7.231   0.237   6.692 -1.1908 -1.4705  1.1587
  152SAPE   H2Y16824   7.050   0.239   6.703  0.0638 -1.2946  0.1132
  152SAPE   C2316825   6.460   0.697   6.495  1.1357  0.7828 -0.0884
  152SAPE   H3R16826   6.358   0.655   6.479  0.9940  0.8243  0.6541
  152SAPE   H3S16827   6.486   0.773   6.420 -1.2358  2.3171  0.5127
  152SAPE   C2416828   6.456   0.744   6.645 -0.1357  0.2728  0.3260
  152SAPE   H4R16829   6.563   0.744   6.677  0.0261  0.5892 -0.2085
  152SAPE   H4S16830   6.399   0.664   6.698 -1.6373 -0.5923 -2.3835
  152SAPE   C2516831   6.375   0.875   6.654 -0.8742 -0.3784 -0.3814
  152SAPE   H5R16832   6.346   0.928   6.563  1.2957 -2.0492 -2.1469
  152SAPE   C2616833   6.334   0.922   6.772  0.1829  0.0010  0.6006
  152SAPE   H6R16834   6.272   1.013   6.769 -0.7502 -0.6478 -0.7973
  152SAPE   C2716835   6.365   0.865   6.908 -0.1963 -0.1231  0.4401
  152SAPE   H7R16836   6.419   0.770   6.889  1.0595  1.1307 -2.9248
  152SAPE   H7S16837   6.274   0.834   6.963  0.1502 -0.3188  0.9100
  152SAPE   C2816838   6.441   0.974   6.979 -0.1667 -0.2182  0.8210
  152SAPE   H8R16839   6.500   1.040   6.914  2.1603 -1.1555  1.8593
  152SAPE   C2916840   6.443   1.015   7.104  0.3599 -0.2915 -0.2901
  152SAPE   H9R16841   6.507   1.100   7.134  2.2196 -1.8098  0.2959
  152SAPE  C21016842   6.369   0.959   7.218  0.5834 -0.4322 -0.2597
  152SAPE  H10R16843   6.432   0.914   7.297  0.0392 -1.9922 -0.6869
  152SAPE  H10S16844   6.307   0.875   7.181  1.8210 -1.5862  0.1962
  152SAPE  C21116845   6.274   1.068   7.273  0.5687  0.0662  0.0171
  152SAPE  H11R16846   6.226   1.136   7.202  0.7284  0.6275  0.4346
  152SAPE  C21216847   6.226   1.081   7.398 -0.7155  0.1609  0.0579
  152SAPE  H12R16848   6.171   1.173   7.421  2.4288  2.0292  0.6987
  152SAPE  C21316849   6.273   0.997   7.518  0.2095 -0.1056  0.3917
  152SAPE  H13R16850   6.355   1.052   7.568 -0.3785  0.3509  0.8814
  152SAPE  H13S16851   6.317   0.900   7.487  0.1121 -0.6350  1.8299
  152SAPE  C21416852   6.157   0.963   7.611 -0.6320 -0.4052  0.3800
  152SAPE  H14R16853   6.091   0.884   7.572  0.7956 -0.8851 -1.1565
  152SAPE  C21516854   6.131   1.025   7.726 -0.1056  0.3137 -0.0115
  152SAPE  H15R16855   6.036   1.003   7.775  0.7763 -1.8153  0.8673
  152SAPE  C21616856   6.215   1.131   7.793  0.0693 -0.1166 -0.2752
  152SAPE  H16R16857   6.151   1.222   7.794 -1.0983 -0.9143  0.4032
  152SAPE  H16S16858   6.301   1.158   7.728  1.4362  1.6665  2.1022
  152SAPE  C21716859   6.245   1.121   7.938 -0.5580  0.6503 -0.8342
  152SAPE  H17R16860   6.317   1.201   7.966  2.3577 -2.8509  2.7910
  152SAPE  H17S16861   6.285   1.024   7.974 -0.4458  0.5080 -1.3305
  152SAPE  C21816862   6.125   1.160   8.029 -0.3857 -0.0138 -0.8122
  152SAPE  H18R16863   6.080   1.254   7.991 -0.7209  0.6518  1.1048
  152SAPE  H18S16864   6.172   1.176   8.128  2.6966 -2.8253 -1.6524
  152SAPE  C21916865   6.017   1.058   8.056 -0.6560  0.0370 -0.3817
  152SAPE  H19R16866   5.972   1.027   7.959  3.0734  0.4977 -2.4618
  152SAPE  H19S16867   5.938   1.104   8.120 -0.8487 -0.0967 -0.5208
  152SAPE  C22016868   6.069   0.925   8.119  0.3239 -0.9924 -0.3566
  152SAPE  H20R16869   6.128   0.867   8.044  0.6408 -1.4658  0.2506
  152SAPE  H20S16870   5.985   0.860   8.151  0.5061 -0.7357  0.6799
  152SAPE  H20T16871   6.131   0.959   8.205  0.6469 -1.4555 -0.4031
  152SAPE   C3316872   7.139   0.429   6.728 -0.3981  0.2506 -0.5943
  152SAPE   H3X16873   7.135   0.419   6.838 -0.7670  1.0999 -0.5267
  152SAPE   H3Y16874   7.057   0.491   6.684 -0.7960 -1.3942 -2.3595
  152SAPE   C3416875   7.274   0.499   6.698 -0.3395  0.0453  0.2532
  152SAPE   H4X16876   7.279   0.526   6.591 -1.4785 -1.8815 -0.3315
  152SAPE   H4Y16877   7.356   0.427   6.718  0.7148  0.8000 -1.2159
  152SAPE   C3516878   7.279   0.635   6.786 -0.2534 -0.4039  0.6762
  152SAPE   H5X16879   7.189   0.696   6.762  1.2614  1.8663  0.3854
  152SAPE   H5Y16880   7.369   0.690   6.749 -0.3751 -1.7986 -1.9134
  152SAPE   C3616881   7.306   0.606   6.934  0.6964  0.6318  0.1700
  152SAPE   H6X16882   7.395   0.540   6.939  0.4493  0.3389  0.6968
  152SAPE   H6Y16883   7.218   0.559   6.982  1.3725 -2.0693 -1.0223
  152SAPE   C3716884   7.340   0.735   7.014  0.2712 -0.3616  0.5232
  152SAPE   H7X16885   7.276   0.820   6.984 -0.2529 -0.8261  0.3181
  152SAPE   H7Y16886   7.445   0.769   6.996 -0.5371  0.3704 -4.0543
  152SAPE   C3816887   7.321   0.718   7.164 -0.2402 -0.0459 -0.3929
  152SAPE   H8X16888   7.381   0.630   7.195  0.2471 -0.7818 -3.1875
  152SAPE   H8Y16889   7.211   0.704   7.169 -0.5513  1.9976 -0.4696
  152SAPE   C3916890   7.358   0.850   7.241  0.2251 -0.1953 -0.5168
  152SAPE   H9X16891   7.296   0.932   7.199 -1.3000 -0.0213  1.8869
  152SAPE   H9Y16892   7.462   0.881   7.218  0.5604  0.1006  1.3118
  152SAPE  C31016893   7.328   0.839   7.389 -0.4030 -0.5179 -0.7102
  152SAPE  H10X16894   7.350   0.738   7.429  0.3303  0.5804  1.9090
  152SAPE  H10Y16895   7.218   0.841   7.403 -0.1103  0.6519  2.0769
  152SAPE  C31116896   7.398   0.948   7.474 -0.0866 -0.7284 -0.4305
  152SAPE  H11X16897   7.504   0.970   7.448  0.4625 -2.1295  0.4867
  152SAPE  H11Y16898   7.401   0.908   7.577  0.2335  0.1201 -0.1017
  152SAPE  C31216899   7.329   1.084   7.467 -0.3734  0.3902 -0.2727
  152SAPE  H12X16900   7.335   1.133   7.368  0.4410  2.2400  0.6287
  152SAPE  H12Y16901   7.380   1.152   7.539 -0.5324 -0.6024  0.8202
  152SAPE  C31316902   7.186   1.065   7.517 -1.2932  0.2798  0.1970
  152SAPE  H13X16903   7.186   1.016   7.617 -2.5419 -0.6348 -0.2232
  152SAPE  H13Y16904   7.115   1.000   7.462 -0.7968 -0.9112  0.9062
  152SAPE  C31416905   7.116   1.203   7.537  0.1161 -0.3759 -0.4541
  152SAPE  H14X16906   7.168   1.257   7.619 -0.1578 -1.8629  0.7376
  152SAPE  H14Y16907   7.014   1.183   7.576  0.8265  0.3220  1.9785
  152SAPE  C31516908   7.113   1.299   7.418  0.0780  0.1350  0.7572
  152SAPE  H15X16909   7.216   1.335   7.400  0.1183 -0.0378  0.6313
  152SAPE  H15Y16910   7.059   1.393   7.440  0.0592  0.1397  0.6917
  152SAPE  C31616911   7.040   1.261   7.283  0.1600 -0.0196 -0.2330
  152SAPE  H16X16912   7.079   1.160   7.262 -1.7252 -0.1239 -4.0113
  152SAPE  H16Y16913   7.073   1.337   7.209 -1.4681 -0.5424 -1.5455
  152SAPE  C31716914   6.894   1.249   7.306  0.8856 -0.8164 -0.5448
  152SAPE  H17X16915   6.853   1.333   7.365 -0.1334 -1.0569 -0.8862
  152SAPE  H17Y16916   6.869   1.159   7.367 -1.3883 -0.0326 -0.2276
  152SAPE  C31816917   6.817   1.240   7.176  0.7856 -0.6062  0.5103
  152SAPE  H18X16918   6.792   1.336   7.126 -2.0650 -0.2252  2.3950
  152SAPE  H18Y16919   6.720   1.195   7.204 -0.0721  1.3295  0.7969
  152SAPE  H18Z16920   6.873   1.170   7.110  1.2609 -1.1238  1.4352
  153SAPE     N16921   0.516   0.948   6.112 -0.8029 -0.6316 -0.5670
  153SAPE   HN116922   0.475   0.861   6.150  1.3909 -1.7253 -0.5105
  153SAPE   HN216923   0.485   0.962   6.014  4.4809  1.0775 -2.3972
  153SAPE   HN316924   0.620   0.938   6.113 -0.8697 -1.3817 -0.7748
  153SAPE   C1216925   0.483   1.070   6.202  0.3588  0.1825 -0.1874
  153SAPE  H12A16926   0.496   1.156   6.133 -0.8822  2.3976  2.1550
  153SAPE  H12B16927   0.570   1.084   6.270 -1.0119 -1.7080  2.1178
  153SAPE   C1116928   0.363   1.055   6.292 -0.2442  0.0149  0.5110
  153SAPE  H11A16929   0.350   1.143   6.359 -1.3441  1.2416 -1.2259
  153SAPE  H11B16930   0.387   0.970   6.360  1.7525  0.6160  0.6140
  153SAPE     P16931   0.136   1.143   6.188 -0.5262  0.1199 -0.1027
  153SAPE   O1316932   0.210   1.264   6.149 -0.0769 -0.6423 -0.0044
  153SAPE   O1416933   0.042   1.087   6.084 -0.4773  0.5549 -0.4866
  153SAPE   O1216934   0.241   1.036   6.222  0.7117 -0.1952 -0.3859
  153SAPE   O1116935   0.055   1.179   6.322  0.1966 -0.2484 -0.3244
  153SAPE    C116936   0.024   1.072   6.417  0.3879  0.0996  0.0496
  153SAPE    HA16937  -0.052   1.000   6.382 -0.4370  1.3499 -0.8351
  153SAPE    HB16938   0.117   1.021   6.450  1.6417  1.4413 -1.2607
  153SAPE    C216939  -0.032   1.145   6.545  0.5103 -0.3107 -0.5363
  153SAPE    HS16940   0.033   1.234   6.561 -1.2259  1.2322 -1.5800
  153SAPE   O2116941  -0.023   1.051   6.652  0.4178  0.0235 -0.4909
  153SAPE   C2116942   0.086   1.059   6.725  0.0349 -0.1613 -0.1124
  153SAPE   O2216943   0.172   1.142   6.716 -0.2003 -0.0107  0.1715
  153SAPE   C2216944   0.101   0.935   6.819 -0.1822 -0.4429  0.4839
  153SAPE   H2R16945   0.141   0.861   6.747 -0.6269 -0.9044  0.7034
  153SAPE   H2S16946   0.183   0.951   6.892  1.6859 -0.8386 -1.4115
  153SAPE    C316947  -0.184   1.191   6.525  0.0682  0.1001  0.1624
  153SAPE    HX16948  -0.240   1.098   6.498  0.3893  0.1790 -0.8063
  153SAPE    HY16949  -0.207   1.250   6.434 -0.0728  2.8377  1.8793
  153SAPE   O3116950  -0.242   1.256   6.642  0.2074 -0.6504  0.5039
  153SAPE   C3116951  -0.233   1.390   6.641  0.4525  0.5892 -0.1578
  153SAPE   O3216952  -0.196   1.459   6.550 -0.0136 -0.5038 -0.4273
  153SAPE   C3216953  -0.310   1.446   6.761  0.2039 -0.6394 -0.5778
  153SAPE   H2X16954  -0.418   1.422   6.759 -0.5911  2.3101  0.9597
  153SAPE   H2Y16955  -0.305   1.557   6.764  0.7384 -0.6759  0.8869
  153SAPE   C2316956  -0.029   0.888   6.885  0.3587  0.3143  0.3372
  153SAPE   H3R16957  -0.116   0.883   6.816  1.7141 -1.6694 -1.3664
  153SAPE   H3S16958  -0.072   0.962   6.956 -1.0701  0.1893 -0.3662
  153SAPE   C2416959  -0.016   0.740   6.935 -0.4718  0.0628 -0.0007
  153SAPE   H4R16960   0.088   0.730   6.972 -0.1311  1.5267 -0.4776
  153SAPE   H4S16961  -0.027   0.671   6.848  0.9194  0.8612 -0.8498
  153SAPE   C2516962  -0.136   0.726   7.035 -1.0834 -0.9166 -0.0855
  153SAPE   H5R16963  -0.240   0.724   7.001 -1.2844  2.1209  0.0256
  153SAPE   C2616964  -0.118   0.731   7.167 -0.3526  0.5144 -0.0521
  153SAPE   H6R16965  -0.200   0.712   7.238 -0.0097  1.1734  0.5294
  153SAPE   C2716966   0.010   0.755   7.253  0.9582  0.2388  0.1330
  153SAPE   H7R16967   0.094   0.774   7.183  0.6686  2.8976  0.4154
  153SAPE   H7S16968   0.035   0.664   7.312  0.3262 -0.4469 -0.6252
  153SAPE   C2816969  -0.022   0.876   7.335 -0.5477  0.0719  0.5898
  153SAPE   H8R16970  -0.019   0.965   7.271 -1.2338  1.5189  2.4940
  153SAPE   C2916971  -0.026   0.882   7.473  0.7517 -0.3864  1.2601
  153SAPE   H9R16972  -0.041   0.974   7.530  2.3602 -0.2622  1.5493
  153SAPE  C21016973  -0.005   0.763   7.567  0.0326 -0.0424 -0.6443
  153SAPE  H10R16974  -0.050   0.674   7.518  1.2201 -0.4088 -1.0883
  153SAPE  H10S16975  -0.064   0.776   7.660  2.5723 -0.2885  1.0933
  153SAPE  C21116976   0.143   0.752   7.593  0.2452  0.5705  0.0428
  153SAPE  H11R16977   0.199   0.682   7.528 -0.6781  1.0451 -1.3004
  153SAPE  C21216978   0.215   0.801   7.696  0.7052  0.3048  0.2623
  153SAPE  H12R16979   0.323   0.787   7.681  0.0946 -1.8866 -3.0488
  153SAPE  C21316980   0.170   0.879   7.813  0.0912 -0.0583  0.2676
  153SAPE  H13R16981   0.085   0.825   7.860  1.6550 -2.6231  0.3879
  153SAPE  H13S16982   0.124   0.971   7.774  0.0576  0.4299  1.4093
  153SAPE  C21416983   0.272   0.909   7.922  0.0151 -0.6112 -0.1917
  153SAPE  H14R16984   0.372   0.930   7.881  0.5163 -1.8440  0.3616
  153SAPE  C21516985   0.253   0.912   8.053 -0.2195 -1.1601 -0.3760
  153SAPE  H15R16986   0.344   0.948   8.104 -0.7947  3.4141 -2.0543
  153SAPE  C21616987   0.127   0.889   8.140 -0.0331  0.3984  0.1525
  153SAPE  H16R16988   0.132   0.801   8.208 -1.8068  0.6611  0.6706
  153SAPE  H16S16989   0.046   0.860   8.070 -0.8054  0.1261  1.1424
  153SAPE  C21716990   0.098   1.014   8.222  0.5560 -0.2085  0.1515
  153SAPE  H17R16991  -0.003   1.015   8.268  0.4453  0.5895 -0.0808
  153SAPE  H17S16992   0.091   1.107   8.162  2.7173 -0.2168 -0.1884
  153SAPE  C21816993   0.197   1.025   8.342 -0.3162 -0.3905 -0.1188
  153SAPE  H18R16994   0.302   1.038   8.307 -0.7024 -0.1553 -1.2272
  153SAPE  H18S16995   0.190   0.923   8.386 -1.0416  0.2610  1.3500
  153SAPE  C21916996   0.151   1.130   8.441  0.7630 -0.2266 -0.0504
  153SAPE  H19R16997   0.051   1.108   8.484 -0.3678  2.2760 -1.1786
  153SAPE  H19S16998   0.148   1.233   8.398  0.1016  1.2111  3.0979
  153SAPE  C22016999   0.225   1.142   8.565  0.5859  0.5365  0.0550
  153SAPE  H20R17000   0.181   1.225   8.623  0.2447  0.7143 -0.4489
  153SAPE  H20S17001   0.329   1.164   8.534  0.3846  1.2042 -0.1516
  153SAPE  H20T17002   0.215   1.041   8.612 -0.4658  1.5338  2.0983
  153SAPE   C3317003  -0.248   1.393   6.894  0.2807 -0.0378  0.6237
  153SAPE   H3X17004  -0.141   1.417   6.911 -0.0919  2.4315 -0.0192
  153SAPE   H3Y17005  -0.270   1.285   6.892 -1.8195  0.3593 -0.5407
  153SAPE   C3417006  -0.327   1.449   7.008  0.3213 -0.0020  0.2013
  153SAPE   H4X17007  -0.297   1.390   7.098  2.5366  1.0412  0.2241
  153SAPE   H4Y17008  -0.434   1.435   6.984  0.7203 -1.0621 -1.0287
  153SAPE   C3517009  -0.305   1.595   7.042 -0.0778 -0.6241 -0.2601
  153SAPE   H5X17010  -0.362   1.652   6.966  0.3794 -0.8296 -0.7619
  153SAPE   H5Y17011  -0.202   1.637   7.032 -0.9743  1.0316 -4.2057
  153SAPE   C3617012  -0.339   1.630   7.190  0.7179  0.4743 -0.1904
  153SAPE   H6X17013  -0.440   1.587   7.209  1.4374 -1.3652 -0.3461
  153SAPE   H6Y17014  -0.346   1.741   7.188 -2.2374  0.3706 -0.4658
  153SAPE   C3717015  -0.242   1.576   7.295 -0.3429  0.2349 -0.5677
  153SAPE   H7X17016  -0.149   1.636   7.301 -0.9853  1.1777  0.1463
  153SAPE   H7Y17017  -0.215   1.470   7.274  3.3651  0.3677  2.4604
  153SAPE   C3817018  -0.290   1.567   7.440  0.2848  0.3421 -0.1955
  153SAPE   H8X17019  -0.393   1.530   7.458  0.2217  0.8655  0.5736
  153SAPE   H8Y17020  -0.287   1.673   7.475 -0.0222  0.7783 -1.4244
  153SAPE   C3917021  -0.199   1.497   7.541 -0.2941  0.5035  1.0342
  153SAPE   H9X17022  -0.210   1.542   7.642 -0.5928 -0.1885  1.3198
  153SAPE   H9Y17023  -0.096   1.502   7.499 -1.7062  1.4525 -2.6838
  153SAPE  C31017024  -0.238   1.347   7.558  0.3478  0.1986  0.1088
  153SAPE  H10X17025  -0.253   1.293   7.462 -0.9306  0.5980  0.0680
  153SAPE  H10Y17026  -0.336   1.345   7.610  0.7458  0.7683  0.8974
  153SAPE  C31117027  -0.127   1.278   7.643 -0.1736 -0.0478 -0.6872
  153SAPE  H11X17028  -0.096   1.343   7.728  1.0803 -1.3934 -0.0627
  153SAPE  H11Y17029  -0.039   1.262   7.577  0.2694 -0.5974  0.0137
  153SAPE  C31217030  -0.161   1.137   7.698 -0.5847  0.1869  0.3189
  153SAPE  H12X17031  -0.066   1.080   7.709 -0.7423 -0.6538 -2.0595
  153SAPE  H12Y17032  -0.225   1.092   7.619 -0.8130 -1.6283  1.5062
  153SAPE  C31317033  -0.236   1.125   7.831 -0.0532  0.7618 -0.1319
  153SAPE  H13X17034  -0.273   1.020   7.824  1.4422  0.2787 -1.6603
  153SAPE  H13Y17035  -0.319   1.198   7.829  0.6884  1.6293 -2.2995
  153SAPE  C31417036  -0.154   1.138   7.962  0.3311 -0.4750 -0.4340
  153SAPE  H14X17037  -0.107   1.238   7.969  1.3210 -0.9390 -0.3553
  153SAPE  H14Y17038  -0.069   1.067   7.955  1.9493  1.5158 -3.1487
  153SAPE  C31517039  -0.246   1.106   8.091 -0.3567 -0.7412 -0.0331
  153SAPE  H15X17040  -0.338   1.167   8.077 -1.3378 -1.8599  1.2611
  153SAPE  H15Y17041  -0.194   1.142   8.182 -1.0501  0.8400 -0.2246
  153SAPE  C31617042  -0.269   0.957   8.126  0.0368 -0.6531 -0.6725
  153SAPE  H16X17043  -0.166   0.915   8.138  0.5876  1.1515  1.6998
  153SAPE  H16Y17044  -0.316   0.917   8.033 -1.1732 -1.3834  0.2317
  153SAPE  C31717045  -0.356   0.932   8.249 -0.8168 -0.0246  0.4986
  153SAPE  H17X17046  -0.457   0.975   8.232 -1.1982 -0.9484  0.3573
  153SAPE  H17Y17047  -0.325   0.990   8.338  1.7250  0.6778 -0.7633
  153SAPE  C31817048  -0.372   0.783   8.288  0.8220 -0.4005  0.2562
  153SAPE  H18X17049  -0.432   0.777   8.381  0.6901 -3.4570  0.0445
  153SAPE  H18Y17050  -0.275   0.733   8.304  2.5913  1.7058 -2.6746
  153SAPE  H18Z17051  -0.426   0.720   8.214 -0.9792  1.0161  0.2572
  154SAPE     N17052   2.552   0.712   6.345  0.1959 -0.3273  0.6666
  154SAPE   HN117053   2.555   0.815   6.327  1.1927 -0.5291 -0.4316
  154SAPE   HN217054   2.626   0.693   6.416 -0.9492 -1.1156  1.6819
  154SAPE   HN317055   2.577   0.658   6.260  1.0762  3.6765 -1.9277
  154SAPE   C1217056   2.417   0.671   6.416 -0.1739  0.0576 -0.2440
  154SAPE  H12A17057   2.401   0.732   6.507 -2.3489  0.9946 -1.1959
  154SAPE  H12B17058   2.421   0.562   6.437  3.6545  0.3549  1.3129
  154SAPE   C1117059   2.301   0.713   6.324 -0.9029 -0.2104 -0.4204
  154SAPE  H11A17060   2.204   0.676   6.363  1.0076 -2.8621  2.3582
  154SAPE  H11B17061   2.325   0.658   6.230 -0.0853 -1.6714  0.5891
  154SAPE     P17062   2.239   0.968   6.387 -0.5164 -0.1341 -0.0573
  154SAPE   O1317063   2.251   1.100   6.318 -0.5837  0.1433  0.0297
  154SAPE   O1417064   2.106   0.920   6.426  0.2438  0.1543 -0.1906
  154SAPE   O1217065   2.300   0.852   6.288  0.4547 -0.5609 -0.0951
  154SAPE   O1117066   2.334   0.967   6.505  0.0585  0.0201 -0.7418
  154SAPE    C117067   2.275   1.027   6.626  0.6369 -0.3706 -0.1819
  154SAPE    HA17068   2.224   1.124   6.611 -0.0765 -0.6305  0.4657
  154SAPE    HB17069   2.207   0.955   6.677  1.3678  0.7443  2.5872
  154SAPE    C217070   2.398   1.052   6.731 -0.2412 -0.1481 -0.1314
  154SAPE    HS17071   2.347   1.091   6.822 -1.2177  1.3558 -1.2964
  154SAPE   O2117072   2.490   1.139   6.674 -1.4121  0.0232  0.6519
  154SAPE   C2117073   2.561   1.197   6.765  0.4434 -0.4283 -0.3918
  154SAPE   O2217074   2.539   1.200   6.888  0.1839 -0.3628 -0.5671
  154SAPE   C2217075   2.680   1.267   6.702  1.1748 -0.7351  0.9890
  154SAPE   H2R17076   2.646   1.369   6.676 -2.1896 -2.0028 -0.1466
  154SAPE   H2S17077   2.762   1.261   6.777  2.2879 -0.2581 -0.1475
  154SAPE    C317078   2.463   0.922   6.767 -0.3695 -0.5699 -0.0744
  154SAPE    HX17079   2.529   0.900   6.680  0.7641  1.4704  0.2014
  154SAPE    HY17080   2.380   0.848   6.768 -0.6153 -0.3355 -1.1457
  154SAPE   O3117081   2.554   0.917   6.883  0.0579  0.0275 -0.1219
  154SAPE   C3117082   2.474   0.904   6.996  0.2095 -0.1782  0.2072
  154SAPE   O3217083   2.353   0.906   6.995  0.0175 -0.6379 -0.3526
  154SAPE   C3217084   2.570   0.910   7.117 -0.3257  0.1058 -0.1269
  154SAPE   H2X17085   2.640   0.994   7.099 -0.1528 -0.3760 -1.8867
  154SAPE   H2Y17086   2.639   0.823   7.122  1.0417  1.1103 -0.9039
  154SAPE   C2317087   2.723   1.195   6.574 -0.0568  0.6022 -0.3406
  154SAPE   H3R17088   2.647   1.220   6.497  0.1330 -1.5378 -1.2722
  154SAPE   H3S17089   2.719   1.086   6.590 -2.2996  0.8511  1.4150
  154SAPE   C2417090   2.852   1.241   6.519 -0.0384 -0.0756 -0.7632
  154SAPE   H4R17091   2.881   1.189   6.425 -1.6847 -1.4690 -0.5589
  154SAPE   H4S17092   2.925   1.201   6.592 -0.9378 -2.6952 -1.1687
  154SAPE   C2517093   2.859   1.396   6.522 -0.1023  1.0510  0.6618
  154SAPE   H5R17094   2.808   1.439   6.434  1.2951  1.3389 -0.0318
  154SAPE   C2617095   2.924   1.481   6.598 -0.0855 -0.5407 -0.1667
  154SAPE   H6R17096   2.928   1.590   6.584  2.8078 -0.3712  1.1832
  154SAPE   C2717097   3.012   1.446   6.720 -0.0273 -0.4530  0.7160
  154SAPE   H7R17098   2.963   1.363   6.775  0.0763 -0.1038  1.3318
  154SAPE   H7S17099   3.014   1.535   6.785  1.8348 -0.9798  1.4313
  154SAPE   C2817100   3.156   1.405   6.683  0.1698 -0.1568  0.0120
  154SAPE   H8R17101   3.188   1.430   6.580  0.5342  0.0988  0.1876
  154SAPE   C2917102   3.248   1.346   6.758 -0.7236 -0.7737  0.4021
  154SAPE   H9R17103   3.343   1.314   6.713 -0.1996 -0.5407  1.3179
  154SAPE  C21017104   3.226   1.298   6.899 -0.1561  0.2882 -0.4050
  154SAPE  H10R17105   3.223   1.187   6.910 -1.2152  0.3029 -0.4455
  154SAPE  H10S17106   3.139   1.341   6.952  1.7471  0.5480  2.7241
  154SAPE  C21117107   3.351   1.327   6.983 -0.2146 -0.2483  0.1450
  154SAPE  H11R17108   3.445   1.314   6.927 -0.0430 -0.7607  0.5385
  154SAPE  C21217109   3.346   1.368   7.106 -0.5279  0.6252 -0.1576
  154SAPE  H12R17110   3.440   1.400   7.154  0.3968  0.1621 -1.6198
  154SAPE  C21317111   3.220   1.373   7.189  0.0121  0.4067 -1.1083
  154SAPE  H13R17112   3.152   1.286   7.178 -0.3599  0.4912  0.3084
  154SAPE  H13S17113   3.162   1.461   7.152 -0.3903  0.7508  0.3073
  154SAPE  C21417114   3.252   1.397   7.332  0.0790  0.8890 -1.2125
  154SAPE  H14R17115   3.341   1.345   7.370 -1.6161 -0.3820  1.3125
  154SAPE  C21517116   3.183   1.486   7.414  0.3734 -0.1609  0.0894
  154SAPE  H15R17117   3.205   1.501   7.521 -0.8404 -0.4037  0.3817
  154SAPE  C21617118   3.058   1.561   7.368 -0.5435  0.5877  0.0060
  154SAPE  H16R17119   3.028   1.546   7.262 -0.6436 -0.7641  0.2126
  154SAPE  H16S17120   3.074   1.670   7.384  1.1507  0.2836  0.4868
  154SAPE  C21717121   2.934   1.536   7.458  0.2250  0.3058 -0.1141
  154SAPE  H17R17122   2.854   1.613   7.453 -1.8578 -1.7118  0.7269
  154SAPE  H17S17123   2.962   1.541   7.565 -0.7994 -1.4048  0.2632
  154SAPE  C21817124   2.886   1.389   7.442  0.2301  0.0116 -0.3890
  154SAPE  H18R17125   2.961   1.320   7.487  0.3012  0.6784  0.5267
  154SAPE  H18S17126   2.860   1.366   7.337 -0.8648 -1.4029  0.1562
  154SAPE  C21917127   2.750   1.373   7.516 -0.3424 -0.4246  0.1887
  154SAPE  H19R17128   2.709   1.271   7.498  0.5229 -0.6801 -0.3855
  154SAPE  H19S17129   2.684   1.448   7.468  1.4831  0.4795 -1.0080
  154SAPE  C22017130   2.758   1.393   7.672 -0.6811  0.0038 -0.3859
  154SAPE  H20R17131   2.785   1.500   7.688  2.1973 -0.8301  0.8970
  154SAPE  H20S17132   2.831   1.321   7.714  1.0911 -0.0558 -3.3080
  154SAPE  H20T17133   2.655   1.378   7.712 -0.7707  2.0057  0.2733
  154SAPE   C3317134   2.507   0.948   7.260  0.2469  0.5550 -0.0451
  154SAPE   H3X17135   2.457   0.858   7.300  0.0939  0.9799  0.7425
  154SAPE   H3Y17136   2.438   1.035   7.253 -0.3239  0.1968  0.9270
  154SAPE   C3417137   2.616   0.993   7.361  0.1142  0.5661  0.4635
  154SAPE   H4X17138   2.646   1.096   7.332 -3.0923  1.4033 -0.2029
  154SAPE   H4Y17139   2.693   0.913   7.353 -2.6074 -2.0520 -2.4473
  154SAPE   C3517140   2.569   0.985   7.503  0.7973  0.1388  0.4720
  154SAPE   H5X17141   2.653   1.017   7.569 -0.0973 -0.0512  1.7593
  154SAPE   H5Y17142   2.539   0.880   7.522  0.3821  0.3130  0.8218
  154SAPE   C3617143   2.452   1.078   7.536  0.6216 -0.3438  0.0320
  154SAPE   H6X17144   2.363   1.047   7.476  1.1544 -1.2822 -0.2868
  154SAPE   H6Y17145   2.479   1.183   7.509  0.4485  0.0282  1.2588
  154SAPE   C3717146   2.406   1.070   7.682 -0.0218 -0.0495  0.0967
  154SAPE   H7X17147   2.487   1.101   7.751  0.7583 -2.0640  0.1529
  154SAPE   H7Y17148   2.391   0.970   7.728  1.0125  0.0546  0.6826
  154SAPE   C3817149   2.291   1.161   7.703  1.2444 -0.6776 -0.6131
  154SAPE   H8X17150   2.198   1.145   7.644  0.6791  1.8966 -0.5178
  154SAPE   H8Y17151   2.328   1.265   7.693 -1.0969  0.1904 -0.9277
  154SAPE   C3917152   2.232   1.166   7.849  0.2090 -0.4778  0.0916
  154SAPE   H9X17153   2.205   1.063   7.882 -4.1426  0.5483  0.4325
  154SAPE   H9Y17154   2.140   1.229   7.847  0.0556 -0.7025  0.0290
  154SAPE  C31017155   2.332   1.216   7.946  0.3435  0.6082 -0.0759
  154SAPE  H10X17156   2.387   1.298   7.896  0.8197 -0.0541 -0.6631
  154SAPE  H10Y17157   2.403   1.133   7.966 -0.9244 -0.8231 -1.2503
  154SAPE  C31117158   2.268   1.262   8.080  0.2769 -0.2542  0.2200
  154SAPE  H11X17159   2.207   1.181   8.126 -1.2474 -1.2781 -3.2057
  154SAPE  H11Y17160   2.179   1.324   8.054 -0.0745 -1.6745 -2.3498
  154SAPE  C31217161   2.373   1.327   8.168  0.2996 -0.7237  0.3395
  154SAPE  H12X17162   2.327   1.370   8.259 -0.0381 -0.3309 -0.0123
  154SAPE  H12Y17163   2.413   1.418   8.118 -1.8463 -0.2826 -0.6847
  154SAPE  C31317164   2.488   1.224   8.208  0.4980 -0.2817  0.7309
  154SAPE  H13X17165   2.546   1.207   8.115 -1.9058  1.5557 -1.2393
  154SAPE  H13Y17166   2.437   1.128   8.232  0.8633 -0.5872  0.3173
  154SAPE  C31417167   2.575   1.276   8.316 -0.4347  0.1738 -0.6042
  154SAPE  H14X17168   2.606   1.380   8.295  3.3297 -0.4979  0.7438
  154SAPE  H14Y17169   2.666   1.212   8.311 -2.1987 -2.4288 -2.0135
  154SAPE  C31517170   2.508   1.258   8.454  0.0201  0.9243 -0.0910
  154SAPE  H15X17171   2.494   1.153   8.489 -0.0013  0.1664 -2.2105
  154SAPE  H15Y17172   2.400   1.275   8.435 -0.8670 -2.4888  1.2689
  154SAPE  C31617173   2.562   1.355   8.555  0.1796 -0.4310  0.5769
  154SAPE  H16X17174   2.558   1.460   8.519 -2.1184 -0.4160  0.7472
  154SAPE  H16Y17175   2.669   1.330   8.573  0.9782  2.5360  0.4470
  154SAPE  C31717176   2.487   1.350   8.691  0.6222  0.5803 -0.6454
  154SAPE  H17X17177   2.527   1.424   8.763 -2.2488  2.5553 -0.8899
  154SAPE  H17Y17178   2.505   1.250   8.735  2.8852  0.4275 -1.7876
  154SAPE  C31817179   2.337   1.374   8.666  0.2638 -0.0855 -0.2052
  154SAPE  H18X17180   2.339   1.472   8.613  2.2956  1.7787  3.0190
  154SAPE  H18Y17181   2.284   1.371   8.763  2.1540 -1.6384  0.8456
  154SAPE  H18Z17182   2.289   1.303   8.594  0.4268  1.8986 -2.3951
  155SAPE     N17183   2.905   2.518   6.221 -0.0388  0.4149  0.1511
  155SAPE   HN117184   2.847   2.521   6.135 -0.1685 -0.2241  0.2075
  155SAPE   HN217185   3.004   2.496   6.197  0.3463  1.8720  0.2961
  155SAPE   HN317186   2.859   2.440   6.272 -1.3584  1.3443  0.4189
  155SAPE   C1217187   2.902   2.644   6.307  0.1892  0.6649 -0.6154
  155SAPE  H12A17188   2.797   2.665   6.336 -0.3702 -1.3650 -0.9796
  155SAPE  H12B17189   2.933   2.733   6.249  1.6341  0.6650  0.1312
  155SAPE   C1117190   3.004   2.637   6.421  0.3905 -0.0032  0.4878
  155SAPE  H11A17191   2.985   2.563   6.501  1.6795  1.1337  1.8950
  155SAPE  H11B17192   3.005   2.730   6.482  1.6985 -0.3637  1.0386
  155SAPE     P17193   3.257   2.693   6.356  0.2100  0.0159  0.6975
  155SAPE   O1317194   3.356   2.615   6.276 -0.4589 -0.3911 -0.2149
  155SAPE   O1417195   3.224   2.830   6.305 -0.5931 -0.8214  0.7454
  155SAPE   O1217196   3.129   2.603   6.362 -0.2646 -0.5245  0.0688
  155SAPE   O1117197   3.312   2.711   6.500  0.3736 -0.2384  0.3593
  155SAPE    C117198   3.402   2.618   6.570 -0.0605  0.0012 -0.0161
  155SAPE    HA17199   3.435   2.536   6.503 -0.1192 -0.9162  1.0494
  155SAPE    HB17200   3.486   2.667   6.624  0.4973 -1.3375  0.3748
  155SAPE    C217201   3.329   2.552   6.686 -0.8806 -0.2313 -0.2378
  155SAPE    HS17202   3.250   2.480   6.656 -0.3427 -0.6940 -0.5583
  155SAPE   O2117203   3.279   2.663   6.777  0.0991 -0.7526 -0.0606
  155SAPE   C2117204   3.151   2.678   6.802  0.2622  0.1847 -0.1527
  155SAPE   O2217205   3.068   2.593   6.775 -0.4271  0.7325 -0.5036
  155SAPE   C2217206   3.118   2.811   6.875 -0.6510  0.2003 -0.1709
  155SAPE   H2R17207   3.195   2.807   6.955  0.8301 -1.4130 -1.6096
  155SAPE   H2S17208   3.133   2.902   6.813 -2.1998  1.3815  1.0799
  155SAPE    C317209   3.430   2.462   6.761 -0.4065 -0.7896 -0.0544
  155SAPE    HX17210   3.516   2.527   6.788 -1.8711  0.9187  0.7819
  155SAPE    HY17211   3.474   2.386   6.694 -0.3757 -1.3736  0.6174
  155SAPE   O3117212   3.372   2.401   6.880 -0.5711  0.7704  0.3638
  155SAPE   C3117213   3.287   2.302   6.872  0.3916  0.9057 -1.1180
  155SAPE   O3217214   3.255   2.249   6.767  0.2006 -0.1301  0.4670
  155SAPE   C3217215   3.246   2.248   7.016  1.2880 -0.0826 -0.2994
  155SAPE   H2X17216   3.277   2.141   7.009  0.4413 -0.2715 -1.3990
  155SAPE   H2Y17217   3.135   2.247   7.016  1.2640  0.5633 -1.5553
  155SAPE   C2317218   2.979   2.813   6.944  0.3672  0.0475 -0.4036
  155SAPE   H3R17219   2.904   2.787   6.867 -1.6026  1.0110  1.0795
  155SAPE   H3S17220   2.958   2.920   6.966  1.7657  0.4474 -0.9251
  155SAPE   C2417221   2.985   2.734   7.078  0.4288  0.3291  0.5737
  155SAPE   H4R17222   3.071   2.783   7.127  1.0545 -0.3391  0.1707
  155SAPE   H4S17223   2.996   2.627   7.050  0.0152  0.4388 -0.0429
  155SAPE   C2517224   2.859   2.752   7.161 -0.2949  0.3904 -0.2763
  155SAPE   H5R17225   2.769   2.775   7.103  0.3241  1.0878 -0.9682
  155SAPE   C2617226   2.854   2.761   7.297 -0.8595  0.5232 -0.5390
  155SAPE   H6R17227   2.756   2.784   7.342 -1.4665 -1.3401 -0.8229
  155SAPE   C2717228   2.965   2.749   7.400 -0.9656  0.6701 -0.4281
  155SAPE   H7R17229   2.950   2.805   7.494  4.0794 -0.0161  1.0711
  155SAPE   H7S17230   3.055   2.795   7.354 -0.3947 -2.5221 -2.9515
  155SAPE   C2817231   2.991   2.601   7.431 -0.2004 -0.0972  0.7797
  155SAPE   H8R17232   2.980   2.531   7.347 -1.9529 -0.2089  1.0652
  155SAPE   C2917233   3.017   2.548   7.553 -0.3774 -0.5848  0.1996
  155SAPE   H9R17234   3.042   2.441   7.566  0.7372 -0.2022  1.4414
  155SAPE  C21017235   3.014   2.629   7.684 -0.4862  0.0921  0.0782
  155SAPE  H10R17236   3.043   2.734   7.659 -0.0418 -0.7360 -3.4597
  155SAPE  H10S17237   3.107   2.601   7.739  0.4668  0.3207 -1.3617
  155SAPE  C21117238   2.895   2.593   7.765  0.7439  0.0112 -0.5376
  155SAPE  H11R17239   2.798   2.628   7.728  0.5288  0.1069  0.1006
  155SAPE  C21217240   2.902   2.526   7.882  0.0330 -0.6110  0.2004
  155SAPE  H12R17241   2.806   2.501   7.930 -1.0522  1.8955 -0.4693
  155SAPE  C21317242   3.029   2.469   7.946 -0.3856  0.3037  0.4168
  155SAPE  H13R17243   3.100   2.442   7.866 -0.4738 -0.3878  0.5659
  155SAPE  H13S17244   3.000   2.370   7.985 -1.4582  0.8604  1.1029
  155SAPE  C21417245   3.104   2.554   8.049  0.3745 -0.0272  0.9691
  155SAPE  H14R17246   3.133   2.654   8.013  0.2556 -0.5934 -0.7929
  155SAPE  C21517247   3.134   2.522   8.175  0.2893  0.4344  0.4427
  155SAPE  H15R17248   3.189   2.594   8.238 -0.0035  1.2006 -0.1654
  155SAPE  C21617249   3.089   2.393   8.243  0.2885  0.7384  0.3417
  155SAPE  H16R17250   3.176   2.325   8.254 -1.9489 -2.4359  0.1333
  155SAPE  H16S17251   3.022   2.328   8.182 -0.1111  0.8731  0.6352
  155SAPE  C21717252   3.037   2.415   8.379 -0.0627 -0.1554  0.4174
  155SAPE  H17R17253   3.097   2.491   8.434  1.8017 -1.9753  1.0065
  155SAPE  H17S17254   3.049   2.327   8.446 -1.7205 -1.1604 -0.5459
  155SAPE  C21817255   2.888   2.462   8.374 -1.0914  0.2333 -0.6740
  155SAPE  H18R17256   2.835   2.376   8.327  1.0143 -0.1907 -2.4129
  155SAPE  H18S17257   2.866   2.540   8.298 -2.2852  1.2782  0.6848
  155SAPE  C21917258   2.837   2.510   8.503 -0.0153  0.2541  0.1741
  155SAPE  H19R17259   2.893   2.601   8.535 -0.2291  0.3353  0.3262
  155SAPE  H19S17260   2.843   2.434   8.584 -0.5593  1.7144  1.6573
  155SAPE  C22017261   2.692   2.567   8.512 -0.0075 -0.0417  0.3552
  155SAPE  H20R17262   2.624   2.479   8.510  0.1376 -0.1732 -1.9632
  155SAPE  H20S17263   2.661   2.618   8.418 -1.1812  0.3822  0.9543
  155SAPE  H20T17264   2.669   2.636   8.596 -1.3781 -0.9516  0.7616
  155SAPE   C3317265   3.305   2.329   7.133 -0.3488 -0.5542 -0.2733
  155SAPE   H3X17266   3.279   2.437   7.119  2.1839  0.2909  0.8696
  155SAPE   H3Y17267   3.415   2.312   7.135  0.2352  2.5032 -0.7048
  155SAPE   C3417268   3.250   2.293   7.273 -0.0947  0.0498 -0.4797
  155SAPE   H4X17269   3.144   2.321   7.290  0.2011  0.5992  0.5633
  155SAPE   H4Y17270   3.309   2.368   7.330  0.1780 -0.3784 -0.1904
  155SAPE   C3517271   3.288   2.154   7.325 -0.4486 -0.1913 -0.1164
  155SAPE   H5X17272   3.399   2.158   7.331 -0.4931  1.5670 -0.0250
  155SAPE   H5Y17273   3.258   2.077   7.250  0.9610 -2.0441  1.1261
  155SAPE   C3617274   3.246   2.118   7.468  0.1295 -0.3995  0.2400
  155SAPE   H6X17275   3.171   2.195   7.497  0.2253  0.3148 -1.2867
  155SAPE   H6Y17276   3.336   2.141   7.529  0.9829 -0.7551 -0.8494
  155SAPE   C3717277   3.192   1.976   7.484  0.5451  0.1166 -0.0006
  155SAPE   H7X17278   3.263   1.898   7.450  0.5781  0.2418 -0.2218
  155SAPE   H7Y17279   3.101   1.950   7.425  1.3647  0.2511 -1.3560
  155SAPE   C3817280   3.155   1.950   7.633  0.3110 -0.7993 -0.4180
  155SAPE   H8X17281   3.081   2.026   7.666  0.8467 -1.3478  2.2492
  155SAPE   H8Y17282   3.244   1.966   7.698  0.0920  0.2520 -0.3655
  155SAPE   C3917283   3.093   1.813   7.657 -0.0640  0.0311  0.1591
  155SAPE   H9X17284   3.160   1.745   7.601 -0.3813  2.6047 -3.6884
  155SAPE   H9Y17285   2.988   1.815   7.620 -0.5548  0.2312  1.4668
  155SAPE  C31017286   3.084   1.774   7.813 -0.6504  0.2401  0.2781
  155SAPE  H10X17287   3.038   1.854   7.875  0.3160  0.0126  1.3207
  155SAPE  H10Y17288   3.188   1.769   7.850 -0.3224  0.0997 -0.6290
  155SAPE  C31117289   3.017   1.635   7.848  0.7544 -0.2492  0.7504
  155SAPE  H11X17290   3.076   1.554   7.800  2.6697  0.7251  1.3779
  155SAPE  H11Y17291   2.914   1.629   7.807 -0.0892 -0.1688  2.7579
  155SAPE  C31217292   3.007   1.614   8.004  0.1628  0.7023  0.3558
  155SAPE  H12X17293   2.938   1.681   8.059  0.0738 -0.3582  1.5755
  155SAPE  H12Y17294   3.110   1.627   8.043  0.4470  1.4117 -0.5821
  155SAPE  C31317295   2.953   1.476   8.036 -0.6595  0.2402 -0.2315
  155SAPE  H13X17296   3.003   1.389   7.988 -1.2178  0.6402 -1.6011
  155SAPE  H13Y17297   2.848   1.483   8.000 -0.1902  2.6753 -1.3370
  155SAPE  C31417298   2.944   1.431   8.185 -0.1096 -0.3148 -0.0177
  155SAPE  H14X17299   2.916   1.324   8.191 -0.3775 -0.2142  0.5736
  155SAPE  H14Y17300   2.857   1.478   8.235 -1.1438  1.2171 -2.9591
  155SAPE  C31517301   3.080   1.449   8.260  0.2614  0.5790  0.0872
  155SAPE  H15X17302   3.110   1.555   8.272  3.2861 -0.1177 -0.3662
  155SAPE  H15Y17303   3.155   1.392   8.200 -2.4470 -1.5081 -1.5839
  155SAPE  C31617304   3.081   1.382   8.399  0.1518 -0.2600  0.3368
  155SAPE  H16X17305   2.984   1.385   8.453 -1.2075 -1.5513 -1.8839
  155SAPE  H16Y17306   3.155   1.428   8.469  1.9434 -1.1228 -0.9179
  155SAPE  C31717307   3.123   1.233   8.400 -0.5654  0.2417 -0.4050
  155SAPE  H17X17308   3.225   1.219   8.359 -0.6612  0.4345 -0.7133
  155SAPE  H17Y17309   3.061   1.186   8.321 -1.1142 -0.8756  0.6602
  155SAPE  C31817310   3.090   1.150   8.527  0.6636 -0.0043  0.1988
  155SAPE  H18X17311   3.115   1.042   8.522  0.1794 -0.0804 -0.7357
  155SAPE  H18Y17312   2.983   1.154   8.556  0.6041  0.5229 -0.0742
  155SAPE  H18Z17313   3.148   1.200   8.608  0.4642  1.2221 -0.3921
  156SAPE     N17314   0.562   2.550   6.004  0.1306  0.6030  0.2153
  156SAPE   HN117315   0.528   2.629   6.062  2.2689  2.7241 -1.2249
  156SAPE   HN217316   0.664   2.531   6.013  0.4631  2.0675 -0.1172
  156SAPE   HN317317   0.558   2.592   5.909  0.4886 -0.8774 -0.4802
  156SAPE   C1217318   0.467   2.428   6.028  0.5454  0.0195 -0.4099
  156SAPE  H12A17319   0.496   2.348   5.957 -0.9485 -0.6267 -0.3191
  156SAPE  H12B17320   0.360   2.454   6.021  0.8080  3.0057  3.2180
  156SAPE   C1117321   0.469   2.387   6.179  0.0577 -0.3434  0.5360
  156SAPE  H11A17322   0.412   2.293   6.192 -0.7379 -0.4696 -2.9491
  156SAPE  H11B17323   0.413   2.470   6.227  1.3835  1.1982 -0.4253
  156SAPE     P17324   0.693   2.255   6.225 -0.1131  0.2001 -0.1632
  156SAPE   O1317325   0.671   2.188   6.092 -0.0342  0.4416  0.1041
  156SAPE   O1417326   0.837   2.284   6.260  0.3588  0.3047 -0.0173
  156SAPE   O1217327   0.600   2.380   6.244  0.0451  0.3809  0.6081
  156SAPE   O1117328   0.628   2.164   6.340  0.4729  0.3799  0.9174
  156SAPE    C117329   0.561   2.203   6.459 -0.0982  0.0491  0.9216
  156SAPE    HA17330   0.503   2.296   6.442  1.5174  1.0590  0.7460
  156SAPE    HB17331   0.484   2.128   6.486 -2.3874  1.5041 -1.1264
  156SAPE    C217332   0.658   2.225   6.581  0.1568 -0.5682  0.4872
  156SAPE    HS17333   0.751   2.277   6.548 -0.8891 -0.3731 -2.4173
  156SAPE   O2117334   0.689   2.099   6.642  0.5677 -0.3505 -0.1866
  156SAPE   C2117335   0.815   2.081   6.670  0.0801 -0.3651 -0.0652
  156SAPE   O2217336   0.909   2.141   6.619  0.1795  0.1568  0.4611
  156SAPE   C2217337   0.839   1.956   6.766  0.1753  0.6004  1.0436
  156SAPE   H2R17338   0.805   1.869   6.705 -0.8692  2.5068 -1.2911
  156SAPE   H2S17339   0.950   1.943   6.767 -0.0597 -2.0648  2.6937
  156SAPE    C317340   0.598   2.328   6.687  0.4194 -0.1053 -0.1919
  156SAPE    HX17341   0.518   2.279   6.747 -0.9025  0.3811 -1.5081
  156SAPE    HY17342   0.550   2.408   6.628 -0.2211 -1.9603 -2.3390
  156SAPE   O3117343   0.695   2.382   6.777  0.0888 -0.3444 -0.4029
  156SAPE   C3117344   0.753   2.505   6.749 -0.3832 -0.0301 -0.1450
  156SAPE   O3217345   0.732   2.575   6.651 -0.0511  0.0526 -0.5219
  156SAPE   C3217346   0.850   2.541   6.859  0.5548  0.0112 -0.6849
  156SAPE   H2X17347   0.933   2.598   6.811 -0.7418  0.0265 -3.0935
  156SAPE   H2Y17348   0.889   2.457   6.920  0.2051 -1.2090 -2.0731
  156SAPE   C2317349   0.775   1.960   6.905  0.0640 -0.5029  0.4756
  156SAPE   H3R17350   0.813   1.873   6.963 -0.6888  0.2346  2.1295
  156SAPE   H3S17351   0.665   1.967   6.912  0.1807  1.8750  0.7082
  156SAPE   C2417352   0.825   2.087   6.991 -0.3239  0.4321  0.5302
  156SAPE   H4R17353   0.754   2.093   7.077 -1.5482  1.6977 -0.5270
  156SAPE   H4S17354   0.812   2.179   6.930  1.5702 -0.0519 -0.6661
  156SAPE   C2517355   0.973   2.071   7.038  0.4773  0.9086  0.2883
  156SAPE   H5R17356   1.036   2.038   6.954  0.2647  0.7267  0.1963
  156SAPE   C2617357   1.017   2.098   7.157 -0.5092 -0.2957 -0.5850
  156SAPE   H6R17358   1.126   2.090   7.170 -0.1321  1.8088 -1.9584
  156SAPE   C2717359   0.933   2.140   7.280  0.1795 -0.3556  1.1435
  156SAPE   H7R17360   0.986   2.103   7.370  0.9748 -0.9401  0.4536
  156SAPE   H7S17361   0.840   2.080   7.279 -0.7930  1.0800 -0.5130
  156SAPE   C2817362   0.884   2.283   7.286  0.4145  0.6859  0.4193
  156SAPE   H8R17363   0.858   2.326   7.187 -0.9128  0.8202  0.7985
  156SAPE   C2917364   0.870   2.358   7.395  0.4351 -0.2670 -0.1044
  156SAPE   H9R17365   0.815   2.452   7.385 -1.2518 -1.1083  0.9242
  156SAPE  C21017366   0.913   2.324   7.539  0.5375 -0.3037 -0.1727
  156SAPE  H10R17367   1.011   2.272   7.532  0.9038  0.3595  0.0315
  156SAPE  H10S17368   0.841   2.253   7.586  1.2414  0.0579  1.5099
  156SAPE  C21117369   0.918   2.446   7.625 -0.2686  0.2002  0.5695
  156SAPE  H11R17370   0.925   2.548   7.583 -4.5459  1.3139  2.0111
  156SAPE  C21217371   0.920   2.437   7.757 -0.0058 -0.1275 -0.4506
  156SAPE  H12R17372   0.936   2.525   7.821  0.9549 -0.4273 -0.2553
  156SAPE  C21317373   0.918   2.302   7.821  0.1556 -0.1848  0.0526
  156SAPE  H13R17374   0.974   2.226   7.763  2.0496  0.0187  1.5050
  156SAPE  H13S17375   0.810   2.275   7.829 -0.1212  1.2164  1.5150
  156SAPE  C21417376   0.971   2.302   7.960 -0.0040  0.2654  0.5169
  156SAPE  H14R17377   1.060   2.363   7.981 -0.2239 -0.0259  2.4967
  156SAPE  C21517378   0.918   2.240   8.065  0.2153 -0.4392 -0.4994
  156SAPE  H15R17379   0.978   2.236   8.157 -2.1230 -0.6988  1.1013
  156SAPE  C21617380   0.800   2.149   8.079  0.0802  0.1884  0.7754
  156SAPE  H16R17381   0.827   2.042   8.078  2.5173  0.7679  0.3210
  156SAPE  H16S17382   0.733   2.170   7.992 -0.1958  0.5227  1.0614
  156SAPE  C21717383   0.721   2.172   8.208  0.3220 -0.2169 -0.6519
  156SAPE  H17R17384   0.624   2.117   8.205 -1.1433  2.1212  0.4801
  156SAPE  H17S17385   0.703   2.282   8.210  1.7787  0.0388 -0.5319
  156SAPE  C21817386   0.791   2.127   8.337  0.9497 -0.3015  0.6276
  156SAPE  H18R17387   0.720   2.150   8.420  0.7130  0.6661  0.1720
  156SAPE  H18S17388   0.884   2.185   8.353  0.3174  0.7275  0.6803
  156SAPE  C21917389   0.817   1.976   8.356  0.5441 -0.5834  0.2102
  156SAPE  H19R17390   0.893   1.936   8.286  1.7791 -1.1778  1.8303
  156SAPE  H19S17391   0.729   1.922   8.314  1.4993 -2.5423  0.6215
  156SAPE  C22017392   0.845   1.929   8.501 -0.0767  0.2763 -0.2593
  156SAPE  H20R17393   0.934   1.976   8.547  0.3966  0.8512 -1.6954
  156SAPE  H20S17394   0.867   1.821   8.483 -1.2845 -0.0424  0.0557
  156SAPE  H20T17395   0.760   1.941   8.572  0.2264 -4.6562  1.3739
  156SAPE   C3317396   0.776   2.639   6.960 -0.0267 -0.2418  0.2925
  156SAPE   H3X17397   0.717   2.712   6.902 -1.6545 -0.4123  1.6581
  156SAPE   H3Y17398   0.858   2.690   7.016  0.8693 -2.3149  0.9436
  156SAPE   C3417399   0.698   2.560   7.066 -0.1599 -0.0842 -0.2119
  156SAPE   H4X17400   0.756   2.481   7.117  1.7474  2.9931  2.8800
  156SAPE   H4Y17401   0.609   2.510   7.023 -0.6104 -0.1364  0.7534
  156SAPE   C3517402   0.632   2.641   7.179 -0.0839 -0.0205 -0.2658
  156SAPE   H5X17403   0.562   2.710   7.127 -0.9094 -0.1150  0.6883
  156SAPE   H5Y17404   0.714   2.693   7.232  0.1086  0.2018 -0.7683
  156SAPE   C3617405   0.556   2.549   7.276 -0.3293 -0.1320 -0.0007
  156SAPE   H6X17406   0.622   2.464   7.306  2.5940  2.2241  0.7053
  156SAPE   H6Y17407   0.466   2.517   7.221  0.8190 -0.1732 -1.9312
  156SAPE   C3717408   0.520   2.629   7.402  0.5402  0.7741  0.7116
  156SAPE   H7X17409   0.433   2.604   7.468  1.8867  0.2666  2.3714
  156SAPE   H7Y17410   0.492   2.727   7.357 -0.0510 -0.4164 -1.6194
  156SAPE   C3817411   0.638   2.650   7.500  0.7314  0.2878 -0.2223
  156SAPE   H8X17412   0.707   2.722   7.450  0.6803 -0.3128 -1.1656
  156SAPE   H8Y17413   0.700   2.560   7.520  2.1255  0.6068 -2.7270
  156SAPE   C3917414   0.593   2.710   7.637 -0.3168 -1.0507  0.3506
  156SAPE   H9X17415   0.509   2.781   7.621  0.1158 -0.0651  2.2365
  156SAPE   H9Y17416   0.683   2.744   7.692 -2.6112  1.6134  2.7664
  156SAPE  C31017417   0.546   2.598   7.727 -0.0559 -0.4333 -0.2686
  156SAPE  H10X17418   0.620   2.515   7.734 -0.7868 -1.0767 -0.0691
  156SAPE  H10Y17419   0.468   2.534   7.680  0.6060 -1.0954 -0.4951
  156SAPE  C31117420   0.500   2.637   7.877 -0.5079 -0.0633  0.9126
  156SAPE  H11X17421   0.433   2.553   7.908 -3.8070  2.4098  1.0023
  156SAPE  H11Y17422   0.442   2.731   7.878  1.1523  1.0075  2.0047
  156SAPE  C31217423   0.622   2.651   7.968  0.0023  0.2059  1.2023
  156SAPE  H12X17424   0.679   2.734   7.922  1.8738 -0.7537  1.7065
  156SAPE  H12Y17425   0.678   2.556   7.963 -0.7286 -0.1678 -2.1399
  156SAPE  C31317426   0.587   2.681   8.111 -1.0313  0.0708  0.0620
  156SAPE  H13X17427   0.547   2.783   8.126 -0.3957  0.4656 -0.8213
  156SAPE  H13Y17428   0.681   2.692   8.170 -0.9234  0.9304 -0.2513
  156SAPE  C31417429   0.503   2.572   8.175  0.2130 -1.0550 -0.6563
  156SAPE  H14X17430   0.558   2.476   8.175  0.9064 -0.7353  2.1235
  156SAPE  H14Y17431   0.410   2.563   8.114  0.4478  1.3650 -1.4825
  156SAPE  C31517432   0.472   2.621   8.322 -0.3286 -0.8357  0.2143
  156SAPE  H15X17433   0.388   2.693   8.317  1.3096  1.1886  0.7569
  156SAPE  H15Y17434   0.562   2.660   8.374 -1.2701  2.8196 -0.6609
  156SAPE  C31617435   0.417   2.503   8.406  0.5740  0.0617  0.3358
  156SAPE  H16X17436   0.469   2.407   8.382  1.2591  0.8093 -1.3301
  156SAPE  H16Y17437   0.311   2.493   8.377  0.8754  0.6267 -1.0501
  156SAPE  C31717438   0.439   2.541   8.561 -0.4973  1.0658  0.2405
  156SAPE  H17X17439   0.547   2.542   8.585  0.0958 -3.8402 -1.1627
  156SAPE  H17Y17440   0.399   2.456   8.620  0.5575 -1.9118 -3.0689
  156SAPE  C31817441   0.393   2.676   8.623 -1.2944 -0.3780 -0.0845
  156SAPE  H18X17442   0.435   2.750   8.551 -0.8616 -1.2766 -0.7904
  156SAPE  H18Y17443   0.435   2.689   8.725  0.0480 -0.9265 -0.5353
  156SAPE  H18Z17444   0.283   2.684   8.626 -1.2812 -0.4518  1.4554
  157SAPE     N17445   4.298   4.539   6.311 -0.4353  0.8989  0.2227
  157SAPE   HN117446   4.354   4.565   6.228  0.2155 -0.4688  0.1965
  157SAPE   HN217447   4.358   4.501   6.387  0.3747 -1.0997 -1.3084
  157SAPE   HN317448   4.235   4.462   6.279  0.3386 -0.5966  2.0802
  157SAPE   C1217449   4.204   4.653   6.341  0.0533 -0.4173  0.2749
  157SAPE  H12A17450   4.236   4.738   6.277  1.0127 -0.1851  1.0533
  157SAPE  H12B17451   4.232   4.689   6.442 -0.5926  1.1846 -0.0872
  157SAPE   C1117452   4.065   4.606   6.336  0.5053  0.4852  0.4043
  157SAPE  H11A17453   3.995   4.685   6.368 -0.0863  0.4623 -0.7635
  157SAPE  H11B17454   4.060   4.509   6.389  0.1389 -1.1046 -2.3086
  157SAPE     P17455   3.897   4.510   6.160 -0.2441 -0.3186 -0.2205
  157SAPE   O1317456   3.793   4.618   6.128 -0.0625  0.0574 -0.5247
  157SAPE   O1417457   3.921   4.409   6.059 -0.6137 -0.2417 -0.7926
  157SAPE   O1217458   4.032   4.584   6.196 -0.0998  0.3816  0.3835
  157SAPE   O1117459   3.861   4.440   6.297 -0.5702  0.4520 -0.0372
  157SAPE    C117460   3.733   4.410   6.337  0.3561 -0.3923  0.3336
  157SAPE    HA17461   3.691   4.512   6.354  3.0348  0.9187 -0.2620
  157SAPE    HB17462   3.684   4.350   6.258  1.6881 -0.9287 -0.1123
  157SAPE    C217463   3.733   4.325   6.470 -0.2311 -0.4246 -0.5209
  157SAPE    HS17464   3.626   4.302   6.487 -0.1275 -0.3401  0.2992
  157SAPE   O2117465   3.787   4.407   6.580 -0.6139  0.0635 -0.5057
  157SAPE   C2117466   3.731   4.524   6.610  0.9539  0.0723 -0.7181
  157SAPE   O2217467   3.621   4.568   6.582  0.8034  0.3582  0.1515
  157SAPE   C2217468   3.832   4.594   6.702  0.5430  0.2880 -0.2941
  157SAPE   H2R17469   3.843   4.539   6.798  0.5682  1.3519  0.3323
  157SAPE   H2S17470   3.932   4.582   6.654  1.5116  1.3333  1.3849
  157SAPE    C317471   3.817   4.193   6.473  0.1339  0.5688  0.1372
  157SAPE    HX17472   3.923   4.225   6.482 -0.5420  2.3415  3.6583
  157SAPE    HY17473   3.812   4.138   6.376 -0.6415 -0.5365  0.7832
  157SAPE   O3117474   3.772   4.104   6.578  0.2040 -0.3375  0.0591
  157SAPE   C3117475   3.843   4.099   6.692  0.3408 -0.4818  0.6195
  157SAPE   O3217476   3.942   4.164   6.714  0.0993  0.2895 -0.2537
  157SAPE   C3217477   3.752   4.018   6.786  0.8729 -0.1905 -0.0859
  157SAPE   H2X17478   3.726   3.916   6.752  1.0754 -0.5545  0.8129
  157SAPE   H2Y17479   3.654   4.071   6.786  0.8995 -0.1282 -1.0167
  157SAPE   C2317480   3.794   4.742   6.717  0.3377 -0.0528  0.5532
  157SAPE   H3R17481   3.697   4.756   6.769 -0.9264  0.8694 -1.9305
  157SAPE   H3S17482   3.777   4.787   6.617  0.0900 -2.5069 -0.5820
  157SAPE   C2417483   3.909   4.814   6.779  0.1009  0.0393 -0.1592
  157SAPE   H4R17484   3.999   4.781   6.722 -0.3097  1.2862 -1.5893
  157SAPE   H4S17485   3.909   4.762   6.877 -0.5347 -1.7099 -1.0358
  157SAPE   C2517486   3.888   4.962   6.782  0.8133  0.3124 -0.7169
  157SAPE   H5R17487   3.909   5.008   6.685  0.7685 -0.3409 -1.0441
  157SAPE   C2617488   3.851   5.033   6.894 -0.6327 -0.1955 -0.1115
  157SAPE   H6R17489   3.833   5.141   6.883 -1.5006 -0.0150  2.5360
  157SAPE   C2717490   3.812   4.977   7.023 -0.2163  0.2201  0.1961
  157SAPE   H7R17491   3.746   4.888   7.017 -1.0736  0.7633  1.2309
  157SAPE   H7S17492   3.751   5.058   7.069 -0.2956  0.4797 -0.3630
  157SAPE   C2817493   3.928   4.943   7.117 -0.4848  1.0055 -0.6711
  157SAPE   H8R17494   4.029   4.965   7.081 -1.0276  2.3423 -1.4364
  157SAPE   C2917495   3.919   4.886   7.242  0.0347 -0.3598  0.0158
  157SAPE   H9R17496   4.011   4.861   7.298  2.4432  2.9910 -2.0722
  157SAPE  C21017497   3.793   4.850   7.302  0.1166  0.2664 -0.5007
  157SAPE  H10R17498   3.707   4.908   7.262 -1.1406 -1.7836 -0.9562
  157SAPE  H10S17499   3.788   4.883   7.408  1.1245 -0.5997 -0.1636
  157SAPE  C21117500   3.765   4.700   7.283 -0.1172 -0.0260 -0.8796
  157SAPE  H11R17501   3.807   4.664   7.188 -1.4466  1.2809 -2.0108
  157SAPE  C21217502   3.720   4.612   7.378 -0.0073  0.2428  0.0551
  157SAPE  H12R17503   3.712   4.507   7.345 -1.4389 -0.1128  1.3818
  157SAPE  C21317504   3.662   4.641   7.516 -0.6669  0.3182  0.3351
  157SAPE  H13R17505   3.674   4.749   7.537 -0.8167  0.3089  0.4765
  157SAPE  H13S17506   3.719   4.576   7.586 -2.7761 -2.9528 -0.7451
  157SAPE  C21417507   3.518   4.606   7.523 -0.2013  0.4847 -0.2043
  157SAPE  H14R17508   3.452   4.626   7.437 -1.2387  0.4612  0.5694
  157SAPE  C21517509   3.455   4.563   7.633 -0.1827 -0.3858 -0.4601
  157SAPE  H15R17510   3.346   4.547   7.624  0.2371 -2.8135 -2.3537
  157SAPE  C21617511   3.523   4.544   7.767  0.1999 -0.1806 -0.1449
  157SAPE  H16R17512   3.603   4.620   7.782 -0.5419  0.7959 -0.9445
  157SAPE  H16S17513   3.569   4.444   7.778  1.6699  0.5802  1.0148
  157SAPE  C21717514   3.413   4.568   7.876 -0.0099  0.3144  0.0955
  157SAPE  H17R17515   3.357   4.473   7.885 -0.4588  0.4194 -1.3972
  157SAPE  H17S17516   3.339   4.643   7.841  0.5850 -0.7182 -3.7634
  157SAPE  C21817517   3.466   4.622   8.009  0.4916  0.8485  0.3300
  157SAPE  H18R17518   3.388   4.629   8.088  2.8765 -0.6301  3.0219
  157SAPE  H18S17519   3.505   4.723   7.986  2.5622 -0.5306 -2.8160
  157SAPE  C21917520   3.583   4.539   8.061 -0.6243  0.3996 -0.1319
  157SAPE  H19R17521   3.673   4.569   8.004 -2.6122  0.9573 -3.2803
  157SAPE  H19S17522   3.559   4.434   8.035 -1.5641  0.2603  1.1970
  157SAPE  C22017523   3.598   4.551   8.216 -0.5889 -0.4269  0.4373
  157SAPE  H20R17524   3.608   4.658   8.243 -2.3964  0.2867 -1.4731
  157SAPE  H20S17525   3.690   4.503   8.256  0.8818  2.8676  1.3508
  157SAPE  H20T17526   3.505   4.509   8.261 -1.8722  0.7557 -1.0044
  157SAPE   C3317527   3.818   4.018   6.928 -0.1469 -0.1456 -0.3072
  157SAPE   H3X17528   3.804   4.116   6.977 -0.3326 -0.0834 -0.4842
  157SAPE   H3Y17529   3.926   3.994   6.932 -0.0043  0.6091  1.6292
  157SAPE   C3417530   3.753   3.907   7.011 -0.2832  0.7161 -0.2868
  157SAPE   H4X17531   3.763   3.809   6.961  2.4402  1.5019 -1.4429
  157SAPE   H4Y17532   3.654   3.954   7.030 -1.0289 -0.3931 -1.3128
  157SAPE   C3517533   3.829   3.885   7.150 -0.0395 -0.0734  0.2685
  157SAPE   H5X17534   3.841   3.979   7.208  0.1950 -0.8774  1.5634
  157SAPE   H5Y17535   3.928   3.841   7.126  0.8741  1.7495  0.5872
  157SAPE   C3617536   3.752   3.790   7.252  0.2722 -0.1751 -0.1391
  157SAPE   H6X17537   3.753   3.689   7.207  2.3931 -0.1883 -0.1303
  157SAPE   H6Y17538   3.649   3.831   7.260  0.3076 -0.1295  0.1046
  157SAPE   C3717539   3.837   3.768   7.380  0.3242 -0.8904  0.6074
  157SAPE   H7X17540   3.944   3.795   7.367 -0.0185  1.2611  1.6625
  157SAPE   H7Y17541   3.839   3.660   7.406  1.2460 -0.3570  3.1087
  157SAPE   C3817542   3.788   3.841   7.499 -0.6580  0.3373  0.5778
  157SAPE   H8X17543   3.678   3.826   7.510 -0.6667 -0.6030 -0.4945
  157SAPE   H8Y17544   3.813   3.949   7.492 -2.9111  0.7984 -2.8495
  157SAPE   C3917545   3.864   3.788   7.624  0.4791 -0.5206 -0.9508
  157SAPE   H9X17546   3.975   3.795   7.615  0.5112 -0.5670 -0.5981
  157SAPE   H9Y17547   3.857   3.679   7.644 -1.5260 -0.4750 -1.1704
  157SAPE  C31017548   3.804   3.865   7.743 -0.1329  0.3285 -0.2326
  157SAPE  H10X17549   3.696   3.848   7.762 -0.7009  2.9903 -0.6585
  157SAPE  H10Y17550   3.808   3.974   7.721 -0.6764  0.9053  2.2220
  157SAPE  C31117551   3.882   3.849   7.877  0.0892 -0.0215 -0.0273
  157SAPE  H11X17552   3.833   3.925   7.940 -0.7261 -0.2488 -0.3817
  157SAPE  H11Y17553   3.989   3.878   7.869 -0.4252  1.7527 -0.8365
  157SAPE  C31217554   3.881   3.710   7.947 -0.0061  0.1317 -0.3336
  157SAPE  H12X17555   3.941   3.648   7.877 -0.5691 -0.5418 -0.2395
  157SAPE  H12Y17556   3.780   3.668   7.968  1.4665 -2.5155  2.3723
  157SAPE  C31317557   3.960   3.716   8.078  0.0170 -0.0402 -0.6798
  157SAPE  H13X17558   4.050   3.779   8.064  0.4314 -0.5276 -0.2353
  157SAPE  H13Y17559   3.990   3.610   8.088  1.9746  0.1324 -3.4395
  157SAPE  C31417560   3.884   3.781   8.193  0.0639  0.3906 -0.2268
  157SAPE  H14X17561   3.777   3.750   8.196 -0.7210  2.4082 -3.2024
  157SAPE  H14Y17562   3.884   3.890   8.177  1.5024  0.5114  0.4100
  157SAPE  C31517563   3.959   3.768   8.326 -0.0332 -0.0111 -0.7396
  157SAPE  H15X17564   3.962   3.874   8.361  0.4613 -0.2781  0.0303
  157SAPE  H15Y17565   4.060   3.729   8.306 -0.7091 -1.9323 -0.5408
  157SAPE  C31617566   3.878   3.679   8.431 -0.3465 -0.3108 -0.1448
  157SAPE  H16X17567   3.779   3.721   8.458  0.1409  0.0536  1.2131
  157SAPE  H16Y17568   3.941   3.680   8.523 -1.8365 -0.8468  0.9208
  157SAPE  C31717569   3.881   3.529   8.388  0.3380  0.4236 -0.3108
  157SAPE  H17X17570   3.982   3.494   8.359  0.2488 -0.6107  0.5957
  157SAPE  H17Y17571   3.808   3.530   8.304  1.5263  0.0316 -1.3873
  157SAPE  C31817572   3.844   3.442   8.500 -0.0720 -0.1537 -0.8535
  157SAPE  H18X17573   3.905   3.468   8.589 -2.3511  1.1538  0.4338
  157SAPE  H18Y17574   3.854   3.333   8.480 -0.2377 -1.2749  3.9182
  157SAPE  H18Z17575   3.739   3.454   8.536  0.3492 -0.8322  0.7159
  158SAPE     N17576   6.404   6.649   5.941  1.1828 -0.4892  0.1736
  158SAPE   HN117577   6.465   6.669   5.858  3.8342 -0.6893  1.9367
  158SAPE   HN217578   6.476   6.617   6.009  1.1291  1.9297  1.4648
  158SAPE   HN317579   6.347   6.568   5.907 -1.0232  1.6481 -1.5581
  158SAPE   C1217580   6.332   6.767   6.000  0.1761 -0.0040  0.0634
  158SAPE  H12A17581   6.297   6.732   6.099 -2.2753  0.0212 -0.7256
  158SAPE  H12B17582   6.253   6.797   5.928  1.9169  2.2360 -1.0529
  158SAPE   C1117583   6.448   6.873   6.016 -0.2243 -0.1424 -0.5906
  158SAPE  H11A17584   6.393   6.964   6.048  1.5437  1.8230 -2.7765
  158SAPE  H11B17585   6.498   6.890   5.918  2.0174 -1.4159  0.2526
  158SAPE     P17586   6.671   6.906   6.136  0.1415  0.1352 -0.1589
  158SAPE   O1317587   6.745   6.929   6.013 -0.1112 -0.2320  0.2281
  158SAPE   O1417588   6.618   7.021   6.208  0.4863 -0.6423 -0.3915
  158SAPE   O1217589   6.549   6.825   6.105 -0.1724  0.6662  0.2304
  158SAPE   O1117590   6.764   6.811   6.226  0.3551  0.1895  0.0084
  158SAPE    C117591   6.724   6.688   6.283  0.3702 -0.2292 -0.4484
  158SAPE    HA17592   6.676   6.619   6.211  1.2878  0.5125 -1.8001
  158SAPE    HB17593   6.812   6.630   6.318 -0.3458 -0.7531  0.5429
  158SAPE    C217594   6.636   6.714   6.410  1.0279 -0.0797 -0.1002
  158SAPE    HS17595   6.547   6.766   6.370 -0.4233 -0.1594  2.7842
  158SAPE   O2117596   6.711   6.788   6.509 -0.1847  0.3353  0.2956
  158SAPE   C2117597   6.629   6.869   6.578 -0.1123 -0.2004 -0.1488
  158SAPE   O2217598   6.507   6.879   6.558 -0.1146 -0.8968 -0.5207
  158SAPE   C2217599   6.703   6.944   6.690  0.7003  0.2945 -0.1468
  158SAPE   H2R17600   6.698   6.892   6.788 -0.6825  0.7384  0.0458
  158SAPE   H2S17601   6.806   6.976   6.664  1.5222 -2.6316 -0.8915
  158SAPE    C317602   6.573   6.582   6.472 -0.6557 -0.0479  0.0017
  158SAPE    HX17603   6.508   6.554   6.387 -0.4463  2.0428 -0.9215
  158SAPE    HY17604   6.492   6.593   6.548 -1.1437 -1.6812 -0.2430
  158SAPE   O3117605   6.669   6.480   6.506 -0.0955 -0.5491 -0.0121
  158SAPE   C3117606   6.729   6.491   6.626 -0.0451  0.1322  0.1122
  158SAPE   O3217607   6.709   6.566   6.718  0.3479 -0.0662  0.1048
  158SAPE   C3217608   6.861   6.411   6.619 -0.1983 -0.3674 -0.4065
  158SAPE   H2X17609   6.945   6.464   6.669  0.8502 -2.7113  0.5041
  158SAPE   H2Y17610   6.891   6.408   6.512  1.4390  1.9358 -0.0825
  158SAPE   C2317611   6.629   7.080   6.720  0.3184 -0.2281  0.0324
  158SAPE   H3R17612   6.529   7.055   6.761 -0.3487  2.7307  0.4110
  158SAPE   H3S17613   6.616   7.120   6.617  2.2494 -1.8828 -0.9449
  158SAPE   C2417614   6.712   7.178   6.807 -0.1390  0.0279  0.5147
  158SAPE   H4R17615   6.665   7.278   6.796  0.9269  0.9309  3.2822
  158SAPE   H4S17616   6.819   7.171   6.778  0.0434  1.3756  0.8093
  158SAPE   C2517617   6.689   7.132   6.947  0.9886 -0.2667  0.6640
  158SAPE   H5R17618   6.588   7.098   6.971  0.9922 -0.1898  0.7907
  158SAPE   C2617619   6.783   7.134   7.044  0.1495  0.4718 -0.0160
  158SAPE   H6R17620   6.749   7.098   7.143  0.5659  1.2107  0.4048
  158SAPE   C2717621   6.927   7.185   7.031  0.4053 -0.2317 -0.0035
  158SAPE   H7R17622   6.941   7.244   6.938  2.7306 -0.8178 -0.0729
  158SAPE   H7S17623   6.996   7.099   7.035  2.9116  1.6674  0.1536
  158SAPE   C2817624   6.989   7.281   7.128  0.5524 -0.2249 -0.0995
  158SAPE   H8R17625   7.011   7.374   7.075  0.6298 -0.8926 -1.2794
  158SAPE   C2917626   7.013   7.268   7.260  0.1034  0.8060 -0.1632
  158SAPE   H9R17627   7.062   7.349   7.315  0.8939  1.8658 -2.3193
  158SAPE  C21017628   6.978   7.145   7.341 -0.2873 -0.8458 -0.0924
  158SAPE  H10R17629   7.065   7.106   7.398 -0.2474  0.9496  1.1795
  158SAPE  H10S17630   6.939   7.069   7.270 -0.7191 -1.0641  0.3737
  158SAPE  C21117631   6.875   7.188   7.440  0.4945 -0.3489 -0.3876
  158SAPE  H11R17632   6.802   7.265   7.411  1.6999  1.2769  0.7148
  158SAPE  C21217633   6.857   7.129   7.563 -0.5188 -0.2425 -0.0987
  158SAPE  H12R17634   6.763   7.159   7.611 -0.7060 -0.1150 -0.5363
  158SAPE  C21317635   6.937   7.023   7.630 -0.1662  0.4668 -1.0374
  158SAPE  H13R17636   6.973   7.060   7.729 -0.6404 -1.0738 -0.2609
  158SAPE  H13S17637   7.034   7.007   7.578  0.7133  0.4001  0.5308
  158SAPE  C21417638   6.874   6.888   7.639 -1.2776 -0.0363  0.3790
  158SAPE  H14R17639   6.896   6.818   7.558 -0.4828 -0.1968  0.7271
  158SAPE  C21517640   6.827   6.827   7.750  0.4585  0.1750 -0.4500
  158SAPE  H15R17641   6.786   6.725   7.744  1.0913 -0.1631  0.6907
  158SAPE  C21617642   6.826   6.887   7.893  0.2894  0.2607  0.0086
  158SAPE  H16R17643   6.720   6.915   7.914  0.3901  2.1819 -1.6761
  158SAPE  H16S17644   6.881   6.984   7.893  1.3447 -0.3148 -0.6573
  158SAPE  C21717645   6.895   6.804   7.996  0.4375 -0.1674  0.0912
  158SAPE  H17R17646   6.989   6.773   7.945  0.4851  2.7965 -1.9206
  158SAPE  H17S17647   6.833   6.714   8.014  0.3698 -0.0546  0.4129
  158SAPE  C21817648   6.930   6.866   8.127 -0.1618  0.5685 -0.3050
  158SAPE  H18R17649   6.852   6.901   8.198  0.4025 -1.3276  1.3353
  158SAPE  H18S17650   6.994   6.952   8.098 -0.2746 -0.3180 -3.5171
  158SAPE  C21917651   7.016   6.771   8.208  0.0467 -0.3092  0.1094
  158SAPE  H19R17652   7.052   6.824   8.299 -1.9055 -1.7849  1.8481
  158SAPE  H19S17653   7.113   6.752   8.158  0.3227 -0.6923  0.7839
  158SAPE  C22017654   6.945   6.641   8.259  0.4103 -0.8023  0.7147
  158SAPE  H20R17655   6.857   6.674   8.318 -0.9830  0.5769 -1.9470
  158SAPE  H20S17656   7.016   6.583   8.322  2.2031 -0.7956 -1.1963
  158SAPE  H20T17657   6.908   6.581   8.173 -1.5895  0.5603  0.5648
  158SAPE   C3317658   6.845   6.275   6.694 -0.4021  0.5353 -0.0688
  158SAPE   H3X17659   6.928   6.204   6.679 -1.7646 -1.0348 -0.4789
  158SAPE   H3Y17660   6.752   6.232   6.651 -0.6773  0.0699  0.9725
  158SAPE   C3417661   6.837   6.284   6.846  0.3605  0.0149  0.0786
  158SAPE   H4X17662   6.752   6.353   6.866  0.8962  2.0367 -3.6146
  158SAPE   H4Y17663   6.931   6.334   6.879 -0.4332  0.8204  1.1928
  158SAPE   C3517664   6.820   6.150   6.919  1.3738 -0.2196  0.4213
  158SAPE   H5X17665   6.730   6.091   6.892  1.5015 -1.4401  2.4652
  158SAPE   H5Y17666   6.807   6.177   7.026  0.9454  1.6067 -0.0584
  158SAPE   C3617667   6.953   6.063   6.919 -0.1210 -0.1610  0.2768
  158SAPE   H6X17668   7.042   6.131   6.918  0.2210 -0.5262  2.2406
  158SAPE   H6Y17669   6.964   6.011   6.821  0.1747 -1.8085  1.1464
  158SAPE   C3717670   6.959   5.974   7.041  0.3922  0.8184  0.1788
  158SAPE   H7X17671   6.955   6.037   7.133  1.5510 -1.8976  2.2486
  158SAPE   H7Y17672   6.874   5.901   7.042  1.2821 -0.2417 -0.2468
  158SAPE   C3817673   7.101   5.904   7.048  0.1595  0.0891  0.6586
  158SAPE   H8X17674   7.184   5.978   7.055  1.7152 -1.4566 -0.4242
  158SAPE   H8Y17675   7.111   5.856   6.948  0.8841 -1.6832  1.5419
  158SAPE   C3917676   7.111   5.802   7.161 -0.3684 -0.6343 -0.1620
  158SAPE   H9X17677   7.019   5.740   7.161 -1.0000  0.2689  0.9618
  158SAPE   H9Y17678   7.100   5.861   7.255 -3.9323 -2.0118  0.4143
  158SAPE  C31017679   7.246   5.723   7.171  0.1459  0.3234 -0.1614
  158SAPE  H10X17680   7.334   5.790   7.178 -0.0401  0.4810  0.7579
  158SAPE  H10Y17681   7.258   5.679   7.070 -1.0047 -0.3345 -0.0260
  158SAPE  C31117682   7.260   5.619   7.282  0.0458  0.0359 -0.0586
  158SAPE  H11X17683   7.353   5.559   7.281 -0.2396 -0.4428 -2.1101
  158SAPE  H11Y17684   7.180   5.543   7.272  1.6173 -1.8889  1.2453
  158SAPE  C31217685   7.243   5.687   7.420 -0.2462  0.6752  0.3998
  158SAPE  H12X17686   7.139   5.726   7.411 -0.2918  0.0180 -3.0062
  158SAPE  H12Y17687   7.314   5.772   7.433  0.9318 -0.4129  1.3091
  158SAPE  C31317688   7.254   5.584   7.528 -0.2116  0.6944 -0.5141
  158SAPE  H13X17689   7.350   5.529   7.513 -0.2598  0.1922  0.8897
  158SAPE  H13Y17690   7.173   5.509   7.513 -0.4971  0.2599  2.6408
  158SAPE  C31417691   7.238   5.658   7.658 -0.1238 -0.4507  0.1439
  158SAPE  H14X17692   7.152   5.727   7.645 -1.3480 -1.8205  0.7829
  158SAPE  H14Y17693   7.332   5.703   7.696 -0.7442 -0.6534  2.0029
  158SAPE  C31517694   7.197   5.562   7.772  0.6742 -0.5705 -0.2876
  158SAPE  H15X17695   7.270   5.480   7.784  1.1170  0.1131  2.0915
  158SAPE  H15Y17696   7.101   5.514   7.743 -0.7989  1.9673  0.0976
  158SAPE  C31617697   7.160   5.628   7.911 -0.1533  0.0293  0.1850
  158SAPE  H16X17698   7.130   5.534   7.961  1.0196 -0.4025  0.1076
  158SAPE  H16Y17699   7.072   5.696   7.907  0.8687  1.4054  0.3072
  158SAPE  C31717700   7.278   5.696   7.981  0.3198  0.0160 -0.2650
  158SAPE  H17X17701   7.277   5.806   7.967 -0.5203 -0.1973 -2.1590
  158SAPE  H17Y17702   7.373   5.658   7.936  0.2909 -1.3081  0.7399
  158SAPE  C31817703   7.259   5.684   8.130  0.2523  0.5837 -0.2767
  158SAPE  H18X17704   7.262   5.578   8.165 -3.3890  1.3604  2.9922
  158SAPE  H18Y17705   7.160   5.718   8.166  0.9197 -0.9970  3.4918
  158SAPE  H18Z17706   7.338   5.735   8.190  1.2563  0.4083 -1.3937
  159SAPE     N17707   4.604   5.150   6.193  0.5061 -0.5271 -0.0389
  159SAPE   HN117708   4.522   5.137   6.256  0.6232  1.6903  0.6596
  159SAPE   HN217709   4.575   5.132   6.095 -0.1071 -1.0798  0.2297
  159SAPE   HN317710   4.685   5.091   6.222  0.7158  0.2937  1.0939
  159SAPE   C1217711   4.651   5.300   6.214 -0.4356  0.5987  0.1193
  159SAPE  H12A17712   4.742   5.310   6.150  0.7930 -0.7878  1.5490
  159SAPE  H12B17713   4.672   5.308   6.323  1.8559  1.8512 -0.3490
  159SAPE   C1117714   4.540   5.394   6.176  0.6862 -0.3643 -0.4331
  159SAPE  H11A17715   4.535   5.387   6.065 -0.7874  1.1816 -0.4978
  159SAPE  H11B17716   4.570   5.496   6.207 -1.3254  0.3759 -0.7709
  159SAPE     P17717   4.289   5.456   6.204 -0.3375  0.2761 -0.0607
  159SAPE   O1317718   4.319   5.556   6.104 -0.3579  0.5426 -0.0093
  159SAPE   O1417719   4.170   5.377   6.191  0.0858 -0.0599 -0.4904
  159SAPE   O1217720   4.411   5.359   6.231 -0.2907  0.4034 -0.7208
  159SAPE   O1117721   4.265   5.537   6.348 -0.6001  0.5780 -0.2220
  159SAPE    C117722   4.375   5.568   6.425 -0.4812  0.2206 -0.7190
  159SAPE    HA17723   4.477   5.574   6.380  0.3678  1.1243  1.2014
  159SAPE    HB17724   4.357   5.667   6.472 -1.0063 -0.7745  1.2830
  159SAPE    C217725   4.397   5.464   6.533 -0.2852  0.3125 -0.0318
  159SAPE    HS17726   4.424   5.369   6.481 -0.8146  0.0334  0.1980
  159SAPE   O2117727   4.275   5.448   6.615 -0.2223 -1.0164 -0.6262
  159SAPE   C2117728   4.240   5.321   6.635 -0.2601 -1.2257 -0.4244
  159SAPE   O2217729   4.309   5.224   6.617  0.1398 -0.6860  0.9248
  159SAPE   C2217730   4.097   5.319   6.697  0.5940  0.6058  0.2602
  159SAPE   H2R17731   4.055   5.422   6.698 -0.5675  0.1725 -0.8040
  159SAPE   H2S17732   4.030   5.255   6.636  0.4003 -1.4541  2.4757
  159SAPE    C317733   4.521   5.484   6.622  0.4039 -0.0843 -0.1496
  159SAPE    HX17734   4.613   5.467   6.562  1.2308 -0.4440  1.1538
  159SAPE    HY17735   4.511   5.388   6.677  0.6565 -0.6925 -1.1420
  159SAPE   O3117736   4.520   5.596   6.713  0.1135  0.0842 -0.0313
  159SAPE   C3117737   4.642   5.652   6.743 -1.3222  0.6940  0.6918
  159SAPE   O3217738   4.750   5.616   6.692  0.4430 -0.0697  0.2274
  159SAPE   C3217739   4.623   5.747   6.854  0.3241  0.0081 -0.0610
  159SAPE   H2X17740   4.592   5.844   6.808 -0.1048 -1.1680 -2.3772
  159SAPE   H2Y17741   4.719   5.767   6.905 -0.0284 -1.6341  1.3055
  159SAPE   C2317742   4.096   5.264   6.841 -0.2158  0.1170  0.5116
  159SAPE   H3R17743   4.140   5.162   6.847 -1.9005 -0.5861  1.7784
  159SAPE   H3S17744   3.997   5.255   6.890 -0.3854 -0.3973  0.0864
  159SAPE   C2417745   4.173   5.362   6.939 -0.3437  0.4856 -0.1809
  159SAPE   H4R17746   4.106   5.445   6.972 -0.5636  0.0122  0.5745
  159SAPE   H4S17747   4.264   5.406   6.893  1.6696 -0.1007  2.9403
  159SAPE   C2517748   4.233   5.292   7.054 -0.2663  0.0996  0.4143
  159SAPE   H5R17749   4.325   5.236   7.032  0.4730  0.3371  2.5988
  159SAPE   C2617750   4.187   5.295   7.181  0.4597 -0.0776  0.1317
  159SAPE   H6R17751   4.254   5.243   7.252  1.0245  2.0447  1.2357
  159SAPE   C2717752   4.070   5.361   7.234 -0.0154  0.0408  0.4833
  159SAPE   H7R17753   4.031   5.426   7.153  0.3150  0.9349  1.0216
  159SAPE   H7S17754   4.098   5.430   7.317 -2.3524 -2.6656  3.7806
  159SAPE   C2817755   3.960   5.260   7.268 -0.0290 -0.1635 -0.5295
  159SAPE   H8R17756   3.925   5.185   7.195 -0.1196 -1.1105  0.4580
  159SAPE   C2917757   3.897   5.240   7.387  0.4941  0.1924  0.1755
  159SAPE   H9R17758   3.815   5.166   7.388  1.1828 -0.5988 -0.3378
  159SAPE  C21017759   3.931   5.299   7.524  0.3995  0.3761 -0.2294
  159SAPE  H10R17760   3.837   5.280   7.580  1.3294  0.9418  1.6176
  159SAPE  H10S17761   3.946   5.407   7.507 -0.2800  0.6342  0.6984
  159SAPE  C21117762   4.051   5.232   7.582  0.6684  0.5631 -0.0479
  159SAPE  H11R17763   4.128   5.198   7.511 -1.4530 -0.5342 -1.9355
  159SAPE  C21217764   4.078   5.228   7.711  0.2721  0.4259  0.3233
  159SAPE  H12R17765   4.161   5.163   7.744 -2.2191 -2.5598  1.1909
  159SAPE  C21317766   3.989   5.276   7.829 -0.8741 -0.2343  0.0479
  159SAPE  H13R17767   3.972   5.198   7.906 -1.3787  2.9528  3.4769
  159SAPE  H13S17768   3.887   5.303   7.796 -1.0266 -1.0963 -0.1875
  159SAPE  C21417769   4.044   5.402   7.897 -0.5850  0.2889 -0.7872
  159SAPE  H14R17770   3.989   5.497   7.885 -0.4033  0.3959 -0.7613
  159SAPE  C21517771   4.161   5.413   7.971  0.1818 -0.1019  0.0427
  159SAPE  H15R17772   4.187   5.515   8.001 -0.3764 -0.6417  2.6397
  159SAPE  C21617773   4.262   5.299   8.012  0.3937  0.1617  0.3637
  159SAPE  H16R17774   4.363   5.340   7.994 -0.0461  1.4938  0.7622
  159SAPE  H16S17775   4.246   5.213   7.943  1.1281  2.1869 -2.5271
  159SAPE  C21717776   4.254   5.238   8.148  0.6535  0.2564 -0.1698
  159SAPE  H17R17777   4.237   5.304   8.236 -0.7058 -0.6051  0.2563
  159SAPE  H17S17778   4.353   5.191   8.161 -0.3643 -1.6211  1.2601
  159SAPE  C21817779   4.139   5.141   8.143  0.0115 -0.3389 -0.1636
  159SAPE  H18R17780   4.141   5.085   8.047 -1.9213 -1.4529  0.3969
  159SAPE  H18S17781   4.050   5.206   8.135 -0.2581 -0.8422 -1.3683
  159SAPE  C21917782   4.126   5.036   8.265 -0.3040  0.8139  0.2037
  159SAPE  H19R17783   4.228   4.992   8.278 -0.8673 -0.7915 -0.4833
  159SAPE  H19S17784   4.058   4.957   8.226 -0.7897 -0.3081  3.0507
  159SAPE  C22017785   4.063   5.086   8.395 -1.2797 -0.6546  0.1664
  159SAPE  H20R17786   4.101   5.188   8.416 -1.7293 -0.1045 -1.5634
  159SAPE  H20S17787   4.095   5.020   8.479 -0.5302 -1.8036 -0.9746
  159SAPE  H20T17788   3.955   5.105   8.380 -0.9303  0.2394 -1.4246
  159SAPE   C3317789   4.527   5.694   6.966  1.0557 -0.4220 -0.8655
  159SAPE   H3X17790   4.433   5.675   6.911 -0.5274  2.0138  0.7835
  159SAPE   H3Y17791   4.519   5.772   7.045  2.0046 -0.0579 -1.1140
  159SAPE   C3417792   4.573   5.556   7.025 -0.2659  0.4970  0.2830
  159SAPE   H4X17793   4.597   5.481   6.947  1.6762  0.8419  0.4987
  159SAPE   H4Y17794   4.486   5.517   7.082 -1.7539 -0.2822 -2.3617
  159SAPE   C3517795   4.710   5.545   7.098  0.0653 -0.2042 -0.4628
  159SAPE   H5X17796   4.787   5.567   7.021  1.2794 -2.8049 -0.0847
  159SAPE   H5Y17797   4.703   5.441   7.135 -2.1779  0.0422 -0.0896
  159SAPE   C3617798   4.724   5.650   7.213  0.4589  0.1562  0.4181
  159SAPE   H6X17799   4.721   5.748   7.161  0.4063  0.4117  0.9066
  159SAPE   H6Y17800   4.827   5.635   7.252  1.0979  4.0962  0.6225
  159SAPE   C3717801   4.612   5.635   7.325 -0.2668  0.0720  0.1342
  159SAPE   H7X17802   4.524   5.576   7.292 -2.2521  2.3753  0.9760
  159SAPE   H7Y17803   4.582   5.740   7.349  2.0439  0.9978 -0.7162
  159SAPE   C3817804   4.663   5.562   7.451  0.0267  0.1185  0.9374
  159SAPE   H8X17805   4.761   5.601   7.484 -0.0554  1.7575 -0.5927
  159SAPE   H8Y17806   4.675   5.455   7.422  0.1536  0.1704  0.7995
  159SAPE   C3917807   4.578   5.580   7.574  0.9011 -0.0923  0.0502
  159SAPE   H9X17808   4.488   5.517   7.558 -0.0372  0.8220  1.5247
  159SAPE   H9Y17809   4.537   5.683   7.571  0.0966 -0.2791  2.6841
  159SAPE  C31017810   4.644   5.540   7.708 -0.4550  0.1689  0.1545
  159SAPE  H10X17811   4.726   5.614   7.721 -1.5761  1.0756  2.5653
  159SAPE  H10Y17812   4.693   5.440   7.708  1.2991  0.9801 -0.4111
  159SAPE  C31117813   4.546   5.559   7.823 -0.9628  0.3125  0.4479
  159SAPE  H11X17814   4.478   5.471   7.825 -1.2316  0.4977 -0.2698
  159SAPE  H11Y17815   4.471   5.638   7.803 -0.3367  1.2302  1.5919
  159SAPE  C31217816   4.621   5.567   7.955 -0.4707 -0.2689 -0.7863
  159SAPE  H12X17817   4.683   5.660   7.957 -1.0520  0.1531 -1.5480
  159SAPE  H12Y17818   4.694   5.486   7.974  0.0383  0.0937 -1.1573
  159SAPE  C31317819   4.526   5.577   8.078  0.1465 -1.1289 -0.7307
  159SAPE  H13X17820   4.501   5.473   8.107  1.5900 -1.7860 -1.6936
  159SAPE  H13Y17821   4.431   5.626   8.050  1.4005  0.1678 -3.0372
  159SAPE  C31417822   4.589   5.647   8.198 -0.4969 -0.1404  0.4040
  159SAPE  H14X17823   4.657   5.732   8.173 -2.3169  1.3415  0.2517
  159SAPE  H14Y17824   4.651   5.574   8.254  1.5678  1.2848  0.0866
  159SAPE  C31517825   4.486   5.702   8.299  0.4019  0.1614 -0.2433
  159SAPE  H15X17826   4.429   5.782   8.246  0.6167  1.9179  2.0152
  159SAPE  H15Y17827   4.547   5.738   8.384  0.2866  0.2282 -0.1874
  159SAPE  C31617828   4.375   5.609   8.336 -0.2667 -0.4818 -0.2856
  159SAPE  H16X17829   4.426   5.531   8.397  0.2213  1.5909  2.1318
  159SAPE  H16Y17830   4.327   5.572   8.243 -0.8737 -0.3481 -0.0328
  159SAPE  C31717831   4.269   5.684   8.429  0.2362  0.7390  0.2764
  159SAPE  H17X17832   4.220   5.757   8.362  0.3941  1.0994  0.5476
  159SAPE  H17Y17833   4.324   5.740   8.507  1.1945 -0.8052  0.7600
  159SAPE  C31817834   4.184   5.576   8.494 -0.4118 -0.0941  0.6793
  159SAPE  H18X17835   4.124   5.520   8.419  0.9981 -0.5018 -0.1901
  159SAPE  H18Y17836   4.108   5.618   8.562  0.2856  0.1234  1.3427
  159SAPE  H18Z17837   4.258   5.511   8.545 -0.9253 -1.2286  0.0044
  160SAPE     N17838   6.382   2.732   6.304  0.0173 -0.3319  0.1148
  160SAPE   HN117839   6.354   2.746   6.205 -0.2182 -0.5923  0.1453
  160SAPE   HN217840   6.484   2.713   6.310  0.4375  1.9930  2.0080
  160SAPE   HN317841   6.339   2.640   6.326  2.0436 -1.9555 -2.1604
  160SAPE   C1217842   6.355   2.855   6.389 -0.7756  0.3253 -0.2970
  160SAPE  H12A17843   6.357   2.941   6.318 -2.0196 -0.3982 -1.2348
  160SAPE  H12B17844   6.439   2.863   6.462  0.4800  2.7124 -1.8783
  160SAPE   C1117845   6.227   2.850   6.476  0.3772 -0.1573  0.0295
  160SAPE  H11A17846   6.213   2.939   6.540  0.7159 -0.5592  0.6727
  160SAPE  H11B17847   6.231   2.762   6.545 -1.1946  0.2918  0.7418
  160SAPE     P17848   6.038   2.944   6.311  0.3718 -0.0261  0.0859
  160SAPE   O1317849   6.135   3.043   6.271 -0.9982 -0.0512  0.7001
  160SAPE   O1417850   5.952   2.880   6.209 -0.2547 -0.0048 -0.0423
  160SAPE   O1217851   6.118   2.821   6.384  0.2872 -0.8160 -0.1700
  160SAPE   O1117852   5.955   2.998   6.436  0.3058 -0.0827 -0.4218
  160SAPE    C117853   5.880   2.894   6.507  0.5235 -0.6208 -0.3653
  160SAPE    HA17854   5.842   2.808   6.448 -2.6829  0.4056 -0.0313
  160SAPE    HB17855   5.946   2.854   6.587 -1.3440 -2.7661  0.1919
  160SAPE    C217856   5.763   2.960   6.578 -0.0752 -0.0807  0.0009
  160SAPE    HS17857   5.695   3.003   6.501  1.2553 -1.1296 -1.8463
  160SAPE   O2117858   5.812   3.052   6.676 -0.0009 -0.0052  1.2054
  160SAPE   C2117859   5.746   3.167   6.686  0.4337  0.0257  0.5544
  160SAPE   O2217860   5.646   3.195   6.620  0.0735 -1.2878 -0.6512
  160SAPE   C2217861   5.794   3.247   6.800 -0.5294 -0.1249 -0.4177
  160SAPE   H2R17862   5.844   3.184   6.876  0.1575  0.8466 -0.0508
  160SAPE   H2S17863   5.888   3.294   6.763 -0.3467 -0.4336 -0.3485
  160SAPE    C317864   5.683   2.849   6.651  0.3350  0.2891  0.7697
  160SAPE    HX17865   5.749   2.806   6.730 -0.4045  0.9860  1.7937
  160SAPE    HY17866   5.649   2.776   6.574 -0.3492 -0.1418  1.4592
  160SAPE   O3117867   5.564   2.908   6.708 -0.0027 -0.5963  0.1010
  160SAPE   C3117868   5.493   2.822   6.786 -0.1717  0.0434  0.3816
  160SAPE   O3217869   5.523   2.706   6.801 -0.2763  0.4338  0.3000
  160SAPE   C3217870   5.371   2.892   6.849 -0.1150 -0.1797  0.5751
  160SAPE   H2X17871   5.278   2.851   6.803 -0.0139  2.3375 -2.1528
  160SAPE   H2Y17872   5.375   3.000   6.827 -3.0758  0.1213  1.0751
  160SAPE   C2317873   5.696   3.355   6.861 -0.1109  0.1280  0.1203
  160SAPE   H3R17874   5.624   3.317   6.936  1.5698 -1.1329  1.1570
  160SAPE   H3S17875   5.644   3.416   6.783 -1.1205 -1.0041 -0.1253
  160SAPE   C2417876   5.775   3.457   6.943  0.4762  0.0454 -0.0155
  160SAPE   H4R17877   5.709   3.543   6.967 -0.7580 -1.4706  2.5630
  160SAPE   H4S17878   5.859   3.489   6.878  0.3807  2.0620  0.7984
  160SAPE   C2517879   5.839   3.406   7.074 -0.1395 -0.3857 -0.8373
  160SAPE   H5R17880   5.929   3.344   7.062 -0.3200 -0.7733 -0.2548
  160SAPE   C2617881   5.785   3.438   7.198 -0.6671  0.2359 -0.1060
  160SAPE   H6R17882   5.830   3.395   7.289  1.9221  3.2039  0.1905
  160SAPE   C2717883   5.669   3.530   7.236 -0.5876  0.8983  0.9046
  160SAPE   H7R17884   5.624   3.556   7.137  1.3264  0.4625 -0.1348
  160SAPE   H7S17885   5.710   3.632   7.256 -1.3310  1.2540  0.6519
  160SAPE   C2817886   5.581   3.468   7.341  0.7118  0.0997  0.3564
  160SAPE   H8R17887   5.520   3.387   7.298  0.8515  0.5037 -0.6282
  160SAPE   C2917888   5.580   3.500   7.474  0.0094 -0.0496  0.5070
  160SAPE   H9R17889   5.511   3.434   7.530 -2.2596  2.8924  1.4569
  160SAPE  C21017890   5.668   3.602   7.545  0.5595 -0.1591  0.2738
  160SAPE  H10R17891   5.606   3.672   7.605  0.0135  0.5489 -1.1005
  160SAPE  H10S17892   5.714   3.660   7.462 -1.4303 -1.5496 -1.9190
  160SAPE  C21117893   5.783   3.548   7.630  0.1805  0.1585 -0.3217
  160SAPE  H11R17894   5.853   3.486   7.573 -0.9748 -0.1340 -1.4697
  160SAPE  C21217895   5.805   3.566   7.762  0.3482 -0.3316  0.2493
  160SAPE  H12R17896   5.893   3.525   7.813 -0.4430  1.2598  3.0982
  160SAPE  C21317897   5.721   3.638   7.867 -0.3861  0.2517 -0.4982
  160SAPE  H13R17898   5.646   3.702   7.816  0.9486  1.1288 -1.4628
  160SAPE  H13S17899   5.792   3.701   7.925  1.4452 -1.5631 -0.6525
  160SAPE  C21417900   5.638   3.547   7.948  0.5512 -0.5415  0.1111
  160SAPE  H14R17901   5.639   3.438   7.939  1.0595 -0.5365  0.1229
  160SAPE  C21517902   5.538   3.597   8.027  0.4333 -0.6421 -0.0078
  160SAPE  H15R17903   5.479   3.517   8.075 -3.8833  0.9067 -2.2328
  160SAPE  C21617904   5.512   3.739   8.060  0.9946  0.0544 -0.1457
  160SAPE  H16R17905   5.405   3.750   8.087  0.5771 -1.8197 -0.8482
  160SAPE  H16S17906   5.508   3.802   7.968 -2.3575 -0.9772 -0.8244
  160SAPE  C21717907   5.599   3.796   8.176 -0.5339  0.1340 -0.2412
  160SAPE  H17R17908   5.551   3.894   8.195  0.9658  1.3156 -2.1789
  160SAPE  H17S17909   5.701   3.815   8.137 -0.7698  1.3030 -0.3113
  160SAPE  C21817910   5.604   3.721   8.309  0.3598 -0.2622 -0.2935
  160SAPE  H18R17911   5.646   3.619   8.293 -2.5169 -1.3104 -1.8764
  160SAPE  H18S17912   5.497   3.705   8.334  0.5549 -2.6579 -0.7123
  160SAPE  C21917913   5.663   3.793   8.436 -0.2274 -0.0395 -0.0842
  160SAPE  H19R17914   5.641   3.730   8.525  3.2869  0.5242  1.3820
  160SAPE  H19S17915   5.609   3.885   8.466 -2.4732 -1.0415 -0.8595
  160SAPE  C22017916   5.821   3.808   8.427  0.5360 -0.0290 -0.3078
  160SAPE  H20R17917   5.856   3.705   8.407  1.5129  0.3246 -0.4713
  160SAPE  H20S17918   5.859   3.822   8.530 -0.6450 -0.7996  0.2480
  160SAPE  H20T17919   5.865   3.882   8.356 -0.2071  1.2185  0.4744
  160SAPE   C3317920   5.361   2.858   7.003  0.3393  0.1298 -0.0899
  160SAPE   H3X17921   5.379   2.749   7.008  1.4951  0.2926 -0.3585
  160SAPE   H3Y17922   5.254   2.867   7.029  0.8570  0.1537  2.2564
  160SAPE   C3417923   5.454   2.940   7.088  0.0270 -0.9289  0.2828
  160SAPE   H4X17924   5.447   3.046   7.055 -1.3413 -1.4633 -1.2898
  160SAPE   H4Y17925   5.556   2.907   7.060 -0.8265 -3.6941  0.1297
  160SAPE   C3517926   5.449   2.917   7.235  0.3405 -0.0557  0.1566
  160SAPE   H5X17927   5.477   2.812   7.259  2.3745  0.5645  0.7587
  160SAPE   H5Y17928   5.354   2.952   7.280  0.8922 -1.2596  2.4087
  160SAPE   C3617929   5.542   3.014   7.306  0.6040 -0.7976 -0.5134
  160SAPE   H6X17930   5.518   3.112   7.260  0.0681 -0.2222  0.9096
  160SAPE   H6Y17931   5.650   2.998   7.283  0.8731  1.2520 -0.9523
  160SAPE   C3717932   5.516   3.031   7.457 -0.5982  0.5018  0.4880
  160SAPE   H7X17933   5.549   2.936   7.504  1.3910  0.1797 -1.3569
  160SAPE   H7Y17934   5.406   3.034   7.467 -0.6015 -2.3309  2.8146
  160SAPE   C3817935   5.590   3.146   7.527 -0.3260 -0.1001  0.3622
  160SAPE   H8X17936   5.563   3.246   7.486 -1.1911  0.3666  1.9917
  160SAPE   H8Y17937   5.700   3.135   7.512 -0.5034 -0.6989 -0.5830
  160SAPE   C3917938   5.553   3.146   7.675 -0.4510  0.4455 -0.1576
  160SAPE   H9X17939   5.442   3.150   7.687 -0.8065 -2.1022 -1.8479
  160SAPE   H9Y17940   5.592   3.244   7.711 -2.2645  0.2765  2.5449
  160SAPE  C31017941   5.600   3.029   7.750 -0.7864 -0.5115 -0.0828
  160SAPE  H10X17942   5.704   3.003   7.721 -0.5591 -1.3025  1.3200
  160SAPE  H10Y17943   5.558   2.931   7.718  1.6346 -1.0813 -1.8254
  160SAPE  C31117944   5.599   3.054   7.904  0.0573  0.1803  0.7051
  160SAPE  H11X17945   5.671   3.136   7.928  2.1961 -1.7686  1.3829
  160SAPE  H11Y17946   5.654   2.968   7.949 -1.3692 -0.9557  0.3396
  160SAPE  C31217947   5.462   3.052   7.967 -0.1094  0.5267  0.0948
  160SAPE  H12X17948   5.424   2.951   7.945 -1.8735  1.6214 -2.2981
  160SAPE  H12Y17949   5.388   3.111   7.910  0.0418  0.6522  0.0275
  160SAPE  C31317950   5.448   3.087   8.121 -0.2586  0.2124  0.6788
  160SAPE  H13X17951   5.544   3.048   8.160  0.2832 -0.7445 -1.4575
  160SAPE  H13Y17952   5.373   3.010   8.151 -0.8110 -0.3088 -1.7836
  160SAPE  C31417953   5.400   3.233   8.152  0.0613 -0.1932 -0.2193
  160SAPE  H14X17954   5.320   3.258   8.078  1.2240  0.2122 -1.3737
  160SAPE  H14Y17955   5.484   3.304   8.138  0.2665 -0.6111 -1.2466
  160SAPE  C31517956   5.355   3.246   8.292  0.3406 -0.2038 -0.1802
  160SAPE  H15X17957   5.420   3.187   8.361  0.3032 -0.2302 -0.1675
  160SAPE  H15Y17958   5.253   3.203   8.304 -0.8805  2.1773 -1.3081
  160SAPE  C31617959   5.348   3.391   8.357 -0.0915 -0.0131  0.4201
  160SAPE  H16X17960   5.280   3.456   8.299  0.5280 -0.8611 -1.3424
  160SAPE  H16Y17961   5.448   3.437   8.339 -0.1858 -0.0687 -0.2896
  160SAPE  C31717962   5.305   3.401   8.505  0.4933  0.6922  0.1474
  160SAPE  H17X17963   5.376   3.341   8.566 -0.4178 -0.0201  0.5402
  160SAPE  H17Y17964   5.201   3.367   8.525  0.7305  0.0614  0.3479
  160SAPE  C31817965   5.340   3.536   8.558  0.3898 -0.2067  0.0367
  160SAPE  H18X17966   5.295   3.547   8.659  0.9221 -1.5912  0.4447
  160SAPE  H18Y17967   5.320   3.617   8.484 -0.9019 -1.0809 -0.6102
  160SAPE  H18Z17968   5.449   3.550   8.568  0.4948  1.0448 -2.0448
  161SOPE     N17969   6.075   6.454  10.864 -0.1949 -0.4570 -0.0405
  161SOPE   HN117970   6.043   6.551  10.885 -0.0675 -0.6453  1.0691
  161SOPE   HN217971   6.175   6.447  10.891 -0.7676 -1.1465  2.0857
  161SOPE   HN317972   6.061   6.429  10.764  0.5859 -1.4009  0.0791
  161SOPE   C1217973   5.994   6.355  10.942  0.4297 -0.3683  0.0941
  161SOPE  H12A17974   5.988   6.385  11.049 -1.1130  0.3740 -0.1667
  161SOPE  H12B17975   6.040   6.255  10.935 -0.4648 -0.7696 -0.2596
  161SOPE   C1117976   5.847   6.330  10.894 -0.5666  0.6021  1.0810
  161SOPE  H11A17977   5.796   6.429  10.892  0.0892  0.9270 -0.4016
  161SOPE  H11B17978   5.793   6.273  10.973 -3.3155  0.3164 -0.8646
  161SOPE     P17979   5.853   6.328  10.622 -0.0622 -0.0181  0.8049
  161SOPE   O1317980   5.983   6.392  10.607 -0.2297 -0.5524 -0.7066
  161SOPE   O1417981   5.741   6.415  10.590 -0.0184 -0.0432  0.1174
  161SOPE   O1217982   5.843   6.260  10.769  0.0856 -0.0286  0.4104
  161SOPE   O1117983   5.840   6.210  10.525 -0.1361  0.3526  0.5217
  161SOPE    C117984   5.970   6.163  10.476 -1.0430  0.7680  0.2432
  161SOPE    HA17985   6.038   6.134  10.559 -0.3925  1.1627 -0.1405
  161SOPE    HB17986   6.026   6.236  10.413  0.8338 -0.4707  0.4100
  161SOPE    C217987   5.961   6.023  10.399 -0.2768  0.2546  0.1850
  161SOPE    HS17988   6.066   5.994  10.373  0.1136  1.0645  0.8281
  161SOPE   O2117989   5.882   6.038  10.281  0.0512 -0.1373 -0.4243
  161SOPE   C2117990   5.937   6.084  10.170 -0.1999 -0.4194 -0.2335
  161SOPE   O2217991   6.056   6.123  10.163  0.4814 -0.4263  0.5363
  161SOPE   C2217992   5.833   6.085  10.051 -0.2722  0.2581 -0.0582
  161SOPE   H2R17993   5.799   6.190  10.039 -0.7014  0.1196 -0.0767
  161SOPE   H2S17994   5.753   6.012  10.077  0.3039 -0.5068 -0.3868
  161SOPE    C317995   5.894   5.912  10.481  0.4862 -0.4697 -0.8381
  161SOPE    HX17996   5.787   5.944  10.486 -0.3170 -3.0783  0.3714
  161SOPE    HY17997   5.943   5.903  10.580 -2.1407  0.2171  0.6176
  161SOPE   O3117998   5.924   5.785  10.416 -0.0182 -0.6181  0.3553
  161SOPE   C3117999   5.821   5.699  10.433  0.5146  0.3970  0.1831
  161SOPE   O3218000   5.722   5.717  10.504 -0.5708 -0.0384 -0.5970
  161SOPE   C3218001   5.836   5.573  10.340 -0.4808  0.6051 -0.2036
  161SOPE   H2X18002   5.738   5.530  10.311 -0.1249 -0.5465  0.2600
  161SOPE   H2Y18003   5.885   5.500  10.408 -2.2523 -1.4131 -0.9733
  161SOPE   C2318004   5.905   6.050   9.920  0.2897  0.1219  0.0785
  161SOPE   H3R18005   5.954   5.951   9.921 -1.1912 -0.6294 -0.0834
  161SOPE   H3S18006   5.987   6.125   9.912 -1.4306  2.1349  0.3597
  161SOPE   C2418007   5.815   6.058   9.795 -0.8417  0.4554 -0.1766
  161SOPE   H4R18008   5.725   5.994   9.809  0.2908 -1.3888 -1.0068
  161SOPE   H4S18009   5.792   6.165   9.775  0.5453  1.2051  1.8083
  161SOPE   C2518010   5.892   5.986   9.679  0.1266 -0.9183 -0.1356
  161SOPE   H5R18011   5.976   6.054   9.653  0.5240 -0.9380  1.0455
  161SOPE   H5S18012   5.927   5.884   9.703 -0.6718 -1.5644 -1.5853
  161SOPE   C2618013   5.806   5.966   9.554  0.5091  0.1290 -0.5741
  161SOPE   H6R18014   5.703   5.929   9.572  0.9060 -1.5746 -1.6201
  161SOPE   H6S18015   5.798   6.070   9.515 -2.3504  0.2800  0.1240
  161SOPE   C2718016   5.873   5.879   9.447  0.2499 -0.2395  0.3539
  161SOPE   H7R18017   5.977   5.917   9.438 -0.8040  2.8547  0.1431
  161SOPE   H7S18018   5.875   5.773   9.483 -0.8141  0.4790  2.7427
  161SOPE   C2818019   5.800   5.895   9.311 -0.7699  0.4260  0.3197
  161SOPE   H8R18020   5.697   5.863   9.334 -0.0671 -2.4222 -0.1196
  161SOPE   H8S18021   5.787   6.001   9.279  0.3771  0.8183  1.1195
  161SOPE   C2918022   5.859   5.812   9.202  0.6108 -0.2606  0.2006
  161SOPE   H9118023   5.857   5.705   9.226  2.3864  0.0707  2.1537
  161SOPE  C21018024   5.928   5.844   9.088  0.3358 -0.1589  0.2622
  161SOPE  H10118025   5.959   5.766   9.016 -0.2662  0.3683 -0.5898
  161SOPE  C21118026   5.947   5.988   9.048  0.2296 -0.3788 -0.8083
  161SOPE  H11R18027   5.940   6.057   9.135 -1.4497 -1.2458 -0.2316
  161SOPE  H11S18028   5.873   6.022   8.973 -0.5984 -0.8396 -0.2064
  161SOPE  C21218029   6.078   6.006   8.976 -0.0266 -0.1334 -0.5008
  161SOPE  H12R18030   6.071   5.941   8.887  0.8717 -0.2705 -0.4790
  161SOPE  H12S18031   6.159   5.961   9.036  1.0412 -0.5727 -2.1942
  161SOPE  C21318032   6.130   6.147   8.951  0.0292 -0.5179  0.0693
  161SOPE  H13R18033   6.114   6.205   9.045 -1.3111 -0.1286 -0.3704
  161SOPE  H13S18034   6.079   6.205   8.871  0.7709  0.3710  0.2177
  161SOPE  C21418035   6.280   6.141   8.893 -0.7981 -0.2815 -0.4739
  161SOPE  H14R18036   6.346   6.099   8.972 -0.6210  0.4878 -0.2050
  161SOPE  H14S18037   6.313   6.242   8.861  2.2905 -1.4505 -1.2632
  161SOPE  C21518038   6.293   6.052   8.764  0.6659  0.1495 -0.7206
  161SOPE  H15R18039   6.237   6.100   8.681  1.6802  1.3782 -0.7181
  161SOPE  H15S18040   6.253   5.950   8.787  0.7325  0.2171 -0.3024
  161SOPE  C21618041   6.440   6.031   8.718  0.5380 -0.1928 -0.5722
  161SOPE  H16R18042   6.430   5.929   8.675 -1.7903  0.2765 -1.3077
  161SOPE  H16S18043   6.509   6.031   8.805  0.8562 -1.9629 -0.7997
  161SOPE  C21718044   6.489   6.119   8.602 -0.2120  0.5661 -0.8344
  161SOPE  H17R18045   6.513   6.221   8.639  2.9316 -0.1240 -0.6910
  161SOPE  H17S18046   6.411   6.128   8.523  0.1479  1.0890 -1.1296
  161SOPE  C21818047   6.614   6.075   8.527  0.3591 -0.5745 -0.5395
  161SOPE  H18R18048   6.637   6.154   8.452 -0.9920 -0.6624 -1.0822
  161SOPE  H18S18049   6.590   5.985   8.465  0.5971  0.6353 -2.4880
  161SOPE  H18T18050   6.690   6.054   8.604  0.1123 -0.3059 -0.2223
  161SOPE   C3318051   5.914   5.586  10.207 -0.1517 -0.3175 -0.6677
  161SOPE   H3X18052   5.944   5.485  10.170 -0.7963 -0.6408 -0.3232
  161SOPE   H3Y18053   6.008   5.642  10.226 -0.8081  1.3815 -2.1467
  161SOPE   C3418054   5.839   5.652  10.093  0.6376 -0.0897  0.1565
  161SOPE   H4X18055   5.819   5.756  10.127 -2.3415 -0.6666  0.4697
  161SOPE   H4Y18056   5.742   5.602  10.071  2.1616 -2.7294 -1.0611
  161SOPE   C3518057   5.911   5.670   9.960  0.5553 -0.2037  0.5274
  161SOPE   H5X18058   6.010   5.717   9.976  0.0947  0.5298  1.3120
  161SOPE   H5Y18059   5.854   5.736   9.891 -0.2454 -1.5268 -0.1168
  161SOPE   C3618060   5.935   5.538   9.878  0.3915  0.4554  0.7654
  161SOPE   H6X18061   5.840   5.481   9.878  0.4354  0.3366 -0.7520
  161SOPE   H6Y18062   6.012   5.475   9.927 -2.1210 -2.3196  1.4232
  161SOPE   C3718063   5.986   5.586   9.742 -0.4745  0.0049 -0.3115
  161SOPE   H7X18064   6.074   5.647   9.768  1.2407 -1.9523 -1.2283
  161SOPE   H7Y18065   5.909   5.638   9.682  0.2069 -0.9844 -2.1113
  161SOPE   C3818066   6.028   5.466   9.657  0.1012 -0.6463  0.2094
  161SOPE   H8X18067   6.065   5.380   9.717 -2.3711 -1.5106  0.5931
  161SOPE   H8Y18068   6.114   5.507   9.599 -0.3852 -0.1431 -0.1668
  161SOPE   C3918069   5.928   5.428   9.544 -0.1091 -0.1332 -0.6775
  161SOPE   H9X18070   5.881   5.506   9.481  1.2510  1.2058 -0.1093
  161SOPE   H9Y18071   5.843   5.395   9.608  1.5542  2.1813  3.1038
  161SOPE  C31018072   5.961   5.293   9.467  0.2350 -0.1773 -0.2380
  161SOPE  H10X18073   5.983   5.220   9.547 -1.2051 -1.4106 -0.9222
  161SOPE  H10Y18074   6.060   5.319   9.424  0.0724  0.7128 -0.0986
  161SOPE  C31118075   5.875   5.244   9.354 -0.2717 -0.0223  0.1482
  161SOPE  H11X18076   5.796   5.177   9.393 -0.8162  1.2662  1.3499
  161SOPE  H11Y18077   5.944   5.169   9.310 -0.9411 -0.4846 -0.1227
  161SOPE  C31218078   5.832   5.356   9.254  0.8961 -0.9181  0.0389
  161SOPE  H12X18079   5.924   5.391   9.202 -1.0294  1.8746 -1.6990
  161SOPE  H12Y18080   5.781   5.443   9.299  0.7330 -2.3368  2.8176
  161SOPE  C31318081   5.727   5.299   9.150 -0.6361  0.8260  0.3063
  161SOPE  H13X18082   5.644   5.247   9.202  0.3268 -0.7761  0.3124
  161SOPE  H13Y18083   5.784   5.221   9.095  0.7777  1.5323  0.7207
  161SOPE  C31418084   5.676   5.401   9.053  0.3730 -0.0323  0.3481
  161SOPE  H14X18085   5.761   5.460   9.013 -1.0616 -0.5601 -4.1250
  161SOPE  H14Y18086   5.608   5.479   9.094  0.9850  0.1555  1.0084
  161SOPE  C31518087   5.597   5.336   8.934 -0.1180 -0.5079  0.0089
  161SOPE  H15X18088   5.651   5.256   8.878  1.2967  0.6816 -0.3788
  161SOPE  H15Y18089   5.569   5.419   8.865 -2.8716 -1.9683 -0.8103
  161SOPE  C31618090   5.472   5.274   8.980  0.3338  0.8748  0.7771
  161SOPE  H16X18091   5.383   5.331   8.946 -1.1147 -0.5927  1.9188
  161SOPE  H16Y18092   5.465   5.287   9.090 -1.2257  0.2100  0.7909
  161SOPE  C31718093   5.451   5.128   8.949  0.7208 -0.7399  0.0330
  161SOPE  H17X18094   5.355   5.103   8.997 -0.5201  1.4120 -1.1517
  161SOPE  H17Y18095   5.538   5.072   8.990  0.4311 -1.4439 -0.3080
  161SOPE  C31818096   5.424   5.105   8.796  0.5042 -0.4750 -0.1963
  161SOPE  H18X18097   5.501   5.133   8.721  0.2470 -0.8902 -0.6289
  161SOPE  H18Y18098   5.340   5.173   8.769  0.8563  2.0773  4.2642
  161SOPE  H18Z18099   5.386   5.002   8.778 -1.8286  0.5930 -2.0382
  162SOPE     N18100   4.266   0.482  10.748  0.2627  0.6501  0.4682
  162SOPE   HN118101   4.318   0.569  10.771  0.1367  0.4853  1.4163
  162SOPE   HN218102   4.210   0.462  10.834 -1.9063  1.2257 -0.7199
  162SOPE   HN318103   4.343   0.417  10.723 -1.2355 -0.7872 -0.6190
  162SOPE   C1218104   4.166   0.506  10.636  1.0319  0.1347  0.1634
  162SOPE  H12A18105   4.176   0.426  10.559  1.6433  0.1266  0.2471
  162SOPE  H12B18106   4.211   0.596  10.591  1.3672 -0.6113 -1.0337
  162SOPE   C1118107   4.031   0.519  10.697 -0.1043  0.1519  0.6937
  162SOPE  H11A18108   3.955   0.543  10.620 -1.1083  0.2632  1.6970
  162SOPE  H11B18109   4.039   0.602  10.770 -1.5469  0.7080  0.2503
  162SOPE     P18110   3.846   0.366  10.802  0.0100 -0.0939  0.2601
  162SOPE   O1318111   3.795   0.485  10.882  0.1435 -0.6176 -0.1793
  162SOPE   O1418112   3.847   0.236  10.873  0.6145  0.2375  0.3313
  162SOPE   O1218113   3.997   0.400  10.766 -0.0882 -0.4904  0.5920
  162SOPE   O1118114   3.771   0.353  10.660  0.4584 -0.3251 -0.3828
  162SOPE    C118115   3.838   0.270  10.564  0.8069 -0.1380  0.1295
  162SOPE    HA18116   3.862   0.177  10.620  0.3227  1.7608  3.7807
  162SOPE    HB18117   3.935   0.314  10.530  0.1347  0.1790 -1.4910
  162SOPE    C218118   3.758   0.227  10.437 -0.0668 -0.3129  0.5014
  162SOPE    HS18119   3.813   0.141  10.395  2.2136  0.6375  1.3619
  162SOPE   O2118120   3.748   0.334  10.346  0.3183 -0.1146  0.2113
  162SOPE   C2118121   3.861   0.381  10.296 -0.0540  0.0279  0.6731
  162SOPE   O2218122   3.972   0.326  10.292  0.3642  0.5415 -0.1917
  162SOPE   C2218123   3.825   0.511  10.228 -0.0115 -0.2206  0.6765
  162SOPE   H2R18124   3.881   0.590  10.283  0.2039  1.1846 -1.4001
  162SOPE   H2S18125   3.716   0.531  10.240 -0.3427 -1.1702 -0.5589
  162SOPE    C318126   3.615   0.181  10.468 -0.3579 -0.1626 -0.2145
  162SOPE    HX18127   3.552   0.271  10.484  1.7727  1.8772 -2.3204
  162SOPE    HY18128   3.616   0.112  10.555  0.9063  2.0238  1.6072
  162SOPE   O3118129   3.553   0.112  10.363 -0.2976  0.1931  0.0142
  162SOPE   C3118130   3.586  -0.014  10.337  0.0321  0.2087 -0.0082
  162SOPE   O3218131   3.649  -0.086  10.412 -0.0468 -0.2774  0.1992
  162SOPE   C3218132   3.540  -0.045  10.198 -0.6042 -0.7964 -0.0382
  162SOPE   H2X18133   3.488   0.040  10.150  2.7312  1.6688  0.3140
  162SOPE   H2Y18134   3.475  -0.134  10.213 -1.0841 -0.3519  0.5667
  162SOPE   C2318135   3.857   0.515  10.075 -0.3898  0.1603  0.2700
  162SOPE   H3R18136   3.954   0.464  10.059  0.7858  2.1515  0.6951
  162SOPE   H3S18137   3.874   0.616  10.031  0.7269 -0.1537 -0.0486
  162SOPE   C2418138   3.750   0.441   9.995 -0.5219  0.5162  0.7163
  162SOPE   H4R18139   3.738   0.332  10.016  0.6076 -0.5870 -3.3484
  162SOPE   H4S18140   3.659   0.502  10.012  1.1922  3.0098  1.4123
  162SOPE   C2518141   3.782   0.438   9.846  0.5931 -0.0756  0.7654
  162SOPE   H5R18142   3.805   0.544   9.821  1.5320  0.2087  2.6602
  162SOPE   H5S18143   3.866   0.368   9.827  0.9240  0.4057  0.4223
  162SOPE   C2618144   3.661   0.396   9.753  0.1528 -0.4347  0.2652
  162SOPE   H6R18145   3.626   0.300   9.797 -1.5081  0.0580  0.1117
  162SOPE   H6S18146   3.574   0.464   9.771 -0.3918 -1.4674  1.7005
  162SOPE   C2718147   3.696   0.385   9.605  0.5785  0.4610 -0.7797
  162SOPE   H7R18148   3.761   0.469   9.573 -0.9942  1.5590 -1.2110
  162SOPE   H7S18149   3.763   0.297   9.606 -0.1532 -0.1072 -0.5430
  162SOPE   C2818150   3.573   0.357   9.522  0.5233  0.1521  0.3057
  162SOPE   H8R18151   3.624   0.313   9.433  0.5402 -0.4816  0.6238
  162SOPE   H8S18152   3.523   0.264   9.556  2.0320 -1.7284 -2.1742
  162SOPE   C2918153   3.499   0.478   9.482  0.4504 -0.8301 -0.1160
  162SOPE   H9118154   3.468   0.533   9.573 -2.8629 -1.7240 -0.5525
  162SOPE  C21018155   3.482   0.532   9.360  0.1130 -0.5701  0.4127
  162SOPE  H10118156   3.426   0.624   9.340 -0.3624 -1.2647 -1.5939
  162SOPE  C21118157   3.533   0.465   9.234  0.5266  0.3101  0.2332
  162SOPE  H11R18158   3.499   0.359   9.229  1.7937 -0.1099 -0.0555
  162SOPE  H11S18159   3.643   0.470   9.251  0.1810  0.2529  2.8135
  162SOPE  C21218160   3.508   0.548   9.105 -0.6806  0.4287 -0.5586
  162SOPE  H12R18161   3.579   0.632   9.092  1.6263 -1.3776 -0.3872
  162SOPE  H12S18162   3.409   0.598   9.104 -0.0254  1.7996  0.5097
  162SOPE  C21318163   3.518   0.464   8.973 -0.1495  0.1233 -0.3265
  162SOPE  H13R18164   3.617   0.416   8.962 -0.2149 -0.0907  0.0078
  162SOPE  H13S18165   3.513   0.541   8.893 -0.1910 -0.0454 -0.4847
  162SOPE  C21418166   3.402   0.369   8.955  0.5460 -0.3357 -0.3606
  162SOPE  H14R18167   3.306   0.423   8.970  2.4053  2.6473  1.9711
  162SOPE  H14S18168   3.400   0.286   9.028  0.7205  0.9463  1.1507
  162SOPE  C21518169   3.404   0.303   8.817 -0.5805 -0.3830 -0.3647
  162SOPE  H15R18170   3.335   0.216   8.814 -0.9958 -0.0596 -0.2581
  162SOPE  H15S18171   3.503   0.264   8.787 -0.4794  0.3521 -1.0144
  162SOPE  C21618172   3.350   0.400   8.709  0.7943  0.5097 -0.3488
  162SOPE  H16R18173   3.384   0.505   8.715 -0.4670  0.9284 -0.0260
  162SOPE  H16S18174   3.241   0.420   8.722  0.6951 -1.1026  2.0645
  162SOPE  C21718175   3.372   0.337   8.569  0.0050  0.1930 -0.2870
  162SOPE  H17R18176   3.333   0.233   8.571 -1.1516  0.4983 -2.9473
  162SOPE  H17S18177   3.481   0.327   8.553 -0.3324  0.3983 -3.2546
  162SOPE  C21818178   3.308   0.415   8.445  0.5869  0.1090  0.0979
  162SOPE  H18R18179   3.198   0.414   8.459  0.6040 -2.8333  0.5978
  162SOPE  H18S18180   3.332   0.354   8.356  0.5998  0.4819 -0.1574
  162SOPE  H18T18181   3.344   0.520   8.449  0.5762  0.0893  1.2523
  162SOPE   C3318182   3.661  -0.090  10.106  0.3430 -0.1693 -0.1020
  162SOPE   H3X18183   3.630  -0.130  10.008  1.4514 -1.9223  0.2187
  162SOPE   H3Y18184   3.728  -0.166  10.153 -0.5056  0.0760  1.6032
  162SOPE   C3418185   3.734   0.037  10.053 -0.2657 -0.4545 -0.2693
  162SOPE   H4X18186   3.774   0.101  10.135  0.7604 -0.8685 -0.4305
  162SOPE   H4Y18187   3.670   0.109   9.996  0.7667  1.8242  1.2772
  162SOPE   C3518188   3.856   0.012   9.957  0.3205 -0.3380  0.1803
  162SOPE   H5X18189   3.942  -0.022  10.017  0.2004 -1.5430 -0.3095
  162SOPE   H5Y18190   3.902   0.100   9.906  0.6353 -1.4739 -1.5635
  162SOPE   C3618191   3.817  -0.069   9.827 -0.5065  0.5598  0.3037
  162SOPE   H6X18192   3.783  -0.169   9.860 -0.6928  0.8202  0.9152
  162SOPE   H6Y18193   3.915  -0.093   9.780  0.2111  0.4836  1.7794
  162SOPE   C3718194   3.719  -0.003   9.731  0.4106 -0.2094 -0.3218
  162SOPE   H7X18195   3.768   0.091   9.696  0.5758  0.5588  1.8062
  162SOPE   H7Y18196   3.629   0.032   9.786  2.2746  1.5280  1.8452
  162SOPE   C3818197   3.685  -0.098   9.616  0.3146  0.1529  0.1802
  162SOPE   H8X18198   3.653  -0.194   9.663 -0.8929  0.2144 -0.4727
  162SOPE   H8Y18199   3.775  -0.100   9.551  0.2248  1.9214 -0.0364
  162SOPE   C3918200   3.560  -0.062   9.530 -0.1381  0.0899  0.0078
  162SOPE   H9X18201   3.570   0.043   9.494 -2.0617 -0.2564 -1.7197
  162SOPE   H9Y18202   3.467  -0.075   9.589  0.9577 -1.3829  1.4866
  162SOPE  C31018203   3.548  -0.135   9.392  0.1926 -0.3073  0.1736
  162SOPE  H10X18204   3.446  -0.109   9.357  0.1396 -0.9108 -0.1308
  162SOPE  H10Y18205   3.549  -0.245   9.409  2.5875 -0.4592 -0.5898
  162SOPE  C31118206   3.657  -0.096   9.295 -0.1771 -0.3848  0.2504
  162SOPE  H11X18207   3.755  -0.136   9.327  0.5625  0.0671 -1.3485
  162SOPE  H11Y18208   3.666   0.015   9.289  2.2567 -0.5602 -0.4899
  162SOPE  C31218209   3.623  -0.144   9.146 -0.3861  0.1796  0.1000
  162SOPE  H12X18210   3.582  -0.247   9.149 -0.2814  0.1586  1.0943
  162SOPE  H12Y18211   3.713  -0.125   9.083  0.1541  0.4924  0.9414
  162SOPE  C31318212   3.506  -0.062   9.085 -0.1896  0.0161 -0.1198
  162SOPE  H13X18213   3.522   0.047   9.084 -1.4628  0.2647 -2.9265
  162SOPE  H13Y18214   3.410  -0.076   9.140  0.1502  0.2709  0.5501
  162SOPE  C31418215   3.476  -0.107   8.941  0.3178 -0.2900  0.7130
  162SOPE  H14X18216   3.390  -0.041   8.922  1.8023  2.3579  2.5283
  162SOPE  H14Y18217   3.443  -0.213   8.937  1.7423 -0.7129 -0.7544
  162SOPE  C31518218   3.577  -0.089   8.829 -0.1971  0.0677  0.1933
  162SOPE  H15X18219   3.657  -0.166   8.823  0.3823  0.4900  1.7958
  162SOPE  H15Y18220   3.613   0.014   8.850 -1.2477  0.4228  0.2874
  162SOPE  C31618221   3.513  -0.076   8.681 -0.1460 -0.4524 -0.7031
  162SOPE  H16X18222   3.588  -0.041   8.607  0.5409 -0.0261  0.1655
  162SOPE  H16Y18223   3.431  -0.002   8.692  1.5694  1.5598 -0.9073
  162SOPE  C31718224   3.462  -0.208   8.631  0.0465  0.7521  0.6089
  162SOPE  H17X18225   3.393  -0.252   8.707  0.2741  0.1204  0.4618
  162SOPE  H17Y18226   3.539  -0.286   8.614 -1.5440 -0.7236 -0.1966
  162SOPE  C31818227   3.381  -0.185   8.501 -0.3627 -1.0026  0.6869
  162SOPE  H18X18228   3.320  -0.270   8.464  0.6317 -1.4971  0.1599
  162SOPE  H18Y18229   3.446  -0.156   8.416 -0.7073  0.4157  0.8724
  162SOPE  H18Z18230   3.310  -0.100   8.515 -0.0293 -0.3962 -0.9855
  163SOPE     N18231   5.408   4.698  10.614 -0.3686 -0.5094  0.6384
  163SOPE   HN118232   5.508   4.705  10.642  0.3605 -2.1171 -1.2438
  163SOPE   HN218233   5.410   4.720  10.512  1.2400  2.7878  1.2586
  163SOPE   HN318234   5.355   4.776  10.657  0.9807  0.8017  0.0148
  163SOPE   C1218235   5.342   4.566  10.640 -0.2377 -0.1557 -0.7261
  163SOPE  H12A18236   5.364   4.537  10.745 -1.0110 -0.4119 -0.6304
  163SOPE  H12B18237   5.385   4.498  10.564  0.6183  0.9879 -1.3014
  163SOPE   C1118238   5.192   4.581  10.608 -0.3312  0.5524 -0.2284
  163SOPE  H11A18239   5.147   4.482  10.633  0.4763 -0.0274 -1.0355
  163SOPE  H11B18240   5.188   4.592  10.498 -0.3608 -2.1394 -0.5563
  163SOPE     P18241   4.978   4.735  10.662 -0.0118 -0.6211  0.5033
  163SOPE   O1318242   4.980   4.885  10.683 -0.1548  0.3488 -0.5402
  163SOPE   O1418243   4.905   4.651  10.751  0.5709  0.2074 -0.1866
  163SOPE   O1218244   5.132   4.691  10.672  0.6906  0.5374  0.2311
  163SOPE   O1118245   4.940   4.690  10.514  0.2932  0.1451  0.1470
  163SOPE    C118246   4.806   4.664  10.479 -0.5349 -0.3443 -0.1694
  163SOPE    HA18247   4.738   4.750  10.496 -3.2313 -2.5714  1.1574
  163SOPE    HB18248   4.765   4.578  10.535 -1.2159 -0.2253 -0.4825
  163SOPE    C218249   4.813   4.610  10.333 -0.0947  0.8715  0.2948
  163SOPE    HS18250   4.816   4.694  10.259 -0.7886 -0.3625 -1.1862
  163SOPE   O2118251   4.698   4.526  10.306 -0.0242  0.0144  0.5953
  163SOPE   C2118252   4.586   4.594  10.305  0.0342  0.9757 -0.6808
  163SOPE   O2218253   4.567   4.714  10.326  0.4663 -0.2788 -0.2136
  163SOPE   C2218254   4.471   4.488  10.287  0.1367  0.0867  0.6126
  163SOPE   H2R18255   4.446   4.457  10.391  1.4942  4.0529  2.3025
  163SOPE   H2S18256   4.511   4.400  10.233  0.1210  0.7710 -0.5618
  163SOPE    C318257   4.933   4.516  10.296 -0.6935 -0.0975 -0.2059
  163SOPE    HX18258   4.964   4.443  10.374 -1.9349  0.7209  1.1037
  163SOPE    HY18259   5.025   4.578  10.300 -1.0112  0.3432  0.5616
  163SOPE   O3118260   4.925   4.456  10.164 -0.3514 -0.1329 -0.3332
  163SOPE   C3118261   4.881   4.330  10.161 -0.3359 -0.5545  0.8627
  163SOPE   O3218262   4.836   4.265  10.252  0.5198  0.0603 -0.4012
  163SOPE   C3218263   4.884   4.286  10.015 -0.1656  0.5918 -0.6414
  163SOPE   H2X18264   4.925   4.184  10.020 -1.2819  0.0836 -1.3517
  163SOPE   H2Y18265   4.962   4.343   9.960  2.6092 -1.6287  0.7585
  163SOPE   C2318266   4.346   4.540  10.220 -0.3207  0.5939  0.1602
  163SOPE   H3R18267   4.378   4.574  10.119  0.4132 -2.7527 -0.8726
  163SOPE   H3S18268   4.304   4.631  10.268  0.2844  1.8865 -1.6235
  163SOPE   C2418269   4.238   4.435  10.199  0.0969  0.2330  0.2232
  163SOPE   H4R18270   4.279   4.333  10.185  1.3643  0.7012  0.4590
  163SOPE   H4S18271   4.166   4.436  10.284 -1.5173  0.4148 -1.0914
  163SOPE   C2518272   4.157   4.470  10.070  0.2387 -0.2681 -0.1732
  163SOPE   H5R18273   4.056   4.431  10.093  0.6155 -1.3469 -0.2927
  163SOPE   H5S18274   4.159   4.581  10.066 -1.5418 -0.1240  1.3022
  163SOPE   C2618275   4.205   4.397   9.947  0.5792 -0.2813 -0.5324
  163SOPE   H6R18276   4.311   4.367   9.965  1.0505  2.1559  1.2345
  163SOPE   H6S18277   4.135   4.311   9.948  0.1080 -0.0404  3.2467
  163SOPE   C2718278   4.199   4.486   9.813  0.0274  0.2377 -0.8191
  163SOPE   H7R18279   4.229   4.592   9.827  0.1219  0.1465 -0.3195
  163SOPE   H7S18280   4.288   4.452   9.755  0.3056  0.4047 -0.4899
  163SOPE   C2818281   4.066   4.470   9.742 -0.2404  0.1969  0.0624
  163SOPE   H8R18282   4.066   4.368   9.698  1.6860  0.1540  0.0878
  163SOPE   H8S18283   3.979   4.476   9.811 -0.4752 -0.6615 -0.1444
  163SOPE   C2918284   4.054   4.570   9.637  0.2487  0.1937 -0.2755
  163SOPE   H9118285   4.033   4.674   9.667  1.3837 -0.3351  2.7104
  163SOPE  C21018286   4.072   4.551   9.506  0.0607 -0.5274 -0.5124
  163SOPE  H10118287   4.062   4.633   9.434 -0.0988 -0.1756 -0.0960
  163SOPE  C21118288   4.097   4.422   9.439  0.1761  0.2232 -0.0292
  163SOPE  H11R18289   4.016   4.347   9.435  0.5532 -0.1564 -0.5749
  163SOPE  H11S18290   4.182   4.377   9.495  0.6745 -0.6758 -1.4612
  163SOPE  C21218291   4.149   4.447   9.299  0.7293 -0.0906  0.8926
  163SOPE  H12R18292   4.214   4.363   9.268 -0.4827 -1.0010  0.7239
  163SOPE  H12S18293   4.224   4.528   9.302 -0.1869  0.8652 -0.6546
  163SOPE  C21318294   4.039   4.448   9.188  0.3696  0.5112  0.6986
  163SOPE  H13R18295   3.951   4.502   9.227  0.1143  0.7591 -0.1932
  163SOPE  H13S18296   4.013   4.343   9.164  2.5757 -0.4610  2.1873
  163SOPE  C21418297   4.098   4.518   9.055 -0.0508  0.0525  0.2975
  163SOPE  H14R18298   4.130   4.622   9.076 -1.6047  0.6862 -0.3560
  163SOPE  H14S18299   4.010   4.522   8.987 -0.7302 -1.4770  1.0361
  163SOPE  C21518300   4.196   4.427   8.985 -0.2546  0.4711  0.3439
  163SOPE  H15R18301   4.149   4.327   8.981  0.1350  0.3159 -2.0463
  163SOPE  H15S18302   4.288   4.420   9.047  0.1731  0.5344 -0.2751
  163SOPE  C21618303   4.212   4.475   8.837  0.7744 -0.3427 -0.9827
  163SOPE  H16R18304   4.249   4.580   8.836  0.9056 -0.3550  0.5877
  163SOPE  H16S18305   4.111   4.476   8.790  0.3951  0.2734 -0.1847
  163SOPE  C21718306   4.305   4.398   8.745 -0.2980  0.2693 -0.0384
  163SOPE  H17R18307   4.404   4.406   8.795 -0.5848 -1.5030  0.8767
  163SOPE  H17S18308   4.317   4.452   8.648 -0.9424 -1.4889 -1.1309
  163SOPE  C21818309   4.264   4.249   8.720 -0.0170 -0.8113 -0.1675
  163SOPE  H18R18310   4.341   4.193   8.663  0.5167  0.6412 -0.9355
  163SOPE  H18S18311   4.174   4.233   8.656  0.6289 -3.2025 -0.5727
  163SOPE  H18T18312   4.256   4.209   8.823  0.9360  2.1476  1.1426
  163SOPE   C3318313   4.749   4.294   9.937 -0.2844 -0.1554 -0.2410
  163SOPE   H3X18314   4.694   4.385   9.967  1.4590  1.0275 -0.4955
  163SOPE   H3Y18315   4.677   4.213   9.961  5.0492 -5.2750  0.9763
  163SOPE   C3418316   4.756   4.315   9.785 -0.2225  0.1446 -0.3192
  163SOPE   H4X18317   4.806   4.224   9.746  2.1005 -0.2555  3.1079
  163SOPE   H4Y18318   4.836   4.388   9.758  0.7461 -0.2917  1.1892
  163SOPE   C3518319   4.628   4.345   9.716 -0.6003  0.1800  0.4031
  163SOPE   H5X18320   4.603   4.451   9.736  1.6580  0.5776  1.4042
  163SOPE   H5Y18321   4.546   4.290   9.766  0.4983  0.1969  2.3065
  163SOPE   C3618322   4.633   4.296   9.570 -0.3062 -0.5806  0.3174
  163SOPE   H6X18323   4.652   4.187   9.570  0.9659 -0.3780 -0.4865
  163SOPE   H6Y18324   4.710   4.356   9.517 -0.3721  1.1369  2.0135
  163SOPE   C3718325   4.502   4.311   9.496  0.1907 -0.2095 -0.0836
  163SOPE   H7X18326   4.454   4.408   9.518  1.3807  0.7413 -1.4621
  163SOPE   H7Y18327   4.442   4.227   9.537 -0.8417  0.6780  0.2670
  163SOPE   C3818328   4.508   4.291   9.340 -0.3012 -0.6370 -0.1158
  163SOPE   H8X18329   4.537   4.388   9.294  0.2343  0.8015  2.9484
  163SOPE   H8Y18330   4.403   4.275   9.308 -0.8567  1.7897  0.3274
  163SOPE   C3918331   4.595   4.172   9.299  0.6726 -0.1551 -0.1688
  163SOPE   H9X18332   4.557   4.086   9.358  0.7730 -1.4672 -1.9469
  163SOPE   H9Y18333   4.702   4.176   9.328  0.0625 -0.5271  2.3988
  163SOPE  C31018334   4.575   4.132   9.155  0.5091 -0.1232  0.7714
  163SOPE  H10X18335   4.625   4.209   9.093  1.8680 -1.6041 -0.0684
  163SOPE  H10Y18336   4.466   4.132   9.133  1.0669  1.6672 -2.5194
  163SOPE  C31118337   4.635   3.995   9.120  0.0454 -0.0776  0.1215
  163SOPE  H11X18338   4.572   3.914   9.163  0.5967 -0.8243 -0.4841
  163SOPE  H11Y18339   4.731   3.996   9.175  0.8939 -0.7517 -1.3113
  163SOPE  C31218340   4.653   3.992   8.969 -0.1845 -0.0985  0.4612
  163SOPE  H12X18341   4.726   3.910   8.958 -0.7976 -1.0196  2.8070
  163SOPE  H12Y18342   4.694   4.086   8.924  1.5117 -1.3980 -0.8444
  163SOPE  C31318343   4.527   3.964   8.890  0.2278  0.6421 -0.5395
  163SOPE  H13X18344   4.459   4.051   8.895  1.2104  1.6069 -2.5216
  163SOPE  H13Y18345   4.473   3.890   8.954  0.3641  1.8933  1.0654
  163SOPE  C31418346   4.561   3.916   8.747 -0.9201 -0.7382 -0.7991
  163SOPE  H14X18347   4.639   3.837   8.743  1.3858  1.1836  1.9412
  163SOPE  H14Y18348   4.614   3.990   8.682  4.0373 -2.7825  0.4898
  163SOPE  C31518349   4.438   3.872   8.680  1.3752 -0.1857 -0.9245
  163SOPE  H15X18350   4.394   3.961   8.631  0.6551  0.8977  1.5249
  163SOPE  H15Y18351   4.370   3.836   8.760 -0.1131 -1.2955 -2.6123
  163SOPE  C31618352   4.430   3.752   8.580 -0.0092 -0.3983 -0.3926
  163SOPE  H16X18353   4.485   3.663   8.619  1.2857 -0.3916 -2.0997
  163SOPE  H16Y18354   4.488   3.780   8.489 -1.3789 -1.0613 -1.5091
  163SOPE  C31718355   4.289   3.701   8.545  0.3270  0.5643 -0.2463
  163SOPE  H17X18356   4.294   3.673   8.438  0.4223 -0.7560  0.0889
  163SOPE  H17Y18357   4.208   3.776   8.559 -0.4271  0.2111 -2.4092
  163SOPE  C31818358   4.239   3.575   8.622  0.1053  0.6460  0.0854
  163SOPE  H18X18359   4.292   3.482   8.594 -0.4275  0.0754  0.9557
  163SOPE  H18Y18360   4.133   3.558   8.593  0.2174  0.2312 -0.0821
  163SOPE  H18Z18361   4.249   3.579   8.732 -1.0623  0.9732  0.1941
  164SOPE     N18362   0.760   0.177  10.372 -0.2102  0.7707  0.0839
  164SOPE   HN118363   0.711   0.215  10.288  1.1318  0.2441 -0.9764
  164SOPE   HN218364   0.708   0.099  10.416 -0.5590  0.0635 -1.5293
  164SOPE   HN318365   0.764   0.247  10.449  0.8991  0.9489 -0.1255
  164SOPE   C1218366   0.899   0.136  10.350 -0.0779 -0.7878 -0.1021
  164SOPE  H12A18367   0.924   0.106  10.246  1.8415  0.1414  0.0447
  164SOPE  H12B18368   0.932   0.053  10.417  1.9462 -0.9206 -1.1704
  164SOPE   C1118369   0.981   0.269  10.372  0.3042  0.4095  0.2065
  164SOPE  H11A18370   0.978   0.322  10.275  1.8665 -1.8252 -1.1673
  164SOPE  H11B18371   1.086   0.233  10.385 -0.5206 -1.4898  2.3852
  164SOPE     P18372   0.932   0.487  10.510  0.1265 -0.3380 -0.2512
  164SOPE   O1318373   0.868   0.531  10.635  0.1586 -0.2365  0.0166
  164SOPE   O1418374   0.878   0.545  10.384  0.5518 -0.3526 -0.2958
  164SOPE   O1218375   0.936   0.331  10.499 -0.4805  0.1018 -0.2459
  164SOPE   O1118376   1.083   0.521  10.512  0.1901  0.2685  0.4171
  164SOPE    C118377   1.196   0.448  10.559  0.6047  0.4073 -0.2217
  164SOPE    HA18378   1.165   0.343  10.574 -0.5232  0.6470 -0.7157
  164SOPE    HB18379   1.234   0.489  10.654 -0.5878  1.0130  0.0161
  164SOPE    C218380   1.314   0.453  10.461  0.1658  0.0564  1.0995
  164SOPE    HS18381   1.356   0.555  10.476  0.5466 -0.0271  0.6251
  164SOPE   O2118382   1.262   0.438  10.327  0.2386 -1.1146  0.1666
  164SOPE   C2118383   1.287   0.531  10.239 -0.6727  0.5565 -0.4670
  164SOPE   O2218384   1.343   0.637  10.249 -0.0283 -0.4936 -0.2997
  164SOPE   C2218385   1.239   0.479  10.106  0.4941 -0.2507 -0.2423
  164SOPE   H2R18386   1.134   0.513  10.096  0.7192  0.8413  0.9627
  164SOPE   H2S18387   1.239   0.368  10.117  3.3631 -0.6379 -2.5698
  164SOPE    C318388   1.409   0.349  10.496 -0.6657 -0.7157 -0.3868
  164SOPE    HX18389   1.366   0.247  10.483 -0.5463 -0.9559  1.0083
  164SOPE    HY18390   1.431   0.352  10.605  2.3568  0.5667 -0.9251
  164SOPE   O3118391   1.531   0.375  10.428 -0.5066  0.5620  0.5232
  164SOPE   C3118392   1.549   0.299  10.323 -0.4698  0.7515  0.0547
  164SOPE   O3218393   1.469   0.215  10.279 -0.1150 -0.1927  0.0794
  164SOPE   C3218394   1.683   0.336  10.257  0.0147 -0.1938 -0.3014
  164SOPE   H2X18395   1.760   0.308  10.331  1.2421 -1.5310 -2.0009
  164SOPE   H2Y18396   1.683   0.445  10.234  0.3265 -0.2101 -0.3854
  164SOPE   C2318397   1.322   0.521   9.981 -0.3501 -0.1365  0.2673
  164SOPE   H3R18398   1.326   0.431   9.915 -0.8264 -0.6635  0.9387
  164SOPE   H3S18399   1.423   0.559  10.007  1.3754 -1.9250 -3.1588
  164SOPE   C2418400   1.265   0.643   9.896  0.2751 -0.2706 -0.6687
  164SOPE   H4R18401   1.171   0.607   9.849 -1.0544  0.4115  1.3498
  164SOPE   H4S18402   1.237   0.708   9.982  1.4539 -1.7644  0.9133
  164SOPE   C2518403   1.355   0.707   9.787 -0.3609  0.1733 -0.5276
  164SOPE   H5R18404   1.329   0.814   9.773 -1.4100 -0.0857 -0.5805
  164SOPE   H5S18405   1.457   0.709   9.832 -0.3196  2.0366 -0.5994
  164SOPE   C2618406   1.344   0.624   9.654  0.0042 -0.4604 -0.6949
  164SOPE   H6R18407   1.353   0.514   9.667 -1.0049 -0.4312  0.4408
  164SOPE   H6S18408   1.243   0.646   9.611 -0.8071 -0.3395  1.1915
  164SOPE   C2718409   1.452   0.664   9.553  0.0125 -0.1074  0.3188
  164SOPE   H7R18410   1.450   0.774   9.535 -2.1336  0.0029  0.9785
  164SOPE   H7S18411   1.551   0.646   9.599  1.5218  1.6527 -2.0230
  164SOPE   C2818412   1.447   0.591   9.424  0.7818 -1.0857 -0.5488
  164SOPE   H8R18413   1.537   0.583   9.359  0.3257  1.4937 -1.6494
  164SOPE   H8S18414   1.415   0.489   9.455  2.3537 -1.2232  0.7540
  164SOPE   C2918415   1.331   0.652   9.336  0.1475 -0.1012 -0.5858
  164SOPE   H9118416   1.270   0.729   9.385  0.4846  0.1847 -0.6089
  164SOPE  C21018417   1.323   0.635   9.204 -0.4909 -0.9136 -0.9128
  164SOPE  H10118418   1.256   0.700   9.147  1.0224  2.1665  0.5790
  164SOPE  C21118419   1.430   0.552   9.132  0.5263 -0.6802 -0.1424
  164SOPE  H11R18420   1.432   0.445   9.163 -0.5635 -0.1291  2.0324
  164SOPE  H11S18421   1.531   0.595   9.122  0.3676 -0.5306 -1.2800
  164SOPE  C21218422   1.398   0.552   8.977 -0.5151 -0.0339 -0.0631
  164SOPE  H12R18423   1.380   0.659   8.952  2.3861  0.7113  0.6791
  164SOPE  H12S18424   1.310   0.485   8.968  0.6496 -1.6794  0.4185
  164SOPE  C21318425   1.513   0.489   8.898 -0.6147 -0.3394  0.5725
  164SOPE  H13R18426   1.533   0.394   8.952 -1.9855  0.2771  2.2677
  164SOPE  H13S18427   1.605   0.551   8.901 -0.0731 -0.8598 -2.4813
  164SOPE  C21418428   1.480   0.475   8.749  0.1531 -0.0824 -0.9093
  164SOPE  H14R18429   1.473   0.576   8.704  2.0945  0.7230  0.4663
  164SOPE  H14S18430   1.382   0.422   8.752 -0.2065  0.6360  0.4586
  164SOPE  C21518431   1.595   0.412   8.667 -0.0332  0.3805  0.7212
  164SOPE  H15R18432   1.561   0.330   8.601  0.0908  0.6706  0.2900
  164SOPE  H15S18433   1.664   0.365   8.741 -2.7851 -1.3736  2.3523
  164SOPE  C21618434   1.677   0.512   8.582  0.7594 -0.4376  0.1796
  164SOPE  H16R18435   1.690   0.609   8.635 -0.7188  0.6872 -1.3858
  164SOPE  H16S18436   1.602   0.530   8.502  0.0676 -3.4064  0.0525
  164SOPE  C21718437   1.814   0.461   8.527  0.3911 -0.2887  0.7588
  164SOPE  H17R18438   1.877   0.426   8.612  0.0265  0.9126  1.5579
  164SOPE  H17S18439   1.862   0.547   8.476  0.0308 -0.7065 -0.3122
  164SOPE  C21818440   1.802   0.349   8.430  0.4511  0.0657 -0.2460
  164SOPE  H18R18441   1.758   0.257   8.474  1.9867 -0.7398 -0.3373
  164SOPE  H18S18442   1.903   0.316   8.399  0.8615  1.9559 -1.0541
  164SOPE  H18T18443   1.741   0.375   8.340  1.1142 -1.9422 -1.3142
  164SOPE   C3318444   1.721   0.269  10.129 -0.4927 -0.2734  0.7719
  164SOPE   H3X18445   1.689   0.164  10.119  1.0835 -0.7193  0.0469
  164SOPE   H3Y18446   1.831   0.275  10.113 -0.7249  1.1509 -0.5942
  164SOPE   C3418447   1.656   0.348  10.014 -0.1603 -0.3195  0.4264
  164SOPE   H4X18448   1.714   0.442  10.006 -1.0529  0.4036  1.9456
  164SOPE   H4Y18449   1.550   0.374  10.035 -0.6704  0.6665 -2.8351
  164SOPE   C3518450   1.660   0.280   9.883  0.1967  0.1254  0.2612
  164SOPE   H5X18451   1.588   0.195   9.879  0.3640 -0.0387  0.7216
  164SOPE   H5Y18452   1.761   0.246   9.855  0.6969  1.5343  0.2733
  164SOPE   C3618453   1.614   0.367   9.768  0.2392  0.6742  0.6561
  164SOPE   H6X18454   1.691   0.443   9.740  0.9241 -0.0588  0.5174
  164SOPE   H6Y18455   1.527   0.430   9.794 -0.1250  1.0504 -1.2901
  164SOPE   C3718456   1.588   0.275   9.645 -0.0975  0.3124 -0.3131
  164SOPE   H7X18457   1.662   0.195   9.623 -1.0182 -0.8782  0.8048
  164SOPE   H7Y18458   1.588   0.335   9.551  0.0697 -1.9130 -1.8163
  164SOPE   C3818459   1.453   0.208   9.640 -0.4091 -0.3169  0.4175
  164SOPE   H8X18460   1.372   0.284   9.642  0.3162  0.4552  1.3752
  164SOPE   H8Y18461   1.444   0.142   9.729  0.6295 -0.6777  0.2773
  164SOPE   C3918462   1.433   0.107   9.521  1.1195 -0.3452  0.0778
  164SOPE   H9X18463   1.337   0.054   9.539  1.3575 -0.3817  1.2963
  164SOPE   H9Y18464   1.513   0.030   9.514  0.1223 -1.3530 -0.6178
  164SOPE  C31018465   1.420   0.180   9.387 -0.0927 -0.0189  0.2318
  164SOPE  H10X18466   1.510   0.245   9.378  0.1873 -0.4396 -0.0450
  164SOPE  H10Y18467   1.337   0.253   9.391  0.4360  0.6614 -0.8341
  164SOPE  C31118468   1.415   0.088   9.272 -0.7017  0.0647 -0.3735
  164SOPE  H11X18469   1.317   0.035   9.266 -0.6562  0.0049 -0.6076
  164SOPE  H11Y18470   1.500   0.017   9.277 -1.0427 -0.3669 -0.5862
  164SOPE  C31218471   1.422   0.172   9.143 -0.0594 -0.0556 -0.2209
  164SOPE  H12X18472   1.515   0.232   9.147 -1.0566  1.5142  0.3563
  164SOPE  H12Y18473   1.333   0.238   9.151  0.2784  0.3422  0.3388
  164SOPE  C31318474   1.424   0.071   9.027 -0.4419 -0.0303  0.5979
  164SOPE  H13X18475   1.351  -0.010   9.048 -0.3948 -0.2055  0.1055
  164SOPE  H13Y18476   1.528   0.029   9.028 -0.3345  0.2034 -0.1365
  164SOPE  C31418477   1.395   0.142   8.895  0.9918 -0.0108 -0.3937
  164SOPE  H14X18478   1.471   0.223   8.889  1.1830 -0.1438  0.1859
  164SOPE  H14Y18479   1.293   0.186   8.888  0.6023 -0.4666  1.6767
  164SOPE  C31518480   1.422   0.065   8.765 -0.3279 -0.5770 -0.1269
  164SOPE  H15X18481   1.391   0.129   8.679  3.0103 -0.0536 -1.0870
  164SOPE  H15Y18482   1.348  -0.017   8.774 -2.1193  1.1899  2.8332
  164SOPE  C31618483   1.560  -0.009   8.758  0.6731 -0.7358 -0.5557
  164SOPE  H16X18484   1.579  -0.075   8.845  1.1257  0.9392  0.6869
  164SOPE  H16Y18485   1.642   0.065   8.748  0.2495 -0.1728  0.0097
  164SOPE  C31718486   1.567  -0.105   8.635  0.2590  0.0312  0.1309
  164SOPE  H17X18487   1.519  -0.067   8.542 -0.9030 -1.8846 -0.1001
  164SOPE  H17Y18488   1.495  -0.183   8.667 -0.1958  0.2752 -0.2745
  164SOPE  C31818489   1.709  -0.158   8.615  0.5605  0.0635 -0.5079
  164SOPE  H18X18490   1.713  -0.251   8.553 -1.5284 -0.7145  0.4189
  164SOPE  H18Y18491   1.746  -0.183   8.716 -0.4941 -1.6550 -0.4868
  164SOPE  H18Z18492   1.783  -0.085   8.576  1.7152 -0.3605  0.8345
  165SOPE     N18493   5.105   0.797  10.848  0.1548  0.5250  0.2090
  165SOPE   HN118494   5.073   0.749  10.934 -1.3982 -0.5287 -0.9035
  165SOPE   HN218495   5.168   0.868  10.890 -0.2979  0.4590  1.0238
  165SOPE   HN318496   5.021   0.840  10.803  0.5093  1.3569  0.3317
  165SOPE   C1218497   5.183   0.704  10.756 -0.0103 -0.0194 -0.1943
  165SOPE  H12A18498   5.116   0.671  10.674  0.4108 -1.3710 -0.0244
  165SOPE  H12B18499   5.225   0.616  10.810 -2.3212 -0.9667  0.1793
  165SOPE   C1118500   5.301   0.771  10.687  0.1457 -0.0613 -0.5738
  165SOPE  H11A18501   5.310   0.702  10.600 -0.4693  2.0817 -2.4326
  165SOPE  H11B18502   5.390   0.762  10.754  0.8274 -1.9865 -1.6607
  165SOPE     P18503   5.367   1.018  10.634 -0.2093 -0.2494  0.0647
  165SOPE   O1318504   5.503   0.956  10.633 -0.0541  0.2547  0.5120
  165SOPE   O1418505   5.343   1.109  10.751 -0.0930 -0.4191  0.4217
  165SOPE   O1218506   5.269   0.904  10.638 -0.5004  0.1436  0.0250
  165SOPE   O1118507   5.339   1.090  10.496  0.2973  0.5472 -0.5738
  165SOPE    C118508   5.220   1.156  10.469  0.3015 -0.6408 -0.8518
  165SOPE    HA18509   5.147   1.175  10.551 -2.1943 -2.3557 -2.5066
  165SOPE    HB18510   5.160   1.098  10.395 -2.2698  0.1860  0.4505
  165SOPE    C218511   5.252   1.300  10.399 -0.8574  0.2992 -0.3076
  165SOPE    HS18512   5.156   1.356  10.394 -0.7183  0.5205 -0.5783
  165SOPE   O2118513   5.318   1.287  10.267 -0.5166 -0.0666 -0.0989
  165SOPE   C2118514   5.232   1.258  10.180  0.0960 -0.0342 -0.7951
  165SOPE   O2218515   5.110   1.260  10.188 -0.1863  0.8431  0.3053
  165SOPE   C2218516   5.301   1.208  10.050  0.0082  0.0847  0.1903
  165SOPE   H2R18517   5.350   1.108  10.057  1.7166  0.6719 -2.0829
  165SOPE   H2S18518   5.382   1.280  10.027  1.3154 -0.7442  1.9390
  165SOPE    C318519   5.352   1.385  10.482 -0.3893 -0.0717  0.1979
  165SOPE    HX18520   5.445   1.327  10.501  0.1574 -0.0825 -2.2170
  165SOPE    HY18521   5.311   1.412  10.582 -0.0256 -0.0329  0.3388
  165SOPE   O3118522   5.386   1.502  10.414  0.2235 -0.0442  0.5490
  165SOPE   C3118523   5.302   1.604  10.422 -0.1253  0.1895 -0.1045
  165SOPE   O3218524   5.204   1.608  10.497 -0.8623  0.2887  0.3836
  165SOPE   C3218525   5.335   1.699  10.302  0.6374  0.0571 -0.2723
  165SOPE   H2X18526   5.443   1.694  10.281  0.4250  0.1944 -1.4582
  165SOPE   H2Y18527   5.312   1.803  10.336  0.2023  0.4803 -1.8000
  165SOPE   C2318528   5.195   1.198   9.937 -0.5817  0.6396  0.8440
  165SOPE   H3R18529   5.122   1.282   9.931 -0.0913  1.0082 -0.3729
  165SOPE   H3S18530   5.123   1.118   9.961 -0.9025  1.3186  2.2446
  165SOPE   C2418531   5.257   1.184   9.795  0.5162 -0.0386 -0.8885
  165SOPE   H4R18532   5.332   1.265   9.784  0.4078  0.0361 -1.0826
  165SOPE   H4S18533   5.321   1.094   9.810  1.5232  1.0892  2.3805
  165SOPE   C2518534   5.149   1.173   9.683  0.4127 -0.5036 -0.2994
  165SOPE   H5R18535   5.073   1.093   9.696 -0.2284 -0.1023 -1.4164
  165SOPE   H5S18536   5.102   1.273   9.685  1.8304  0.1918 -0.4106
  165SOPE   C2618537   5.214   1.162   9.545 -0.0212  0.3964  0.0139
  165SOPE   H6R18538   5.306   1.223   9.537  0.0396  0.5215  1.4505
  165SOPE   H6S18539   5.246   1.056   9.537 -0.5631  0.2153  0.1942
  165SOPE   C2718540   5.108   1.191   9.435 -0.0372 -0.5150 -0.3073
  165SOPE   H7R18541   5.022   1.122   9.445 -1.0333  0.7272  0.0435
  165SOPE   H7S18542   5.066   1.290   9.465 -0.9991 -0.5577 -1.4396
  165SOPE   C2818543   5.164   1.204   9.289  0.6034 -0.1709  0.0932
  165SOPE   H8R18544   5.080   1.206   9.216  1.4961 -1.7226 -1.0412
  165SOPE   H8S18545   5.222   1.298   9.282 -0.1431  0.3018  0.1103
  165SOPE   C2918546   5.249   1.091   9.246  0.0949 -0.0231  0.2971
  165SOPE   H9118547   5.273   1.025   9.331 -0.2924 -1.6294 -0.8021
  165SOPE  C21018548   5.299   1.060   9.127  0.5464  0.0047 -0.2012
  165SOPE  H10118549   5.361   0.970   9.117 -1.1298 -1.0835 -1.4141
  165SOPE  C21118550   5.258   1.132   9.000  0.1221  0.5622 -0.2443
  165SOPE  H11R18551   5.347   1.132   8.933 -0.6168  2.0510 -1.2767
  165SOPE  H11S18552   5.241   1.242   9.009  1.7235  1.1314 -2.9827
  165SOPE  C21218553   5.138   1.075   8.919  0.4329 -0.1427  0.1636
  165SOPE  H12R18554   5.051   1.115   8.976  0.1646  0.3539 -0.5761
  165SOPE  H12S18555   5.149   0.966   8.932  1.3593 -0.4186 -2.3879
  165SOPE  C21318556   5.119   1.133   8.771 -0.4333  0.8995  0.0706
  165SOPE  H13R18557   5.150   1.238   8.791 -2.1245  0.9914  2.8120
  165SOPE  H13S18558   5.014   1.145   8.739 -1.3110  1.4049  2.8117
  165SOPE  C21418559   5.219   1.065   8.675 -0.5632 -0.4397  0.1963
  165SOPE  H14R18560   5.309   1.034   8.730  0.2713  0.4238 -0.6457
  165SOPE  H14S18561   5.257   1.135   8.597 -1.0695  1.7228  1.8024
  165SOPE  C21518562   5.162   0.942   8.604  0.0968 -0.1030 -0.7133
  165SOPE  H15R18563   5.076   0.976   8.542 -1.3899  0.1372  1.3946
  165SOPE  H15S18564   5.125   0.885   8.691 -3.1905  0.4882 -1.6140
  165SOPE  C21618565   5.262   0.860   8.528  0.2122  0.3071 -0.1107
  165SOPE  H16R18566   5.352   0.827   8.585  0.6577 -0.7142 -1.3610
  165SOPE  H16S18567   5.312   0.920   8.449 -1.0205 -1.4813 -2.3770
  165SOPE  C21718568   5.203   0.738   8.457 -0.7691  0.1553  0.2777
  165SOPE  H17R18569   5.114   0.788   8.412 -0.2279  1.3871  0.5341
  165SOPE  H17S18570   5.168   0.658   8.526  0.7746 -1.2354 -0.4879
  165SOPE  C21818571   5.296   0.672   8.351  0.4846 -0.6638 -0.8355
  165SOPE  H18R18572   5.395   0.654   8.397  0.1892  1.0220  0.5687
  165SOPE  H18S18573   5.309   0.746   8.268  1.5628 -0.8087 -0.8117
  165SOPE  H18T18574   5.257   0.575   8.314 -0.7183  0.1005 -1.6541
  165SOPE   C3318575   5.245   1.653  10.183  0.6969 -0.1962 -0.0471
  165SOPE   H3X18576   5.148   1.708  10.189 -0.5473 -2.3270  0.4343
  165SOPE   H3Y18577   5.211   1.548  10.196 -2.2338  0.5322 -0.8886
  165SOPE   C3418578   5.308   1.672  10.049  0.0006 -0.1989  0.2212
  165SOPE   H4X18579   5.408   1.625  10.051 -0.0478 -0.3198  2.2562
  165SOPE   H4Y18580   5.327   1.780  10.035 -1.0821 -0.0487 -0.2392
  165SOPE   C3518581   5.227   1.612   9.931  0.2853 -0.1056  0.5270
  165SOPE   H5X18582   5.119   1.636   9.931  0.5241  1.2780 -1.9590
  165SOPE   H5Y18583   5.244   1.502   9.934  1.0839 -0.0247 -0.4612
  165SOPE   C3618584   5.280   1.645   9.790 -0.6661 -0.5085  0.9080
  165SOPE   H6X18585   5.282   1.753   9.766 -2.2385 -0.7884 -0.6844
  165SOPE   H6Y18586   5.222   1.589   9.713 -0.2549  0.6173 -0.2449
  165SOPE   C3718587   5.431   1.613   9.768  0.3724 -0.1628 -0.5113
  165SOPE   H7X18588   5.459   1.508   9.787  1.0333 -0.1045 -1.1367
  165SOPE   H7Y18589   5.494   1.677   9.834 -0.3904  0.2578 -0.1735
  165SOPE   C3818590   5.478   1.654   9.625  0.2490 -0.2851  0.0676
  165SOPE   H8X18591   5.589   1.644   9.628  0.2502 -0.0808  0.8126
  165SOPE   H8Y18592   5.461   1.762   9.607 -2.3854 -0.4488  1.1996
  165SOPE   C3918593   5.416   1.571   9.512  0.4483  0.0690  0.1632
  165SOPE   H9X18594   5.309   1.598   9.500  0.7580  2.5858  2.2368
  165SOPE   H9Y18595   5.430   1.462   9.525 -0.5336 -0.4857 -2.6825
  165SOPE  C31018596   5.473   1.595   9.368  0.0915  0.0583 -0.5898
  165SOPE  H10X18597   5.581   1.588   9.390 -0.6322  0.1884  3.9644
  165SOPE  H10Y18598   5.443   1.697   9.338 -1.9045  0.2417  1.6993
  165SOPE  C31118599   5.424   1.501   9.260  0.1799  0.2610  0.0415
  165SOPE  H11X18600   5.316   1.477   9.247  0.3266  0.5102 -2.0737
  165SOPE  H11Y18601   5.477   1.406   9.285  0.5677  0.8964  1.7168
  165SOPE  C31218602   5.473   1.560   9.126 -0.2922 -0.3105 -0.8416
  165SOPE  H12X18603   5.582   1.555   9.105  0.1881 -0.1442  1.3467
  165SOPE  H12Y18604   5.447   1.667   9.116  1.2309  0.0588 -1.1481
  165SOPE  C31318605   5.397   1.490   9.012 -0.5133  0.6856 -0.0776
  165SOPE  H13X18606   5.286   1.499   9.015 -0.6303 -0.7662  1.6389
  165SOPE  H13Y18607   5.420   1.382   9.024  1.4777  1.0379 -0.4146
  165SOPE  C31418608   5.460   1.536   8.876 -0.5762  0.3690  0.0936
  165SOPE  H14X18609   5.565   1.572   8.879 -1.3292  2.7440 -0.1655
  165SOPE  H14Y18610   5.406   1.631   8.857  0.3951  1.0593  0.6853
  165SOPE  C31518611   5.452   1.442   8.761  0.5841  0.0278  0.7285
  165SOPE  H15X18612   5.344   1.418   8.760  1.0497 -2.3318  1.7036
  165SOPE  H15Y18613   5.504   1.345   8.774 -0.5992 -0.8653 -0.8224
  165SOPE  C31618614   5.497   1.503   8.622 -0.1940 -0.2846 -0.7292
  165SOPE  H16X18615   5.601   1.539   8.630 -0.7800  1.8666 -1.9383
  165SOPE  H16Y18616   5.438   1.597   8.612  3.3024  2.0000 -1.8623
  165SOPE  C31718617   5.486   1.407   8.500  0.0921 -1.0878 -0.2892
  165SOPE  H17X18618   5.397   1.341   8.507 -0.3411 -0.3729  1.5688
  165SOPE  H17Y18619   5.569   1.333   8.500  0.1904 -0.9916 -1.1293
  165SOPE  C31818620   5.501   1.480   8.362  0.8618  0.4386  0.2038
  165SOPE  H18X18621   5.528   1.413   8.277 -0.2623  1.4614 -0.9908
  165SOPE  H18Y18622   5.585   1.552   8.376 -0.5392  1.6859  2.9288
  165SOPE  H18Z18623   5.414   1.539   8.327 -0.4832 -1.6905 -0.2469
  166SOPE     N18624   3.395   2.995  10.763  1.0818 -0.0780 -0.4854
  166SOPE   HN118625   3.342   3.078  10.729  1.7270  1.0644  1.1306
  166SOPE   HN218626   3.483   3.029  10.808  1.1038  0.0593 -0.6317
  166SOPE   HN318627   3.422   2.937  10.681 -2.5838 -1.4374 -0.9052
  166SOPE   C1218628   3.316   2.918  10.862 -0.2616  0.0375  0.1242
  166SOPE  H12A18629   3.342   2.956  10.963  4.0516 -1.3308 -0.2783
  166SOPE  H12B18630   3.353   2.814  10.858 -0.5999 -0.0657 -2.9903
  166SOPE   C1118631   3.159   2.919  10.836 -0.4135  0.4336 -0.4578
  166SOPE  H11A18632   3.109   3.014  10.865 -2.6012 -0.9014  0.4695
  166SOPE  H11B18633   3.114   2.832  10.890  1.2550  0.7725  1.5830
  166SOPE     P18634   2.996   2.851  10.644  0.2893 -0.2678  0.3481
  166SOPE   O1318635   2.895   2.969  10.658  0.1496 -0.0849 -0.2990
  166SOPE   O1418636   2.957   2.723  10.714  0.5798 -0.4863  0.4413
  166SOPE   O1218637   3.135   2.903  10.694  0.1407 -0.1830 -0.7416
  166SOPE   O1118638   3.024   2.814  10.495 -0.0263 -0.0706  0.3216
  166SOPE    C118639   3.145   2.842  10.428 -0.3713  0.0258  0.1770
  166SOPE    HA18640   3.232   2.790  10.474 -0.8237 -1.5413 -0.6770
  166SOPE    HB18641   3.162   2.952  10.430 -2.3253  0.3980 -0.9824
  166SOPE    C218642   3.138   2.807  10.279 -0.0988 -0.6176  0.4955
  166SOPE    HS18643   3.240   2.822  10.236  0.1344  0.3929  1.3529
  166SOPE   O2118644   3.045   2.892  10.215  0.7793 -0.8949 -0.5305
  166SOPE   C2118645   3.060   2.907  10.079 -0.0452  0.8144 -0.2534
  166SOPE   O2218646   3.158   2.868  10.017 -0.4383 -0.6710 -0.2120
  166SOPE   C2218647   2.935   2.965  10.024 -0.5109  0.1821  0.3003
  166SOPE   H2R18648   2.877   3.010  10.107  1.4951  0.7102  1.4829
  166SOPE   H2S18649   2.875   2.883   9.978  0.9985 -0.0614 -1.3728
  166SOPE    C318650   3.122   2.647  10.262  0.4523 -0.4732  0.5808
  166SOPE    HX18651   3.023   2.615  10.300  0.6393  0.9389  2.4183
  166SOPE    HY18652   3.197   2.601  10.330 -1.0942 -1.0546  1.9355
  166SOPE   O3118653   3.134   2.608  10.125 -0.2652  0.6399  0.3432
  166SOPE   C3118654   3.258   2.561  10.090 -0.3869  0.7773 -0.3987
  166SOPE   O3218655   3.340   2.513  10.164 -0.3352  0.5423 -0.2303
  166SOPE   C3218656   3.246   2.557   9.938 -1.1185  1.0365 -0.4544
  166SOPE   H2X18657   3.227   2.661   9.905  0.3491  1.4123 -0.1681
  166SOPE   H2Y18658   3.170   2.478   9.917  0.6129 -1.3126  1.5182
  166SOPE   C2318659   2.962   3.073   9.918  0.2395  1.2319 -0.4785
  166SOPE   H3R18660   3.034   3.149   9.955 -1.2754  2.2847  0.3874
  166SOPE   H3S18661   2.874   3.134   9.887 -0.0687  0.8865 -0.2880
  166SOPE   C2418662   3.017   3.018   9.781 -0.6553 -0.7498  0.5220
  166SOPE   H4R18663   3.093   2.939   9.797  0.0010 -0.3125 -0.3096
  166SOPE   H4S18664   2.931   2.967   9.733  0.9160 -2.6422 -0.3946
  166SOPE   C2518665   3.084   3.126   9.702  0.7891 -0.6159  0.3477
  166SOPE   H5R18666   3.005   3.203   9.686  2.8160  2.0266  2.0854
  166SOPE   H5S18667   3.161   3.185   9.757 -0.6142  2.0552 -0.3492
  166SOPE   C2618668   3.125   3.076   9.564 -0.1454 -0.2333  0.0177
  166SOPE   H6R18669   3.221   3.019   9.565 -0.1206 -0.2355 -1.1354
  166SOPE   H6S18670   3.048   3.014   9.514  0.2480 -0.5196 -0.2449
  166SOPE   C2718671   3.143   3.189   9.464  0.8394 -0.4129 -0.1801
  166SOPE   H7R18672   3.046   3.242   9.450  0.2018 -1.9538 -1.8537
  166SOPE   H7S18673   3.210   3.268   9.505  0.7658 -1.5296  2.2420
  166SOPE   C2818674   3.206   3.154   9.326 -0.1303 -0.2207 -0.0483
  166SOPE   H8R18675   3.206   3.244   9.261  1.4502 -0.9344 -1.1064
  166SOPE   H8S18676   3.312   3.123   9.338 -0.1917 -0.4047  0.0254
  166SOPE   C2918677   3.120   3.052   9.260  0.2565  0.3751 -0.0023
  166SOPE   H9118678   3.012   3.070   9.274 -0.0860 -0.8433 -0.9046
  166SOPE  C21018679   3.146   2.936   9.193  0.4246 -0.0652  0.3820
  166SOPE  H10118680   3.055   2.890   9.153  0.6920  1.3123 -2.0347
  166SOPE  C21118681   3.273   2.873   9.157 -0.1415 -0.0073  0.1572
  166SOPE  H11R18682   3.268   2.772   9.202 -0.1601 -0.3407 -0.5783
  166SOPE  H11S18683   3.356   2.915   9.218 -1.3098 -2.8577  4.1258
  166SOPE  C21218684   3.313   2.876   9.012  0.2213  0.0056  0.2240
  166SOPE  H12R18685   3.352   2.979   8.996  0.4786 -0.0989  0.1701
  166SOPE  H12S18686   3.219   2.861   8.956  0.1181  1.4043 -0.0152
  166SOPE  C21318687   3.422   2.788   8.961 -0.3334 -0.6485 -0.7975
  166SOPE  H13R18688   3.394   2.684   8.990  2.3494 -0.9469  1.0460
  166SOPE  H13S18689   3.508   2.808   9.028 -0.7196  0.1708 -0.5379
  166SOPE  C21418690   3.459   2.803   8.814 -0.6062  0.8409 -0.3188
  166SOPE  H14R18691   3.564   2.770   8.799 -0.9900 -0.0730 -1.0740
  166SOPE  H14S18692   3.454   2.906   8.773 -0.1355  0.5689 -1.0820
  166SOPE  C21518693   3.388   2.708   8.726  0.1689  1.3453  0.3146
  166SOPE  H15R18694   3.279   2.718   8.745  0.4184  1.7278  1.6204
  166SOPE  H15S18695   3.409   2.601   8.748 -3.4846 -0.0764 -2.1499
  166SOPE  C21618696   3.409   2.724   8.579 -1.1622  0.1274 -0.2465
  166SOPE  H16R18697   3.405   2.833   8.559  1.7800  1.2552  3.9887
  166SOPE  H16S18698   3.324   2.673   8.528 -0.6674 -0.7824 -0.1762
  166SOPE  C21718699   3.542   2.653   8.524  0.5641  0.0440  0.2368
  166SOPE  H17R18700   3.546   2.542   8.522 -1.5905 -0.0873 -2.1506
  166SOPE  H17S18701   3.615   2.677   8.604  0.6365 -0.9920  0.4967
  166SOPE  C21818702   3.573   2.702   8.380  0.6679 -0.1077 -0.2811
  166SOPE  H18R18703   3.554   2.809   8.355  3.4159  0.6504  0.4470
  166SOPE  H18S18704   3.515   2.638   8.310  4.0365 -3.3132 -0.4724
  166SOPE  H18T18705   3.682   2.699   8.355  0.7913  0.7277  0.1094
  166SOPE   C3318706   3.375   2.517   9.869 -0.6127  0.4734 -0.0388
  166SOPE   H3X18707   3.415   2.427   9.920 -2.6113  0.1411  1.0585
  166SOPE   H3Y18708   3.451   2.597   9.879 -0.6558  0.5150 -0.0398
  166SOPE   C3418709   3.377   2.485   9.711 -0.2421  0.3932 -0.5237
  166SOPE   H4X18710   3.313   2.394   9.702  0.3029 -0.1823  1.1177
  166SOPE   H4Y18711   3.475   2.450   9.672 -0.3394  0.7528 -1.0989
  166SOPE   C3518712   3.329   2.600   9.624  0.0068 -0.0377 -0.1410
  166SOPE   H5X18713   3.390   2.692   9.636  1.6963 -1.1212 -0.0541
  166SOPE   H5Y18714   3.227   2.632   9.651  1.1955  2.3417  1.9367
  166SOPE   C3618715   3.326   2.566   9.475 -0.0891 -0.1266  0.3633
  166SOPE   H6X18716   3.264   2.642   9.423  0.3246  0.9030  1.3139
  166SOPE   H6Y18717   3.264   2.475   9.462 -2.3738  1.2034  1.3055
  166SOPE   C3718718   3.462   2.547   9.414 -0.0676 -0.8466 -0.6213
  166SOPE   H7X18719   3.527   2.482   9.477  0.4321 -1.2280 -1.5218
  166SOPE   H7Y18720   3.514   2.645   9.409 -0.7171 -0.5054 -0.8091
  166SOPE   C3818721   3.437   2.489   9.275 -0.4479  0.0203  0.0876
  166SOPE   H8X18722   3.394   2.564   9.206 -0.1691  0.7002  0.6408
  166SOPE   H8Y18723   3.357   2.413   9.288 -0.3518  0.2439  2.5155
  166SOPE   C3918724   3.556   2.418   9.202 -0.0843 -0.2170 -0.1270
  166SOPE   H9X18725   3.587   2.323   9.251 -1.2295 -0.1425  0.7689
  166SOPE   H9Y18726   3.647   2.482   9.203  0.6761 -1.2849  0.0126
  166SOPE  C31018727   3.526   2.411   9.048  0.7223  0.5113  0.2870
  166SOPE  H10X18728   3.522   2.514   9.006 -2.9153  0.0653 -0.8105
  166SOPE  H10Y18729   3.423   2.370   9.040  1.5006 -1.4796 -0.1657
  166SOPE  C31118730   3.617   2.313   8.967  0.3415 -0.1202  0.2713
  166SOPE  H11X18731   3.629   2.228   9.037 -0.7733 -0.2775  0.2772
  166SOPE  H11Y18732   3.721   2.352   8.962 -0.1773  1.3941  0.7244
  166SOPE  C31218733   3.575   2.279   8.827 -0.7563 -0.3075 -0.5038
  166SOPE  H12X18734   3.521   2.366   8.786 -2.0596 -1.8735 -2.3046
  166SOPE  H12Y18735   3.502   2.197   8.846 -0.5679  0.2537  3.6502
  166SOPE  C31318736   3.692   2.231   8.740  0.6472  0.3915 -0.1820
  166SOPE  H13X18737   3.740   2.136   8.774  1.7502  0.8345 -0.4415
  166SOPE  H13Y18738   3.771   2.309   8.734 -1.3687  2.6558  0.9606
  166SOPE  C31418739   3.659   2.201   8.593  0.1522 -0.5796 -0.2250
  166SOPE  H14X18740   3.742   2.158   8.532 -0.3661  1.4457 -2.4887
  166SOPE  H14Y18741   3.653   2.303   8.549  0.8647 -0.1701  0.5676
  166SOPE  C31518742   3.537   2.118   8.565  0.3003  0.5390 -0.5061
  166SOPE  H15X18743   3.450   2.148   8.628  1.8842  2.5005  0.8714
  166SOPE  H15Y18744   3.567   2.013   8.585  3.7837  1.1115 -2.0609
  166SOPE  C31618745   3.486   2.119   8.423  0.2150  0.3414 -0.6671
  166SOPE  H16X18746   3.429   2.215   8.426  1.8594  1.3507  0.9529
  166SOPE  H16Y18747   3.422   2.033   8.394  2.5973 -1.2298 -1.5365
  166SOPE  C31718748   3.589   2.122   8.316  0.2160 -0.3196 -0.0728
  166SOPE  H17X18749   3.665   2.202   8.328  0.3055 -0.7271  2.6139
  166SOPE  H17Y18750   3.538   2.142   8.219 -0.4147  1.3416  0.5590
  166SOPE  C31818751   3.659   1.993   8.297  0.3724  0.5780  0.4182
  166SOPE  H18X18752   3.721   1.989   8.206  0.4312 -1.0467  0.4918
  166SOPE  H18Y18753   3.588   1.908   8.292 -0.5711  1.4039 -0.8184
  166SOPE  H18Z18754   3.731   1.965   8.377  0.6599 -0.5394 -0.2202
  167SOPE     N18755   4.475   6.236   6.214  0.5153  0.6777  0.0548
  167SOPE   HN118756   4.374   6.257   6.203 -0.2755 -0.7186  3.3117
  167SOPE   HN218757   4.499   6.153   6.156  0.5844  0.0539  0.9534
  167SOPE   HN318758   4.484   6.200   6.311  2.1481  2.5525  0.6637
  167SOPE   C1218759   4.572   6.337   6.200  0.6300 -0.2982  0.4083
  167SOPE  H12A18760   4.560   6.418   6.274 -0.7013  1.1560 -1.3080
  167SOPE  H12B18761   4.581   6.378   6.097 -2.9768  1.3856  0.6212
  167SOPE   C1118762   4.707   6.267   6.233 -0.3713 -0.5600  0.7608
  167SOPE  H11A18763   4.712   6.213   6.330  2.4605 -0.6591  0.6364
  167SOPE  H11B18764   4.774   6.355   6.235 -1.6233  0.4265  0.2703
  167SOPE     P18765   4.857   6.105   6.102 -0.1264  0.2319 -0.0154
  167SOPE   O1318766   4.967   6.194   6.058 -0.3990  0.3714  0.0083
  167SOPE   O1418767   4.830   5.980   6.022  0.2171 -0.3768 -0.2055
  167SOPE   O1218768   4.735   6.195   6.113 -0.5216 -0.2577 -0.3641
  167SOPE   O1118769   4.883   6.056   6.248  0.3827 -0.2229 -0.5446
  167SOPE    C118770   4.998   5.975   6.264  1.1294 -0.0556 -0.3610
  167SOPE    HA18771   5.087   6.033   6.230  0.1728  1.1753 -0.8672
  167SOPE    HB18772   4.981   5.887   6.200 -0.2958  0.3769 -0.6030
  167SOPE    C218773   4.993   5.925   6.414  1.0789 -0.5164  0.4748
  167SOPE    HS18774   4.888   5.912   6.445  0.4856 -2.4697 -2.0058
  167SOPE   O2118775   5.068   6.027   6.484 -0.0907  0.6546  0.3943
  167SOPE   C2118776   5.000   6.078   6.586 -0.3889 -0.2357  0.2920
  167SOPE   O2218777   4.891   6.044   6.623  0.2709  0.5176 -0.4722
  167SOPE   C2218778   5.081   6.202   6.643 -0.2423 -0.3632  0.8068
  167SOPE   H2R18779   5.097   6.269   6.556  0.7709  0.5267  1.6473
  167SOPE   H2S18780   5.178   6.154   6.667 -1.5566 -2.9369  1.4410
  167SOPE    C318781   5.060   5.788   6.436 -0.1066  0.5002 -0.8741
  167SOPE    HX18782   5.169   5.792   6.416 -0.0078 -1.9706 -1.2452
  167SOPE    HY18783   5.019   5.716   6.361  0.4383 -0.5939 -0.1397
  167SOPE   O3118784   5.030   5.737   6.568  0.7951  0.1956 -0.3927
  167SOPE   C3118785   5.109   5.776   6.663 -0.9101 -0.8277 -0.1702
  167SOPE   O3218786   5.214   5.844   6.652  0.0328 -0.1419 -0.5400
  167SOPE   C3218787   5.045   5.734   6.801  0.9381  0.1469 -0.6144
  167SOPE   H2X18788   5.042   5.623   6.802 -1.1636  0.1674 -1.1944
  167SOPE   H2Y18789   4.946   5.780   6.817  1.8663  1.1144  3.6141
  167SOPE   C2318790   5.015   6.260   6.764 -0.2320 -0.0509 -0.6131
  167SOPE   H3R18791   4.907   6.283   6.751 -0.6180 -0.7160  1.1169
  167SOPE   H3S18792   5.073   6.351   6.790  2.6782 -2.4897  2.2727
  167SOPE   C2418793   5.028   6.160   6.884  1.0429 -1.0581 -0.0679
  167SOPE   H4R18794   4.984   6.063   6.851 -3.4043  0.4617  0.6246
  167SOPE   H4S18795   5.134   6.139   6.909  0.7265 -0.9578  1.4315
  167SOPE   C2518796   4.957   6.199   7.015 -0.5048  0.2017 -0.6158
  167SOPE   H5R18797   4.880   6.273   6.984 -0.7957  0.5654  0.8656
  167SOPE   H5S18798   4.901   6.113   7.056 -1.3502  0.6438 -0.8268
  167SOPE   C2618799   5.050   6.281   7.115 -0.0171  0.0653 -0.2970
  167SOPE   H6R18800   5.110   6.209   7.176  1.3498  1.8679  0.5731
  167SOPE   H6S18801   5.097   6.361   7.055 -0.4872  1.4519  1.1296
  167SOPE   C2718802   4.955   6.346   7.212  0.1450 -0.2674 -0.0989
  167SOPE   H7R18803   4.873   6.407   7.169  1.8703  2.8644  0.7098
  167SOPE   H7S18804   4.894   6.266   7.259 -0.5894 -0.5995 -1.5434
  167SOPE   C2818805   5.009   6.442   7.317  0.0844 -0.1881 -0.8655
  167SOPE   H8R18806   5.064   6.524   7.267  1.6007  0.1497  1.2199
  167SOPE   H8S18807   4.932   6.488   7.383  1.6482 -0.0539  0.9533
  167SOPE   C2918808   5.102   6.362   7.408 -0.0630  0.1400 -0.1010
  167SOPE   H9118809   5.191   6.324   7.355  1.3045  2.3324  0.5113
  167SOPE  C21018810   5.097   6.339   7.541  0.1177  0.8361  0.2573
  167SOPE  H10118811   5.157   6.257   7.582 -0.1677  0.4084 -0.1718
  167SOPE  C21118812   4.991   6.380   7.636 -0.1795 -0.1512  0.7431
  167SOPE  H11R18813   4.904   6.410   7.574  2.3103  0.7553 -2.5493
  167SOPE  H11S18814   5.022   6.466   7.699 -0.8937  0.5010  0.2149
  167SOPE  C21218815   4.948   6.266   7.731 -0.4420 -0.0771  0.7259
  167SOPE  H12R18816   4.942   6.177   7.665 -2.1724  0.9970 -0.6515
  167SOPE  H12S18817   4.854   6.289   7.786  0.0717  0.2234  1.5056
  167SOPE  C21318818   5.051   6.248   7.845  0.2120  0.6271 -0.5330
  167SOPE  H13R18819   5.036   6.341   7.904 -0.8236  0.2196 -0.1281
  167SOPE  H13S18820   5.157   6.252   7.811 -0.0049  0.8442 -1.1951
  167SOPE  C21418821   5.032   6.132   7.948  0.9691 -0.2576 -0.2980
  167SOPE  H14R18822   5.056   6.034   7.900  1.6179 -1.1135  1.6735
  167SOPE  H14S18823   4.931   6.122   7.993  1.1617  0.5645  0.3361
  167SOPE  C21518824   5.134   6.113   8.064 -0.5455 -0.6088 -0.0856
  167SOPE  H15R18825   5.234   6.108   8.017  0.2413  2.1509  1.0785
  167SOPE  H15S18826   5.111   6.013   8.107  0.2032 -0.7796 -0.0613
  167SOPE  C21618827   5.122   6.232   8.165 -0.7450  0.6086 -0.2172
  167SOPE  H16R18828   5.018   6.251   8.200 -1.2662 -1.0924 -0.7774
  167SOPE  H16S18829   5.154   6.313   8.096 -0.5786 -0.3914 -1.3478
  167SOPE  C21718830   5.217   6.213   8.291  0.3774  0.1049  0.5232
  167SOPE  H17R18831   5.226   6.315   8.336  0.2590  0.1049  0.5509
  167SOPE  H17S18832   5.318   6.189   8.253  1.5828  1.5699  2.6053
  167SOPE  C21818833   5.180   6.097   8.388 -0.4292  0.4995 -0.2715
  167SOPE  H18R18834   5.251   6.090   8.473  0.2120 -2.1400 -0.9206
  167SOPE  H18S18835   5.189   5.998   8.339  0.3458  0.3075  0.2301
  167SOPE  H18T18836   5.077   6.114   8.425 -0.3279 -0.3328  0.4301
  167SOPE   C3318837   5.130   5.783   6.924  0.3952  0.0638 -0.2237
  167SOPE   H3X18838   5.184   5.877   6.903 -0.6297  0.4769 -1.1391
  167SOPE   H3Y18839   5.210   5.708   6.937  0.1286  0.0262  1.4112
  167SOPE   C3418840   5.047   5.798   7.052  0.0616 -0.0667 -0.0057
  167SOPE   H4X18841   5.006   5.700   7.083  0.9708 -0.0659  1.3016
  167SOPE   H4Y18842   4.951   5.853   7.040 -0.4264 -0.2381  2.4253
  167SOPE   C3518843   5.121   5.833   7.181 -0.4245  0.2198  0.2684
  167SOPE   H5X18844   5.171   5.930   7.160  1.3555 -0.7488 -0.2057
  167SOPE   H5Y18845   5.199   5.754   7.189  0.4605  1.0190 -0.2161
  167SOPE   C3618846   5.042   5.852   7.309  0.2445 -0.7166 -0.2215
  167SOPE   H6X18847   4.953   5.787   7.297  0.8790 -1.3039 -2.1051
  167SOPE   H6Y18848   5.011   5.958   7.319  1.1877 -0.4629  0.0909
  167SOPE   C3718849   5.110   5.813   7.431 -0.3919  0.2904  0.0492
  167SOPE   H7X18850   5.200   5.873   7.455 -1.0397  1.0811  0.5765
  167SOPE   H7Y18851   5.145   5.708   7.437  1.8475  0.9888  0.1830
  167SOPE   C3818852   5.019   5.821   7.559  0.5542  0.2347  0.1144
  167SOPE   H8X18853   4.918   5.777   7.541 -0.2697  1.7089  0.8647
  167SOPE   H8Y18854   5.003   5.927   7.590 -2.8792 -0.4797  1.3163
  167SOPE   C3918855   5.091   5.748   7.681 -0.0012  0.2975  0.0511
  167SOPE   H9X18856   5.187   5.799   7.707  0.7797 -0.9664 -0.2836
  167SOPE   H9Y18857   5.114   5.649   7.636 -1.0196  0.7070 -1.4274
  167SOPE  C31018858   5.020   5.735   7.810  0.6619  0.3691  0.1428
  167SOPE  H10X18859   4.923   5.683   7.793  0.9780  0.2464 -1.4904
  167SOPE  H10Y18860   4.991   5.836   7.846 -2.7224  0.2900 -1.9452
  167SOPE  C31118861   5.109   5.670   7.914 -0.3654 -0.1342  0.1422
  167SOPE  H11X18862   5.197   5.735   7.930  1.2733 -1.7042 -1.8585
  167SOPE  H11Y18863   5.150   5.580   7.863  1.4192  0.3685  0.6145
  167SOPE  C31218864   5.032   5.631   8.043  0.0441 -0.0890  0.8055
  167SOPE  H12X18865   5.076   5.533   8.072  0.1435 -0.5642 -0.8892
  167SOPE  H12Y18866   4.926   5.610   8.019 -0.4105  0.2304  2.3808
  167SOPE  C31318867   5.049   5.729   8.170  0.2598  0.1760 -0.3392
  167SOPE  H13X18868   4.993   5.821   8.143 -0.6375 -0.0707  0.5874
  167SOPE  H13Y18869   5.156   5.753   8.186  0.1541  0.1480  0.4697
  167SOPE  C31418870   4.995   5.675   8.299  0.4310 -0.5209 -0.1481
  167SOPE  H14X18871   4.884   5.677   8.294  0.4908  1.0950 -1.2198
  167SOPE  H14Y18872   5.012   5.752   8.378  1.2291 -1.1596  0.3240
  167SOPE  C31518873   5.050   5.541   8.350 -0.0809 -0.2036 -0.3250
  167SOPE  H15X18874   5.153   5.557   8.390 -1.2282 -0.9358  3.3350
  167SOPE  H15Y18875   5.058   5.460   8.275 -0.5979 -2.3936  1.8481
  167SOPE  C31618876   4.972   5.510   8.477  1.0382  0.1657  1.1551
  167SOPE  H16X18877   4.871   5.483   8.439  0.9563  2.4024 -0.3842
  167SOPE  H16Y18878   4.960   5.593   8.550  0.2445 -1.5254  3.0521
  167SOPE  C31718879   5.046   5.392   8.554 -0.2130 -0.4807 -0.1109
  167SOPE  H17X18880   5.147   5.433   8.576 -0.4408  0.6009 -0.9807
  167SOPE  H17Y18881   5.064   5.303   8.490  0.7038 -1.4461  1.4270
  167SOPE  C31818882   4.973   5.360   8.695 -0.6232  0.2416  1.1479
  167SOPE  H18X18883   4.906   5.272   8.685 -0.6532  0.4980 -1.6627
  167SOPE  H18Y18884   4.904   5.446   8.711  1.0033  1.8299  0.0438
  167SOPE  H18Z18885   5.046   5.352   8.778  1.6387  0.3349 -0.7236
  168SOPE     N18886   3.698   6.297   5.935 -0.1108 -0.1965 -0.1138
  168SOPE   HN118887   3.788   6.253   5.906  0.5142 -0.1243  1.6034
  168SOPE   HN218888   3.683   6.375   5.868  1.4247  2.0389  1.9973
  168SOPE   HN318889   3.716   6.351   6.022  1.2672 -0.1956 -0.3801
  168SOPE   C1218890   3.587   6.207   5.960 -0.0783 -0.0876  0.0048
  168SOPE  H12A18891   3.555   6.160   5.864 -0.8818  2.2734 -0.9546
  168SOPE  H12B18892   3.497   6.263   5.991 -2.4408 -2.1111 -2.6050
  168SOPE   C1118893   3.624   6.092   6.064 -0.2500 -0.1240 -0.6416
  168SOPE  H11A18894   3.710   6.039   6.018  1.1801 -0.7913  2.5184
  168SOPE  H11B18895   3.540   6.020   6.068  0.7898 -1.3684 -0.2519
  168SOPE     P18896   3.536   6.193   6.281 -0.1798  0.3925  0.0679
  168SOPE   O1318897   3.452   6.078   6.322  0.4199 -0.9269 -0.2077
  168SOPE   O1418898   3.465   6.312   6.225 -0.2531 -0.4306 -0.8164
  168SOPE   O1218899   3.657   6.149   6.186  0.2201 -0.4177 -0.3220
  168SOPE   O1118900   3.618   6.241   6.412  0.0005  0.9094  0.2251
  168SOPE    C118901   3.757   6.271   6.401  0.2222  0.0543  0.6419
  168SOPE    HA18902   3.790   6.359   6.460  1.5202  1.8114 -2.4717
  168SOPE    HB18903   3.781   6.310   6.301  0.8593  0.6720  1.0267
  168SOPE    C218904   3.842   6.151   6.432 -0.1414 -0.7791 -0.0685
  168SOPE    HS18905   3.799   6.062   6.381 -1.1658  0.2878 -1.1290
  168SOPE   O2118906   3.838   6.136   6.571  0.3757  0.8036 -0.0463
  168SOPE   C2118907   3.766   6.039   6.620 -0.3747 -0.8509  0.0634
  168SOPE   O2218908   3.712   5.947   6.559 -0.2190 -0.7007 -0.5535
  168SOPE   C2218909   3.763   6.068   6.765 -0.0114  0.6793  0.0022
  168SOPE   H2R18910   3.720   6.170   6.778 -0.1052  0.9159 -1.8471
  168SOPE   H2S18911   3.867   6.070   6.803  0.0626  3.0549 -0.1563
  168SOPE    C318912   3.985   6.159   6.380 -0.3730 -0.3821 -0.2315
  168SOPE    HX18913   4.027   6.256   6.414  1.8346 -0.0195 -3.5048
  168SOPE    HY18914   3.995   6.154   6.269 -1.0862  1.9312 -0.4682
  168SOPE   O3118915   4.072   6.067   6.452 -0.6708 -0.0750  0.4098
  168SOPE   C3118916   4.066   5.938   6.401  0.0075  0.5043 -0.1864
  168SOPE   O3218917   4.011   5.902   6.304  0.6565 -0.2507  0.2600
  168SOPE   C3218918   4.154   5.849   6.488  0.0091 -0.3700  0.2404
  168SOPE   H2X18919   4.256   5.891   6.501 -0.2059  1.5160 -2.9919
  168SOPE   H2Y18920   4.171   5.764   6.418 -0.4042 -0.2428 -0.0200
  168SOPE   C2318921   3.692   5.954   6.843  0.5430 -0.0779  0.0130
  168SOPE   H3R18922   3.742   5.858   6.816  0.9772  0.0760  0.2456
  168SOPE   H3S18923   3.587   5.965   6.811  0.5527 -0.2574 -0.0789
  168SOPE   C2418924   3.692   5.977   7.001 -0.6071  0.4017  0.3492
  168SOPE   H4R18925   3.652   5.887   7.052 -1.0820 -0.4998 -1.5076
  168SOPE   H4S18926   3.794   5.989   7.042  0.1213  2.2795 -1.8302
  168SOPE   C2518927   3.608   6.102   7.030  0.1450 -0.3759 -0.3060
  168SOPE   H5R18928   3.661   6.190   6.987 -0.2072  0.6666  1.3159
  168SOPE   H5S18929   3.505   6.094   6.990  0.2060 -0.8033 -0.3831
  168SOPE   C2618930   3.592   6.115   7.177  0.1602 -0.0580  0.3059
  168SOPE   H6R18931   3.496   6.160   7.210  1.1726  1.0315  1.8552
  168SOPE   H6S18932   3.590   6.012   7.220 -0.4472 -0.0139  0.3917
  168SOPE   C2718933   3.706   6.193   7.239  0.6453  0.2234  0.0005
  168SOPE   H7R18934   3.799   6.134   7.231  1.1419  1.0967 -0.9284
  168SOPE   H7S18935   3.722   6.286   7.180 -1.0404 -0.4551 -1.6716
  168SOPE   C2818936   3.669   6.225   7.379 -0.1206 -0.2504  0.1637
  168SOPE   H8R18937   3.594   6.306   7.375 -1.0801 -1.1710 -1.4111
  168SOPE   H8S18938   3.621   6.133   7.418  0.5141 -0.8952 -0.5419
  168SOPE   C2918939   3.797   6.257   7.455  0.8050 -0.4010  0.1326
  168SOPE   H9118940   3.859   6.331   7.403  1.8352 -2.2329 -1.3852
  168SOPE  C21018941   3.832   6.215   7.575  0.0368  0.3015 -0.4222
  168SOPE  H10118942   3.925   6.257   7.616 -0.0253 -1.0437  1.1919
  168SOPE  C21118943   3.751   6.126   7.668  0.3027  0.2379  0.1899
  168SOPE  H11R18944   3.697   6.043   7.618 -1.9063  0.4007  2.1375
  168SOPE  H11S18945   3.685   6.189   7.733  0.7239 -1.6192  2.5491
  168SOPE  C21218946   3.844   6.056   7.765 -0.5425 -0.6869  0.3257
  168SOPE  H12R18947   3.931   6.116   7.798 -0.0700 -0.2589 -1.5612
  168SOPE  H12S18948   3.879   5.970   7.703 -1.0837  0.5654 -1.8370
  168SOPE  C21318949   3.765   6.014   7.893 -0.6588 -0.8811 -0.0107
  168SOPE  H13R18950   3.821   5.934   7.947  0.2666  0.2099  0.7066
  168SOPE  H13S18951   3.671   5.968   7.857 -0.2039 -1.7488 -0.1193
  168SOPE  C21418952   3.727   6.110   8.003  0.3514  0.1651 -0.0351
  168SOPE  H14R18953   3.660   6.190   7.965 -1.6567 -2.2102 -1.8669
  168SOPE  H14S18954   3.820   6.154   8.043 -0.8000  0.0187  3.0450
  168SOPE  C21518955   3.658   6.037   8.120  0.3665 -0.0038  0.3257
  168SOPE  H15R18956   3.686   5.930   8.131 -0.0586  0.1078  3.2313
  168SOPE  H15S18957   3.548   6.032   8.108  0.4565  0.6798 -0.9024
  168SOPE  C21618958   3.691   6.109   8.252  0.2326  0.6173  0.1887
  168SOPE  H16R18959   3.790   6.159   8.265 -0.7054  2.4808  0.4992
  168SOPE  H16S18960   3.673   6.035   8.332 -1.8099  3.7602  2.9151
  168SOPE  C21718961   3.605   6.227   8.291  0.2553  0.4175  0.2693
  168SOPE  H17R18962   3.504   6.209   8.247  0.6300 -1.3053  0.0353
  168SOPE  H17S18963   3.647   6.317   8.241 -0.3468  1.8550  2.2496
  168SOPE  C21818964   3.591   6.252   8.442  0.5133 -0.5392 -0.1682
  168SOPE  H18R18965   3.561   6.356   8.467 -0.0196 -0.4877 -0.9827
  168SOPE  H18S18966   3.682   6.233   8.502 -0.0353 -1.9287  0.2563
  168SOPE  H18T18967   3.511   6.192   8.489  1.2161 -2.1671 -0.9634
  168SOPE   C3318968   4.081   5.820   6.623  0.1866  0.8402  0.8536
  168SOPE   H3X18969   4.002   5.744   6.606  0.4392  0.6169  0.6631
  168SOPE   H3Y18970   4.033   5.913   6.659 -1.3395  1.6287 -2.7362
  168SOPE   C3418971   4.184   5.764   6.720  0.5360  0.5311  0.0229
  168SOPE   H4X18972   4.268   5.836   6.723 -0.5112  1.9038 -1.7536
  168SOPE   H4Y18973   4.221   5.675   6.665 -0.9526  0.6457 -1.2141
  168SOPE   C3518974   4.136   5.724   6.862 -0.2085  0.4386 -0.2660
  168SOPE   H5X18975   4.222   5.688   6.922 -2.2637 -2.1941  1.2931
  168SOPE   H5Y18976   4.063   5.642   6.846 -0.9588  1.2382 -1.0858
  168SOPE   C3618977   4.053   5.835   6.930 -0.4248 -0.1639  0.1023
  168SOPE   H6X18978   3.967   5.859   6.864  1.1734  0.6491 -1.7898
  168SOPE   H6Y18979   4.114   5.924   6.956 -2.4220  1.0952  0.6565
  168SOPE   C3718980   4.015   5.791   7.074 -0.5137  0.2352  0.7325
  168SOPE   H7X18981   3.940   5.709   7.069  1.3634 -1.5529  0.5595
  168SOPE   H7Y18982   3.963   5.878   7.120  1.8881  0.4403  3.2645
  168SOPE   C3818983   4.136   5.755   7.163  0.3492 -0.3760  0.0448
  168SOPE   H8X18984   4.210   5.836   7.149  0.1212 -0.3781 -1.2646
  168SOPE   H8Y18985   4.180   5.659   7.129 -1.7386 -1.4125  0.0987
  168SOPE   C3918986   4.098   5.727   7.303  0.1044 -0.1312  0.1486
  168SOPE   H9X18987   4.018   5.650   7.301  0.9020 -0.9531 -1.4427
  168SOPE   H9Y18988   4.056   5.821   7.346  0.4477  0.4901 -0.8405
  168SOPE  C31018989   4.219   5.681   7.396 -0.6910 -0.4417  0.2373
  168SOPE  H10X18990   4.297   5.760   7.386 -1.1545 -0.3242 -4.0190
  168SOPE  H10Y18991   4.264   5.593   7.346  1.5651  0.9071 -0.2886
  168SOPE  C31118992   4.169   5.641   7.532  0.2250 -0.6609  0.2687
  168SOPE  H11X18993   4.244   5.574   7.581  0.8854 -0.7414 -0.8154
  168SOPE  H11Y18994   4.077   5.580   7.516 -0.2099 -0.5545  2.1188
  168SOPE  C31218995   4.136   5.762   7.625 -0.0452  0.4037 -0.8221
  168SOPE  H12X18996   4.076   5.714   7.705 -0.0743 -1.0899 -1.7109
  168SOPE  H12Y18997   4.067   5.832   7.572  0.0516 -0.5988 -2.3415
  168SOPE  C31318998   4.258   5.834   7.680 -0.6759  0.4476  0.8182
  168SOPE  H13X18999   4.308   5.890   7.598  0.0546 -0.4216  0.6571
  168SOPE  H13Y19000   4.329   5.753   7.705 -1.2747 -0.8833 -1.4741
  168SOPE  C31419001   4.226   5.932   7.786  0.1255  0.0846 -0.4966
  168SOPE  H14X19002   4.143   6.000   7.757 -0.2994 -0.4693 -0.6017
  168SOPE  H14Y19003   4.314   5.998   7.803 -0.0567  0.7092 -1.8362
  168SOPE  C31519004   4.180   5.868   7.918  0.1741 -0.9605  0.0863
  168SOPE  H15X19005   4.255   5.797   7.957 -1.0410 -1.3302  1.8614
  168SOPE  H15Y19006   4.088   5.812   7.892  0.8435 -1.6451 -0.8621
  168SOPE  C31619007   4.124   5.958   8.027 -0.0553  0.1134 -0.3678
  168SOPE  H16X19008   4.052   5.906   8.094 -0.0423 -2.0358 -1.9149
  168SOPE  H16Y19009   4.065   6.040   7.983 -1.7494 -1.0409 -0.3247
  168SOPE  C31719010   4.232   6.019   8.109 -0.4808 -0.2388 -0.2387
  168SOPE  H17X19011   4.296   6.097   8.062 -1.7212  1.4017  0.7038
  168SOPE  H17Y19012   4.308   5.942   8.133 -2.2666 -2.2404 -0.7640
  168SOPE  C31819013   4.173   6.089   8.235 -0.0990 -0.5831 -0.3707
  168SOPE  H18X19014   4.089   6.159   8.216  0.0858 -0.7825 -2.1141
  168SOPE  H18Y19015   4.249   6.134   8.302 -2.8638  0.8648  1.9976
  168SOPE  H18Z19016   4.129   6.005   8.292  0.0510 -1.8197 -2.0023
  169SOPE     N19017   1.508   5.229   6.229  0.0864 -0.0408 -0.2027
  169SOPE   HN119018   1.430   5.291   6.198 -1.7815 -2.3742 -0.4609
  169SOPE   HN219019   1.565   5.284   6.296 -0.4918  0.9128 -0.4668
  169SOPE   HN319020   1.560   5.214   6.140 -0.2146  0.4613 -0.4766
  169SOPE   C1219021   1.460   5.091   6.271  0.4770 -0.4316  0.5690
  169SOPE  H12A19022   1.552   5.028   6.263  2.2827  2.1853 -0.9337
  169SOPE  H12B19023   1.402   5.050   6.185 -1.6684  0.5439  1.4909
  169SOPE   C1119024   1.369   5.103   6.395 -0.6769  0.1176 -0.4145
  169SOPE  H11A19025   1.439   5.145   6.469  0.6302  0.1293 -1.6138
  169SOPE  H11B19026   1.339   4.999   6.420  3.1769 -1.1257 -0.3394
  169SOPE     P19027   1.150   5.218   6.463 -0.3735  0.3843 -0.1863
  169SOPE   O1319028   1.065   5.313   6.381  0.3998 -0.6942 -0.0696
  169SOPE   O1419029   1.196   5.258   6.596  0.0684  0.4870 -0.4201
  169SOPE   O1219030   1.269   5.202   6.364 -0.6349  0.2762 -0.1822
  169SOPE   O1119031   1.087   5.080   6.463  0.0169  0.8185  0.2923
  169SOPE    C119032   0.960   5.047   6.512  0.5673 -0.2309 -0.4523
  169SOPE    HA19033   0.913   4.997   6.425  1.9588  0.3783 -1.6027
  169SOPE    HB19034   0.899   5.137   6.538 -0.2775 -0.1137 -2.6378
  169SOPE    C219035   0.958   4.943   6.635 -0.1937  0.2868  0.0862
  169SOPE    HS19036   0.857   4.899   6.648 -0.6440  0.6768 -1.7449
  169SOPE   O2119037   1.020   5.006   6.749  0.1934 -0.6592  0.5618
  169SOPE   C2119038   0.936   5.073   6.829  0.0998 -0.6755 -0.1537
  169SOPE   O2219039   0.822   5.101   6.798  0.3557 -0.2376  0.4075
  169SOPE   C2219040   1.007   5.120   6.960  0.0850  0.5969 -0.8310
  169SOPE   H2R19041   1.100   5.179   6.947  0.0078  1.1214  0.7768
  169SOPE   H2S19042   1.029   5.030   7.022  0.7396  0.7162 -0.8842
  169SOPE    C319043   1.051   4.819   6.598  0.1146  0.9573  0.2619
  169SOPE    HX19044   1.154   4.853   6.573  0.2923 -0.5085 -1.2385
  169SOPE    HY19045   1.004   4.776   6.507  0.2479  1.5239 -0.0811
  169SOPE   O3119046   1.051   4.720   6.705  0.0633 -0.5400  0.3438
  169SOPE   C3119047   1.114   4.610   6.663 -0.7663  0.3041  0.5611
  169SOPE   O3219048   1.165   4.596   6.554 -0.2470  0.1378  0.3272
  169SOPE   C3219049   1.137   4.519   6.776  0.1942  0.1053 -0.1065
  169SOPE   H2X19050   1.202   4.432   6.754  0.1468  0.0037  0.1518
  169SOPE   H2Y19051   1.037   4.479   6.802 -0.4441  1.3142 -0.6155
  169SOPE   C2319052   0.919   5.224   7.043 -0.5458  0.6288 -0.2591
  169SOPE   H3R19053   0.813   5.190   7.037 -0.5060  0.4979 -0.2253
  169SOPE   H3S19054   0.919   5.323   6.992 -0.2456  0.9128  0.2750
  169SOPE   C2419055   0.973   5.249   7.189  0.9947 -0.3653 -0.3343
  169SOPE   H4R19056   1.081   5.272   7.184  0.8583  0.6622  0.9110
  169SOPE   H4S19057   0.906   5.326   7.233 -1.5359 -2.5718 -0.0402
  169SOPE   C2519058   0.946   5.128   7.281 -0.2734  0.0086  0.2041
  169SOPE   H5R19059   0.847   5.081   7.261 -0.6672 -0.5501  2.9772
  169SOPE   H5S19060   1.022   5.056   7.243  0.0033  1.6048 -2.5492
  169SOPE   C2619061   0.962   5.160   7.424 -0.3817 -0.0583 -0.2536
  169SOPE   H6R19062   1.066   5.193   7.447 -1.0309  1.9557 -0.0236
  169SOPE   H6S19063   0.894   5.240   7.457 -2.2153 -1.2327 -1.0293
  169SOPE   C2719064   0.928   5.034   7.507  0.0848 -0.1107  0.6164
  169SOPE   H7R19065   0.820   5.012   7.495 -0.2463  1.7152 -0.1409
  169SOPE   H7S19066   0.984   4.954   7.454 -1.7044 -1.3228  0.4932
  169SOPE   C2819067   0.959   5.043   7.655  0.5255  0.1085  0.5259
  169SOPE   H8R19068   1.060   5.080   7.682  0.3438  0.5410  0.6239
  169SOPE   H8S19069   0.903   5.125   7.705 -0.2082 -0.4491  0.6324
  169SOPE   C2919070   0.930   4.907   7.718  0.3371 -0.2198  0.3504
  169SOPE   H9119071   0.945   4.825   7.645 -0.8686 -0.4294  0.3121
  169SOPE  C21019072   0.879   4.869   7.838 -0.5044  0.5780 -0.3988
  169SOPE  H10119073   0.872   4.762   7.858  0.2600  0.9453  2.0909
  169SOPE  C21119074   0.837   4.962   7.949 -0.8217 -0.7245  0.0990
  169SOPE  H11R19075   0.801   5.057   7.905 -0.5651 -0.8439 -0.3788
  169SOPE  H11S19076   0.925   4.985   8.012  1.0099 -2.6220 -1.5794
  169SOPE  C21219077   0.743   4.914   8.058  0.2191  0.5738 -0.0872
  169SOPE  H12R19078   0.642   4.900   8.012  0.0413  0.1159  0.4327
  169SOPE  H12S19079   0.746   4.998   8.130  5.3364  0.9175 -0.3801
  169SOPE  C21319080   0.802   4.781   8.131 -1.2074 -0.1756 -0.0638
  169SOPE  H13R19081   0.910   4.795   8.151 -1.4071 -0.9289  1.6567
  169SOPE  H13S19082   0.786   4.691   8.068  0.8141 -0.9529  0.4431
  169SOPE  C21419083   0.735   4.758   8.264  0.1579  0.2078  0.3317
  169SOPE  H14R19084   0.756   4.651   8.289  3.7162  0.6699 -0.0795
  169SOPE  H14S19085   0.625   4.773   8.264  0.2139  0.7426  1.2317
  169SOPE  C21519086   0.780   4.856   8.376 -1.2478 -0.3388  0.5984
  169SOPE  H15R19087   0.780   4.959   8.335 -1.3282 -0.2825  0.7369
  169SOPE  H15S19088   0.889   4.839   8.387 -0.7081  2.6195  0.5455
  169SOPE  C21619089   0.704   4.857   8.508  0.5099  0.5194  0.3121
  169SOPE  H16R19090   0.749   4.930   8.579  0.5112  1.2461 -0.4165
  169SOPE  H16S19091   0.688   4.753   8.542 -0.5618  0.4795 -0.2762
  169SOPE  C21719092   0.565   4.926   8.483 -0.2312  0.3320 -0.0016
  169SOPE  H17R19093   0.518   4.873   8.397  3.5394 -1.6236 -1.1081
  169SOPE  H17S19094   0.587   5.030   8.452  0.8656  0.5979  1.5815
  169SOPE  C21819095   0.481   4.915   8.612  0.1570  0.0449  0.5757
  169SOPE  H18R19096   0.537   4.946   8.703  1.3144  1.0195 -0.4413
  169SOPE  H18S19097   0.450   4.809   8.621 -2.4405  0.7380  0.8478
  169SOPE  H18T19098   0.396   4.984   8.594  0.4315  0.0026 -1.0738
  169SOPE   C3319099   1.184   4.585   6.915  0.1611  0.3873  0.5272
  169SOPE   H3X19100   1.173   4.695   6.907  1.6844  0.5249 -0.0386
  169SOPE   H3Y19101   1.295   4.577   6.925  0.0339  1.2237  3.8059
  169SOPE   C3419102   1.123   4.535   7.044  0.0129  0.2252  0.4965
  169SOPE   H4X19103   1.014   4.555   7.048 -0.1259 -0.6635  1.6968
  169SOPE   H4Y19104   1.173   4.592   7.124 -0.3403 -0.3466  1.1350
  169SOPE   C3519105   1.128   4.384   7.069 -0.3729 -0.5903  0.2281
  169SOPE   H5X19106   1.229   4.338   7.081 -0.5084 -0.7904  0.6301
  169SOPE   H5Y19107   1.089   4.347   6.972 -1.8695 -1.2597  1.0586
  169SOPE   C3619108   1.045   4.351   7.191  0.4856  0.6077  0.0418
  169SOPE   H6X19109   1.035   4.242   7.206 -0.2377  0.5856 -0.5763
  169SOPE   H6Y19110   0.943   4.394   7.183  0.3964  0.7401  1.6318
  169SOPE   C3719111   1.099   4.414   7.318  0.4659 -0.0745 -0.1867
  169SOPE   H7X19112   1.126   4.521   7.303  3.4039 -0.9628 -1.9963
  169SOPE   H7Y19113   1.198   4.366   7.334  0.1056 -0.9962 -0.6687
  169SOPE   C3819114   0.998   4.406   7.429 -0.3566 -0.3938 -0.4203
  169SOPE   H8X19115   0.912   4.467   7.394  0.8693  2.7882  1.5772
  169SOPE   H8Y19116   0.970   4.300   7.446 -0.1166 -1.2176 -4.2969
  169SOPE   C3919117   1.055   4.469   7.557  0.7016  0.3638 -0.2021
  169SOPE   H9X19118   1.066   4.579   7.550  0.2347  0.5685  1.6727
  169SOPE   H9Y19119   1.160   4.437   7.576  0.2527 -0.9986  0.0956
  169SOPE  C31019120   0.966   4.426   7.680  0.1910  0.3593  0.0561
  169SOPE  H10X19121   0.952   4.316   7.685  0.0001  0.3417 -0.7157
  169SOPE  H10Y19122   0.865   4.465   7.653 -0.4876 -1.0473  0.4656
  169SOPE  C31119123   1.023   4.491   7.805 -0.6728  0.2687  0.2431
  169SOPE  H11X19124   1.013   4.601   7.812 -0.8344  0.3116 -0.5797
  169SOPE  H11Y19125   1.131   4.467   7.817 -0.0663  2.0373 -1.2027
  169SOPE  C31219126   0.950   4.436   7.928 -0.1735 -0.4066  0.0583
  169SOPE  H12X19127   0.943   4.329   7.900  0.6566 -0.8791  1.5767
  169SOPE  H12Y19128   0.850   4.483   7.936  0.7686  1.6362  0.7027
  169SOPE  C31319129   1.033   4.444   8.053 -1.3146 -0.5683  0.7762
  169SOPE  H13X19130   1.072   4.547   8.070 -1.8493 -0.5574  2.0947
  169SOPE  H13Y19131   1.120   4.375   8.047 -1.0624 -0.1422 -0.9637
  169SOPE  C31419132   0.958   4.384   8.168  0.5051  0.0744 -0.0400
  169SOPE  H14X19133   0.914   4.287   8.137 -0.4103 -0.7520  3.4370
  169SOPE  H14Y19134   0.876   4.456   8.189  1.4528  1.9192 -2.2208
  169SOPE  C31519135   1.042   4.367   8.293 -0.8403  0.3967 -0.6314
  169SOPE  H15X19136   1.093   4.465   8.308  1.0738 -0.6568  0.1391
  169SOPE  H15Y19137   1.124   4.294   8.274 -0.4044  0.1802  1.7148
  169SOPE  C31619138   0.956   4.339   8.419 -0.4274  0.0569 -0.8847
  169SOPE  H16X19139   0.888   4.253   8.401  0.8086 -1.7690  2.2909
  169SOPE  H16Y19140   0.887   4.425   8.434  1.7472  1.6819  0.4833
  169SOPE  C31719141   1.047   4.315   8.545 -0.3811  0.6109  0.1175
  169SOPE  H17X19142   1.148   4.274   8.522  0.1832  1.5099  0.8898
  169SOPE  H17Y19143   0.997   4.248   8.619 -0.0998  0.5818  0.2864
  169SOPE  C31819144   1.083   4.441   8.622  0.0340 -0.2594  0.3011
  169SOPE  H18X19145   1.131   4.417   8.719  0.4517 -0.8696 -0.0488
  169SOPE  H18Y19146   1.003   4.516   8.638  1.3038  1.1290  0.2941
  169SOPE  H18Z19147   1.161   4.493   8.562  1.3774 -2.4083  0.0688
  170SOPE     N19148   4.949   2.574   6.441  0.4691  0.4375 -0.5794
  170SOPE   HN119149   5.038   2.627   6.443  1.5110 -1.2640  0.7410
  170SOPE   HN219150   4.953   2.517   6.528  1.6674 -1.3103 -1.7204
  170SOPE   HN319151   4.969   2.507   6.364 -0.9703 -0.7259  0.0050
  170SOPE   C1219152   4.836   2.677   6.431  0.0744 -0.9076  0.1004
  170SOPE  H12A19153   4.852   2.730   6.335  0.3087  0.1744  0.7317
  170SOPE  H12B19154   4.844   2.741   6.522  2.0739 -1.9344  0.7029
  170SOPE   C1119155   4.698   2.617   6.450 -0.4105 -0.0511 -0.6739
  170SOPE  H11A19156   4.701   2.557   6.544  1.1675  1.3762  0.2377
  170SOPE  H11B19157   4.687   2.538   6.373 -0.3690 -0.5587 -0.1643
  170SOPE     P19158   4.515   2.752   6.317 -0.1088 -0.2367 -0.2214
  170SOPE   O1319159   4.429   2.639   6.272  0.5220 -0.8082 -0.3100
  170SOPE   O1419160   4.614   2.796   6.218  0.3732 -0.4641 -0.0504
  170SOPE   O1219161   4.592   2.716   6.451 -0.8119  0.2879 -0.0247
  170SOPE   O1119162   4.415   2.867   6.360  0.4896  0.0070 -0.2558
  170SOPE    C119163   4.437   2.951   6.476 -0.5278  0.0432  0.6160
  170SOPE    HA19164   4.410   3.057   6.455  1.8255  0.9552  1.8779
  170SOPE    HB19165   4.547   2.954   6.487 -0.1551 -3.1821 -0.9600
  170SOPE    C219166   4.355   2.908   6.602  0.4380 -0.4485  0.4567
  170SOPE    HS19167   4.348   3.005   6.656  1.5939  0.0430 -0.2271
  170SOPE   O2119168   4.429   2.812   6.682 -0.0523 -0.3275  0.3554
  170SOPE   C2119169   4.543   2.844   6.746  0.3505  0.4151 -0.0973
  170SOPE   O2219170   4.612   2.942   6.732  0.4798  0.0119 -0.1976
  170SOPE   C2219171   4.568   2.738   6.857 -0.4857 -0.4679  0.1898
  170SOPE   H2R19172   4.635   2.671   6.799 -1.3736 -0.0992 -1.3190
  170SOPE   H2S19173   4.472   2.694   6.889  0.1974 -1.6624  0.6541
  170SOPE    C319174   4.207   2.860   6.570  0.1560 -0.4589 -0.1641
  170SOPE    HX19175   4.227   2.758   6.529 -0.8062 -2.2196  3.3841
  170SOPE    HY19176   4.162   2.926   6.493  0.6383 -0.8203 -0.7778
  170SOPE   O3119177   4.122   2.851   6.684 -0.0372 -0.1896 -0.1123
  170SOPE   C3119178   4.074   2.963   6.739  0.5779 -0.5999 -0.0529
  170SOPE   O3219179   4.105   3.074   6.701  0.2689 -0.1702 -0.2584
  170SOPE   C3219180   3.974   2.934   6.850 -0.4181 -0.3333 -0.6327
  170SOPE   H2X19181   3.930   2.835   6.828 -2.6174  0.3947  0.2160
  170SOPE   H2Y19182   3.907   3.022   6.839  0.8353  0.6063 -1.0126
  170SOPE   C2319183   4.649   2.787   6.980  0.1394 -0.0341  0.0703
  170SOPE   H3R19184   4.582   2.839   7.052 -1.2935  0.6604 -1.6754
  170SOPE   H3S19185   4.736   2.855   6.962 -0.4256  1.3152  2.1175
  170SOPE   C2419186   4.704   2.663   7.058 -0.7712 -0.2530 -1.0840
  170SOPE   H4R19187   4.620   2.601   7.097 -0.4418 -1.0598 -1.6182
  170SOPE   H4S19188   4.763   2.601   6.987  0.4677 -0.0323 -0.2624
  170SOPE   C2519189   4.804   2.698   7.178 -0.2997 -0.5289 -0.0593
  170SOPE   H5R19190   4.899   2.741   7.138 -1.1132  1.8828  0.4344
  170SOPE   H5S19191   4.751   2.780   7.230 -2.5921 -1.3868 -0.9474
  170SOPE   C2619192   4.838   2.586   7.271 -0.1028 -0.0494 -0.5918
  170SOPE   H6R19193   4.750   2.545   7.326  1.2317 -2.1657  0.1017
  170SOPE   H6S19194   4.876   2.496   7.217 -1.1459  0.2606 -1.8908
  170SOPE   C2719195   4.940   2.624   7.375  0.4342  0.0818  0.4275
  170SOPE   H7R19196   4.985   2.539   7.431  0.9212  0.5921  0.8225
  170SOPE   H7S19197   5.028   2.673   7.328 -0.6464  1.0972 -0.5808
  170SOPE   C2819198   4.879   2.713   7.491 -0.6685  0.2221  0.8660
  170SOPE   H8R19199   4.965   2.761   7.544  0.2296 -1.0836  0.6529
  170SOPE   H8S19200   4.811   2.789   7.448 -0.9059  0.5003  1.7018
  170SOPE   C2919201   4.808   2.628   7.598  0.4442 -0.7391 -0.4195
  170SOPE   H9119202   4.733   2.561   7.553 -0.7828  0.0164  0.4627
  170SOPE  C21019203   4.820   2.631   7.728  0.6969 -0.2457 -0.5732
  170SOPE  H10119204   4.741   2.589   7.792  1.2236  2.8461  2.3653
  170SOPE  C21119205   4.917   2.719   7.807  0.7579 -0.1781 -0.2451
  170SOPE  H11R19206   4.947   2.809   7.750 -0.2278  0.0994 -0.3500
  170SOPE  H11S19207   5.011   2.660   7.815  0.2842 -0.9666 -0.4022
  170SOPE  C21219208   4.878   2.762   7.951  0.6719 -0.5946  0.9337
  170SOPE  H12R19209   4.856   2.671   8.012 -1.4120  0.3086  1.6211
  170SOPE  H12S19210   4.781   2.815   7.942 -0.5259 -2.6920  0.9242
  170SOPE  C21319211   4.979   2.860   8.020 -1.0928  0.1650  0.0444
  170SOPE  H13R19212   5.002   2.946   7.954 -0.8687 -1.5822 -2.2834
  170SOPE  H13S19213   5.069   2.796   8.032  1.2634  2.4282 -3.6101
  170SOPE  C21419214   4.922   2.912   8.158 -0.0296 -0.2430  0.4321
  170SOPE  H14R19215   4.892   2.831   8.228 -3.0771  0.0241 -0.4227
  170SOPE  H14S19216   4.834   2.976   8.133 -0.5272 -1.5952 -1.5614
  170SOPE  C21519217   5.023   3.017   8.218  0.3666  0.4312 -0.1985
  170SOPE  H15R19218   5.038   3.092   8.137 -3.6381  0.0560 -1.4821
  170SOPE  H15S19219   5.118   2.964   8.240  0.3977  0.2530 -0.7578
  170SOPE  C21619220   4.981   3.094   8.341  0.0527  0.1719 -0.6124
  170SOPE  H16R19221   4.875   3.113   8.316  0.3921  0.2825 -2.0728
  170SOPE  H16S19222   5.038   3.190   8.348  1.3271 -0.6494  1.3121
  170SOPE  C21719223   5.001   3.013   8.468  0.7623 -0.2656  0.5358
  170SOPE  H17R19224   5.093   3.055   8.513  1.0568  0.0656 -0.3683
  170SOPE  H17S19225   5.017   2.906   8.442 -1.4021 -0.4242 -0.3949
  170SOPE  C21819226   4.898   3.024   8.578 -0.1257  0.0520 -0.3401
  170SOPE  H18R19227   4.938   2.970   8.666 -0.9941 -2.7610 -1.5404
  170SOPE  H18S19228   4.810   2.969   8.538 -0.8903  0.1084  1.2110
  170SOPE  H18T19229   4.877   3.132   8.594 -1.0919 -0.0623 -0.7477
  170SOPE   C3319230   4.044   2.929   6.988  0.0579  0.1890 -0.4056
  170SOPE   H3X19231   4.129   2.857   6.990  0.4777  0.6968  0.6785
  170SOPE   H3Y19232   3.979   2.879   7.062 -0.6818  2.7220  0.7394
  170SOPE   C3419233   4.084   3.058   7.044 -0.3073 -0.2547  0.2044
  170SOPE   H4X19234   4.000   3.129   7.061  0.3366  0.7039 -0.4336
  170SOPE   H4Y19235   4.152   3.107   6.971 -3.1980  3.0987 -0.5228
  170SOPE   C3519236   4.156   3.027   7.182 -0.8044  0.3633 -0.1435
  170SOPE   H5X19237   4.226   3.111   7.203  1.5244 -1.0108 -1.9610
  170SOPE   H5Y19238   4.219   2.936   7.175  0.4854  1.2991 -1.4624
  170SOPE   C3619239   4.054   3.010   7.298 -0.6468  0.5453  0.0307
  170SOPE   H6X19240   3.978   2.940   7.256  1.4134 -1.5463 -0.4290
  170SOPE   H6Y19241   4.001   3.105   7.320 -0.1871  0.9682 -0.6370
  170SOPE   C3719242   4.105   2.952   7.430  0.0082  0.1342  0.3136
  170SOPE   H7X19243   4.170   3.029   7.476 -1.7849  1.5468  0.5851
  170SOPE   H7Y19244   4.169   2.868   7.393 -2.0726 -0.0256 -3.4159
  170SOPE   C3819245   4.006   2.911   7.541 -0.2402 -0.5973  0.0088
  170SOPE   H8X19246   3.927   2.853   7.488  0.2565  0.5776 -2.1628
  170SOPE   H8Y19247   3.962   3.004   7.584 -0.0178  0.6801 -2.3556
  170SOPE   C3919248   4.067   2.842   7.661  0.5077  0.0149  0.6097
  170SOPE   H9X19249   4.106   2.915   7.736  2.8883 -0.9578  0.4316
  170SOPE   H9Y19250   4.163   2.798   7.627 -0.2620 -0.5217 -0.9192
  170SOPE  C31019251   3.982   2.729   7.721  0.8192  0.0236  0.0050
  170SOPE  H10X19252   3.981   2.639   7.657  3.0635 -0.9727  1.2249
  170SOPE  H10Y19253   3.879   2.764   7.740  0.7657 -1.2031  2.3195
  170SOPE  C31119254   4.048   2.674   7.852 -0.8310 -0.1527 -0.0212
  170SOPE  H11X19255   4.057   2.759   7.923  0.0830  0.5721 -0.9666
  170SOPE  H11Y19256   4.154   2.644   7.834 -1.4249 -2.4682  0.0756
  170SOPE  C31219257   3.983   2.555   7.923 -0.0895 -0.1139  0.3101
  170SOPE  H12X19258   3.966   2.477   7.845 -0.4654  0.1956  0.0784
  170SOPE  H12Y19259   3.878   2.584   7.946  0.0948  0.2159  0.7516
  170SOPE  C31319260   4.061   2.510   8.051 -0.1500  0.1005 -0.2395
  170SOPE  H13X19261   4.016   2.541   8.148  1.1338  2.2735 -0.2782
  170SOPE  H13Y19262   4.167   2.541   8.040 -0.1255  1.2471  2.3375
  170SOPE  C31419263   4.064   2.356   8.053 -0.3988  0.7572  0.2902
  170SOPE  H14X19264   4.120   2.319   7.965 -2.3233 -0.6801 -0.4018
  170SOPE  H14Y19265   3.960   2.320   8.039  0.0680 -1.0650  1.2243
  170SOPE  C31519266   4.132   2.291   8.174  0.2728 -0.2318 -0.3377
  170SOPE  H15X19267   4.076   2.313   8.267  3.1308  0.0189  1.4158
  170SOPE  H15Y19268   4.231   2.335   8.198 -0.9129  1.2702  2.1751
  170SOPE  C31619269   4.169   2.138   8.167  0.0667  0.8096 -0.1713
  170SOPE  H16X19270   4.237   2.125   8.081 -1.3638 -1.0509 -1.0762
  170SOPE  H16Y19271   4.079   2.074   8.172  1.2974 -0.9374  3.3758
  170SOPE  C31719272   4.258   2.099   8.291  0.4087  0.6289  0.2449
  170SOPE  H17X19273   4.220   2.142   8.386 -0.2725 -2.3511  1.4185
  170SOPE  H17Y19274   4.353   2.154   8.277  0.2508  0.3420 -2.3680
  170SOPE  C31819275   4.292   1.956   8.305 -0.3825  0.3250  0.3483
  170SOPE  H18X19276   4.384   1.949   8.367  0.2776 -0.6589 -0.7039
  170SOPE  H18Y19277   4.333   1.911   8.212  1.2864  1.2052  0.6124
  170SOPE  H18Z19278   4.214   1.890   8.348 -1.9390  1.9450  0.1171
  171SOPE     N19279   1.110   0.662   6.182  0.0658 -0.1084 -0.7581
  171SOPE   HN119280   1.082   0.762   6.180  1.3928  0.2800 -0.5595
  171SOPE   HN219281   1.132   0.653   6.283  0.3986 -2.2482 -0.9580
  171SOPE   HN319282   1.197   0.639   6.131  0.3243 -1.4064  0.1930
  171SOPE   C1219283   1.004   0.570   6.130  0.0059  0.3764 -1.1355
  171SOPE  H12A19284   0.997   0.569   6.019 -2.7527  0.2913 -1.0430
  171SOPE  H12B19285   0.908   0.604   6.174 -0.2827 -1.1888 -0.4978
  171SOPE   C1119286   1.027   0.433   6.195  0.4100  0.5576  0.3135
  171SOPE  H11A19287   0.937   0.374   6.167 -0.9046  1.9624  1.4213
  171SOPE  H11B19288   1.028   0.437   6.306  0.3101  1.5531  0.2822
  171SOPE     P19289   1.159   0.203   6.114 -0.3039 -0.0401 -0.3536
  171SOPE   O1319290   1.304   0.168   6.104  0.0774  0.6462  0.1741
  171SOPE   O1419291   1.073   0.148   5.999  0.4358  0.1890  0.2007
  171SOPE   O1219292   1.144   0.359   6.149  0.9046 -0.0137 -0.5597
  171SOPE   O1119293   1.104   0.138   6.248 -0.4504  0.4656  0.2683
  171SOPE    C119294   1.003   0.038   6.236 -0.4461  0.4424 -0.0103
  171SOPE    HA19295   1.034  -0.051   6.177  0.1054  1.0814 -0.7084
  171SOPE    HB19296   0.907   0.079   6.198  0.2854 -0.6509 -3.3667
  171SOPE    C219297   0.965  -0.009   6.380  0.5779 -0.6040 -0.3291
  171SOPE    HS19298   0.893  -0.094   6.371  0.0479  0.0265 -2.6242
  171SOPE   O2119299   0.914   0.106   6.459 -0.2435 -0.2319 -0.5036
  171SOPE   C2119300   0.834   0.067   6.559 -0.3508 -0.0473 -0.4757
  171SOPE   O2219301   0.772  -0.040   6.565  0.1829  0.5363 -0.2899
  171SOPE   C2219302   0.822   0.175   6.663  0.3396  0.0275  0.8695
  171SOPE   H2R19303   0.768   0.259   6.614 -0.2874 -1.4029 -1.0540
  171SOPE   H2S19304   0.920   0.196   6.712  1.6253 -3.1117 -0.1009
  171SOPE    C319305   1.100  -0.070   6.445 -0.3303 -0.3927  0.3422
  171SOPE    HX19306   1.185  -0.001   6.429  0.3486 -1.3470 -0.3226
  171SOPE    HY19307   1.114  -0.155   6.374  2.1103  0.8230 -0.7526
  171SOPE   O3119308   1.080  -0.100   6.584 -0.1047  0.1563  0.4722
  171SOPE   C3119309   1.062  -0.231   6.614 -0.2481  0.0130  0.1548
  171SOPE   O3219310   1.056  -0.319   6.532  0.1765 -0.1274 -0.5099
  171SOPE   C3219311   1.018  -0.247   6.760 -0.3498  0.0531 -0.2499
  171SOPE   H2X19312   0.980  -0.352   6.765  0.6849 -0.2807  0.8156
  171SOPE   H2Y19313   0.929  -0.183   6.776 -1.3307 -1.5788  1.1663
  171SOPE   C2319314   0.730   0.117   6.775 -0.0651 -0.5999  0.4857
  171SOPE   H3R19315   0.775   0.026   6.820 -1.5254 -2.3760 -1.4515
  171SOPE   H3S19316   0.636   0.089   6.723  0.9273  0.1629 -1.8649
  171SOPE   C2419317   0.698   0.220   6.883  0.1749  0.1010  0.4229
  171SOPE   H4R19318   0.776   0.221   6.962 -0.6341 -1.1649  1.2619
  171SOPE   H4S19319   0.713   0.321   6.839  1.3705  0.6421  1.9868
  171SOPE   C2519320   0.574   0.198   6.977 -0.2577  0.2709 -0.5966
  171SOPE   H5R19321   0.563   0.287   7.041 -0.5620  1.3185 -2.0507
  171SOPE   H5S19322   0.477   0.184   6.924 -1.7190 -1.9664  2.3651
  171SOPE   C2619323   0.589   0.066   7.058 -0.1868 -0.1631 -0.5292
  171SOPE   H6R19324   0.577  -0.019   6.988  1.4593  0.1138 -1.1961
  171SOPE   H6S19325   0.690   0.081   7.102  0.0448  0.9487 -1.3742
  171SOPE   C2719326   0.478   0.030   7.165  0.5464  1.2335  0.3099
  171SOPE   H7R19327   0.460   0.112   7.238 -0.1553 -0.3630  2.0081
  171SOPE   H7S19328   0.384   0.012   7.109  0.6391 -1.6876  0.9398
  171SOPE   C2819329   0.519  -0.095   7.245 -0.3648 -0.2180  0.6934
  171SOPE   H8R19330   0.567  -0.163   7.171  0.8496  0.4829  0.8135
  171SOPE   H8S19331   0.596  -0.054   7.313  0.2346  1.6247 -1.0126
  171SOPE   C2919332   0.411  -0.159   7.320  0.5481 -0.3102  0.3332
  171SOPE   H9119333   0.308  -0.141   7.286  0.8169 -1.8106 -1.4785
  171SOPE  C21019334   0.438  -0.238   7.426  0.5855  0.5288 -0.2435
  171SOPE  H10119335   0.360  -0.304   7.465  1.2908 -0.1258  0.1003
  171SOPE  C21119336   0.574  -0.274   7.487  0.0579 -0.3003  0.3413
  171SOPE  H11R19337   0.661  -0.241   7.427  0.7555 -2.5733 -0.0056
  171SOPE  H11S19338   0.577  -0.385   7.486  0.8551 -0.2795  0.4163
  171SOPE  C21219339   0.588  -0.214   7.628 -0.7617 -0.6780 -0.7489
  171SOPE  H12R19340   0.655  -0.286   7.679  1.1368 -0.8538 -3.3096
  171SOPE  H12S19341   0.491  -0.219   7.681 -0.2521  1.5688  0.5655
  171SOPE  C21319342   0.629  -0.071   7.626 -0.4370 -0.3945  0.2618
  171SOPE  H13R19343   0.549  -0.017   7.571  0.1414 -1.7252 -2.0228
  171SOPE  H13S19344   0.727  -0.063   7.575 -0.2028 -1.1836  0.5705
  171SOPE  C21419345   0.649  -0.006   7.768 -0.3955 -0.2048 -0.2742
  171SOPE  H14R19346   0.688   0.099   7.769 -1.8149  0.3343  0.0898
  171SOPE  H14S19347   0.717  -0.071   7.827 -0.9798  0.7437  1.5182
  171SOPE  C21519348   0.528  -0.023   7.864 -0.0423 -0.4834 -0.1812
  171SOPE  H15R19349   0.494  -0.128   7.878 -0.6014 -0.1700  0.8815
  171SOPE  H15S19350   0.448   0.046   7.829  0.2416  1.7407  3.0939
  171SOPE  C21619351   0.538   0.046   8.006  0.0111 -0.4645  0.0646
  171SOPE  H16R19352   0.438   0.067   8.048  0.1895  1.0652 -0.2201
  171SOPE  H16S19353   0.609   0.131   7.997 -0.5150  0.1968  1.7444
  171SOPE  C21719354   0.590  -0.049   8.115 -0.1946  0.1116 -0.2617
  171SOPE  H17R19355   0.674  -0.108   8.072 -0.9865 -0.4120 -1.1456
  171SOPE  H17S19356   0.514  -0.122   8.150 -1.5833  1.6915  0.1065
  171SOPE  C21819357   0.629   0.029   8.239 -0.0204 -0.4108  0.5730
  171SOPE  H18R19358   0.656  -0.039   8.323 -0.2212  0.6336  1.5051
  171SOPE  H18S19359   0.548   0.093   8.280  0.8635  1.4586 -0.4723
  171SOPE  H18T19360   0.718   0.088   8.211 -1.9106  1.0682 -2.9035
  171SOPE   C3319361   1.134  -0.234   6.857 -0.6453  0.3133  0.3888
  171SOPE   H3X19362   1.211  -0.167   6.813 -0.8302 -0.9882 -2.1205
  171SOPE   H3Y19363   1.187  -0.331   6.870  0.4672  1.0374  1.4717
  171SOPE   C3419364   1.101  -0.188   6.998  0.3173  0.3130  0.2368
  171SOPE   H4X19365   1.186  -0.205   7.067  0.3291 -0.1840  0.0991
  171SOPE   H4Y19366   1.014  -0.243   7.041 -0.5345  0.2037 -1.5327
  171SOPE   C3519367   1.077  -0.040   6.997  0.7907 -0.1048 -0.1268
  171SOPE   H5X19368   1.019  -0.020   6.904 -0.8415 -0.8578  0.6922
  171SOPE   H5Y19369   1.167   0.024   6.983 -1.4179  2.9423 -1.4823
  171SOPE   C3619370   1.008   0.024   7.119 -0.6141 -0.2870 -0.7206
  171SOPE   H6X19371   0.901  -0.006   7.118 -0.7692  0.2369 -0.1399
  171SOPE   H6Y19372   1.015   0.134   7.102 -1.2867 -0.3834 -1.7610
  171SOPE   C3719373   1.075  -0.015   7.250  0.8503  0.5184 -0.7172
  171SOPE   H7X19374   1.186  -0.008   7.250  0.9416  0.8223  2.4829
  171SOPE   H7Y19375   1.048  -0.122   7.265 -1.8488  1.1332 -0.7148
  171SOPE   C3819376   1.011   0.058   7.369  0.6725  0.2126 -0.3802
  171SOPE   H8X19377   0.909   0.020   7.388  0.0916  1.2569 -1.3237
  171SOPE   H8Y19378   1.004   0.163   7.334 -0.2647  0.2937  0.0276
  171SOPE   C3919379   1.096   0.038   7.501  0.1165  0.1162 -0.4871
  171SOPE   H9X19380   1.186   0.101   7.483 -0.8102  1.2268 -1.3413
  171SOPE   H9Y19381   1.113  -0.066   7.536 -3.2205  0.6044  3.2361
  171SOPE  C31019382   1.030   0.106   7.629  0.5227 -0.0328  0.0131
  171SOPE  H10X19383   1.088   0.086   7.722  0.5751  0.2057  0.0322
  171SOPE  H10Y19384   0.925   0.072   7.637 -0.0217  1.3028 -1.0659
  171SOPE  C31119385   1.031   0.257   7.623 -0.5909  0.3447 -0.4539
  171SOPE  H11X19386   1.017   0.296   7.520 -4.0386 -1.1904 -0.6793
  171SOPE  H11Y19387   1.137   0.283   7.643 -0.5905 -0.7903  1.2249
  171SOPE  C31219388   0.945   0.333   7.726 -0.0111  0.4779 -0.2439
  171SOPE  H12X19389   0.837   0.314   7.707 -1.0794  1.8044  3.5742
  171SOPE  H12Y19390   0.964   0.442   7.715  2.7904 -0.0864 -1.9495
  171SOPE  C31319391   0.965   0.308   7.878 -0.0287  0.3086  0.2546
  171SOPE  H13X19392   1.065   0.348   7.904  0.6715 -0.3062 -1.3525
  171SOPE  H13Y19393   0.968   0.198   7.893  0.8690  0.2866  0.0051
  171SOPE  C31419394   0.856   0.370   7.959  0.4489 -0.5471  0.1135
  171SOPE  H14X19395   0.751   0.341   7.934  0.0530  0.3086  0.7081
  171SOPE  H14Y19396   0.854   0.481   7.947  0.1803 -0.4481  1.0399
  171SOPE  C31519397   0.883   0.344   8.110  0.3411  0.4715 -0.4804
  171SOPE  H15X19398   0.971   0.399   8.152  0.7457 -2.5326  3.1225
  171SOPE  H15Y19399   0.906   0.236   8.121  0.9373  0.6131 -0.2940
  171SOPE  C31619400   0.761   0.367   8.184 -0.2901 -0.1490 -0.0474
  171SOPE  H16X19401   0.771   0.338   8.291  0.6004  2.1257  0.5603
  171SOPE  H16Y19402   0.683   0.296   8.149  1.4288 -3.6936  2.6209
  171SOPE  C31719403   0.708   0.513   8.177 -0.6806 -0.0396  0.4977
  171SOPE  H17X19404   0.657   0.529   8.080  0.6028  1.7911  0.0950
  171SOPE  H17Y19405   0.801   0.572   8.179 -0.6719 -0.0623  1.2744
  171SOPE  C31819406   0.606   0.556   8.281  0.0817  0.0873 -0.9103
  171SOPE  H18X19407   0.527   0.479   8.299  0.4420  0.0998  0.9764
  171SOPE  H18Y19408   0.555   0.653   8.264  0.0897  0.8673  2.6695
  171SOPE  H18Z19409   0.648   0.561   8.384 -2.3556 -0.3105  0.1838
  172SOPE     N19410   1.034   4.013   6.373 -0.4809 -0.1204  0.1478
  172SOPE   HN119411   0.982   4.103   6.380 -2.0022 -0.9422 -0.0942
  172SOPE   HN219412   1.129   4.025   6.412  0.9391 -1.1801 -2.7575
  172SOPE   HN319413   1.056   3.992   6.274 -2.8413  0.5014 -0.5791
  172SOPE   C1219414   0.960   3.909   6.452  0.1856  0.0154 -0.1566
  172SOPE  H12A19415   0.952   3.819   6.386  1.8136 -0.2751  0.0212
  172SOPE  H12B19416   0.856   3.939   6.477  0.4102 -0.4011  1.3717
  172SOPE   C1119417   1.035   3.863   6.577 -0.9092  0.5811  0.7642
  172SOPE  H11A19418   0.979   3.785   6.632  0.8994 -0.4761  1.1641
  172SOPE  H11B19419   1.053   3.946   6.648  1.1117 -0.8625  2.0311
  172SOPE     P19420   1.303   3.862   6.555 -0.0571  0.0538 -0.2675
  172SOPE   O1319421   1.282   4.003   6.519  0.1768 -0.3855 -0.1480
  172SOPE   O1419422   1.401   3.782   6.480  0.1820  0.3840  0.0999
  172SOPE   O1219423   1.160   3.797   6.545  0.1631  0.1742 -0.3428
  172SOPE   O1119424   1.336   3.851   6.711 -0.4291 -0.5817  0.2747
  172SOPE    C119425   1.337   3.725   6.772 -0.4252 -0.0965  0.0629
  172SOPE    HA19426   1.423   3.674   6.723  0.0706  2.4395 -1.8960
  172SOPE    HB19427   1.243   3.670   6.748 -0.5491  0.3560 -0.5025
  172SOPE    C219428   1.354   3.744   6.923 -0.2709 -0.2256  0.1369
  172SOPE    HS19429   1.452   3.794   6.936  2.0331 -4.0206 -1.1362
  172SOPE   O2119430   1.344   3.613   6.985  0.2734 -0.0703 -0.3659
  172SOPE   C2119431   1.438   3.526   6.964 -0.1520  0.5988 -0.5963
  172SOPE   O2219432   1.539   3.547   6.902  0.2400  0.1805  0.3783
  172SOPE   C2219433   1.407   3.389   7.023  0.7577 -0.4434  0.0772
  172SOPE   H2R19434   1.437   3.314   6.947 -0.9396 -1.0017 -0.0797
  172SOPE   H2S19435   1.308   3.378   7.073  0.9266  1.2373  0.8530
  172SOPE    C319436   1.255   3.854   6.984  0.2303  0.0366 -0.3455
  172SOPE    HX19437   1.156   3.827   6.942  0.4396  0.4476 -1.1113
  172SOPE    HY19438   1.296   3.952   6.952  0.9017 -0.0479  0.2264
  172SOPE   O3119439   1.235   3.839   7.130 -0.0274  0.4542 -0.4425
  172SOPE   C3119440   1.341   3.884   7.203  0.5186  0.6371 -0.1570
  172SOPE   O3219441   1.442   3.920   7.152  0.2969 -0.0529 -0.0227
  172SOPE   C3219442   1.309   3.899   7.349 -0.1358  0.4273 -0.3919
  172SOPE   H2X19443   1.217   3.961   7.353  0.6809  1.8853 -2.2506
  172SOPE   H2Y19444   1.391   3.953   7.401  2.0599 -2.9004 -0.1078
  172SOPE   C2319445   1.498   3.362   7.142 -0.4776 -0.3446 -0.3078
  172SOPE   H3R19446   1.608   3.364   7.134 -0.3660 -2.2797  0.2568
  172SOPE   H3S19447   1.479   3.254   7.163 -1.3185 -0.2425 -0.4829
  172SOPE   C2419448   1.458   3.441   7.270 -0.2015 -0.4052  0.6063
  172SOPE   H4R19449   1.487   3.547   7.263 -1.2203 -0.1760 -0.4616
  172SOPE   H4S19450   1.347   3.442   7.278 -0.2017 -1.0051  0.7694
  172SOPE   C2519451   1.515   3.380   7.400 -0.4299  0.0162 -0.8238
  172SOPE   H5R19452   1.471   3.278   7.413  1.4558 -0.5286  2.2547
  172SOPE   H5S19453   1.622   3.355   7.390 -1.1099 -2.3778 -4.0083
  172SOPE   C2619454   1.498   3.464   7.524  0.2558 -0.6536  0.1204
  172SOPE   H6R19455   1.555   3.559   7.516  0.8751 -0.7758  2.3335
  172SOPE   H6S19456   1.395   3.504   7.510  0.1902 -1.2091 -1.0213
  172SOPE   C2719457   1.505   3.386   7.654 -1.2948 -0.4632 -0.5881
  172SOPE   H7R19458   1.442   3.299   7.623  0.0225 -1.9834  0.7711
  172SOPE   H7S19459   1.609   3.348   7.661 -0.3512  2.0266 -0.2521
  172SOPE   C2819460   1.453   3.466   7.774  0.1147  0.6667 -0.2386
  172SOPE   H8R19461   1.520   3.553   7.793 -0.0361  0.8374 -0.4806
  172SOPE   H8S19462   1.353   3.510   7.754 -0.0304  0.3564 -0.1917
  172SOPE   C2919463   1.463   3.369   7.890 -0.1089  0.0550 -0.4913
  172SOPE   H9119464   1.484   3.265   7.859  4.0649 -0.0632  1.9003
  172SOPE  C21019465   1.441   3.403   8.017 -0.6298 -0.0605 -0.3428
  172SOPE  H10119466   1.453   3.337   8.105 -0.0405  1.9420  1.1407
  172SOPE  C21119467   1.404   3.536   8.065 -0.4867 -0.1397  0.4512
  172SOPE  H11R19468   1.309   3.572   8.021  0.5430  1.1710 -0.7890
  172SOPE  H11S19469   1.477   3.610   8.024  2.0263 -2.8362 -0.3569
  172SOPE  C21219470   1.396   3.553   8.216  0.2122 -0.1767 -0.2967
  172SOPE  H12R19471   1.352   3.655   8.212 -2.0939 -1.1399 -1.2907
  172SOPE  H12S19472   1.499   3.546   8.257  0.7572 -2.1769 -1.8928
  172SOPE  C21319473   1.293   3.474   8.279  0.2280  0.1573 -0.0066
  172SOPE  H13R19474   1.306   3.364   8.278  1.1626  0.2536 -0.7154
  172SOPE  H13S19475   1.194   3.496   8.234 -0.6608  1.1254  2.2982
  172SOPE  C21419476   1.291   3.517   8.430 -0.0289  0.5561 -1.1510
  172SOPE  H14R19477   1.206   3.473   8.485  0.3924  1.1616  0.0215
  172SOPE  H14S19478   1.291   3.627   8.447  2.1171  0.2254  1.7320
  172SOPE  C21519479   1.414   3.467   8.507 -0.6979 -0.2416  0.4014
  172SOPE  H15R19480   1.490   3.542   8.477  1.9356 -2.7099  0.4111
  172SOPE  H15S19481   1.438   3.362   8.477  0.8063  0.1871  0.0031
  172SOPE  C21619482   1.396   3.473   8.663  0.1127 -0.3828 -0.4234
  172SOPE  H16R19483   1.339   3.382   8.689  2.2487 -2.2302 -1.8132
  172SOPE  H16S19484   1.341   3.565   8.692 -0.2842 -1.0101  0.8467
  172SOPE  C21719485   1.527   3.459   8.746 -0.0111  1.0353  0.4307
  172SOPE  H17R19486   1.510   3.442   8.854  0.1119  0.5762  0.3805
  172SOPE  H17S19487   1.566   3.562   8.730 -1.9312  2.1749  2.5840
  172SOPE  C21819488   1.614   3.353   8.689  0.0884 -0.2631 -0.0655
  172SOPE  H18R19489   1.577   3.249   8.701  2.2992 -0.9638  1.3356
  172SOPE  H18S19490   1.711   3.344   8.743 -0.0497  0.0619  0.2364
  172SOPE  H18T19491   1.637   3.367   8.581 -1.2172  1.3560 -0.1658
  172SOPE   C3319492   1.297   3.765   7.424 -0.3598 -0.2037  0.3924
  172SOPE   H3X19493   1.388   3.702   7.408 -0.8377 -1.8247  3.3697
  172SOPE   H3Y19494   1.225   3.696   7.374 -0.3331 -2.2960  3.0280
  172SOPE   C3419495   1.265   3.775   7.577  0.9174  0.1044 -0.1046
  172SOPE   H4X19496   1.265   3.669   7.611 -2.2148  0.3500  1.0034
  172SOPE   H4Y19497   1.158   3.805   7.584  0.3431 -1.8339  0.1025
  172SOPE   C3519498   1.370   3.843   7.666 -0.4751 -0.7252 -0.2408
  172SOPE   H5X19499   1.390   3.947   7.633  0.6038 -1.1578 -1.0282
  172SOPE   H5Y19500   1.458   3.775   7.665 -1.9738 -2.7866  0.2370
  172SOPE   C3619501   1.314   3.855   7.809  0.0789  0.0664  0.3012
  172SOPE   H6X19502   1.265   3.759   7.835 -0.1647 -0.0724 -0.6232
  172SOPE   H6Y19503   1.232   3.930   7.806 -1.3965 -1.4726  1.1663
  172SOPE   C3719504   1.413   3.899   7.918  0.2897  0.6145  0.1427
  172SOPE   H7X19505   1.473   3.980   7.872  0.1347  0.4179 -0.4158
  172SOPE   H7Y19506   1.488   3.821   7.943  0.7592  1.5213  1.6863
  172SOPE   C3819507   1.332   3.942   8.043 -0.0305 -0.5955 -0.4163
  172SOPE   H8X19508   1.251   3.868   8.061  2.1304 -2.7579  0.8895
  172SOPE   H8Y19509   1.290   4.044   8.026  1.1259  0.0246  0.3163
  172SOPE   C3919510   1.424   3.941   8.169  0.1203  0.0446 -0.0581
  172SOPE   H9X19511   1.497   4.024   8.165  2.7518 -2.1266  0.2406
  172SOPE   H9Y19512   1.495   3.856   8.180  0.8927  0.6215 -0.5236
  172SOPE  C31019513   1.330   3.947   8.293  0.3069  0.0318  0.1381
  172SOPE  H10X19514   1.264   3.857   8.290  1.1024 -0.5841  0.6244
  172SOPE  H10Y19515   1.255   4.026   8.271 -0.6223 -1.2247 -1.4173
  172SOPE  C31119516   1.387   3.960   8.431  0.5088  0.7566  0.3259
  172SOPE  H11X19517   1.464   4.040   8.437  2.3182 -0.7853 -1.3119
  172SOPE  H11Y19518   1.444   3.867   8.448  0.7291  0.7766 -0.2815
  172SOPE  C31219519   1.264   3.986   8.528  0.0401 -0.0878  0.8537
  172SOPE  H12X19520   1.183   3.913   8.509 -1.1537  1.1252  1.1072
  172SOPE  H12Y19521   1.227   4.084   8.491  3.1379  0.6621 -0.5648
  172SOPE  C31319522   1.301   3.991   8.677 -0.5314 -0.0458  0.5733
  172SOPE  H13X19523   1.233   4.054   8.739 -0.8316  1.2981 -1.0399
  172SOPE  H13Y19524   1.407   4.023   8.679 -0.5045 -0.1171  0.2510
  172SOPE  C31419525   1.310   3.852   8.743  0.0382 -0.4407 -0.4639
  172SOPE  H14X19526   1.352   3.865   8.845  0.9202 -0.7843 -0.7705
  172SOPE  H14Y19527   1.376   3.787   8.680  1.5972  1.8078 -1.2741
  172SOPE  C31519528   1.172   3.785   8.752 -0.4642 -0.1552 -0.8672
  172SOPE  H15X19529   1.166   3.721   8.661  0.3418 -1.5025 -0.0121
  172SOPE  H15Y19530   1.092   3.861   8.764 -0.8859 -0.2102 -2.9772
  172SOPE  C31619531   1.163   3.693   8.873 -0.0373  0.3435 -0.0210
  172SOPE  H16X19532   1.189   3.738   8.971 -0.3534 -1.2379  0.8247
  172SOPE  H16Y19533   1.228   3.604   8.862  0.9808  1.2625 -1.9275
  172SOPE  C31719534   1.019   3.628   8.884 -0.7257 -0.2174 -0.3717
  172SOPE  H17X19535   0.942   3.708   8.884  0.0836  0.5787 -0.8426
  172SOPE  H17Y19536   1.005   3.560   8.972 -0.4678 -0.7206 -0.7121
  172SOPE  C31819537   0.995   3.536   8.768  0.4851 -0.2338 -0.0665
  172SOPE  H18X19538   1.024   3.577   8.670  2.1375  0.7948  0.8021
  172SOPE  H18Y19539   0.893   3.495   8.756  0.2265  0.7441 -1.4203
  172SOPE  H18Z19540   1.061   3.447   8.776 -1.3089 -1.5666  0.6759
  173SAPI   C1219541   2.387   6.095  10.668 -0.6382 -0.2410 -0.1244
  173SAPI    H219542   2.400   6.166  10.584 -0.2573 -0.5327 -0.3157
  173SAPI    O219543   2.321   6.162  10.772 -0.3044  0.4747  0.2591
  173SAPI   HO219544   2.380   6.225  10.814 -0.3012  0.1165  0.7969
  173SAPI   C1319545   2.309   5.980  10.617  0.3140  0.4406 -0.0609
  173SAPI    H319546   2.372   5.933  10.538 -0.0550  0.9227 -0.6508
  173SAPI    O319547   2.192   6.030  10.550  0.3543 -0.0106  0.1383
  173SAPI   HO319548   2.165   5.978  10.474 -2.4871 -1.9773  2.2817
  173SAPI   C1419549   2.285   5.873  10.731  0.5557 -0.1004  0.5210
  173SAPI    H419550   2.226   5.925  10.810 -1.0362 -0.8106 -0.1661
  173SAPI    O419551   2.203   5.767  10.682 -0.0386  0.2986  0.7900
  173SAPI   HO419552   2.110   5.791  10.677 -0.0824  0.0365  0.1906
  173SAPI   C1519553   2.422   5.837  10.789 -0.8382 -0.6665  0.4003
  173SAPI    H519554   2.479   5.786  10.709 -0.8991 -0.1702  0.0346
  173SAPI    O519555   2.402   5.744  10.895  0.4228 -0.4306  0.3811
  173SAPI   HO519556   2.474   5.682  10.912  2.4161  1.6576  0.1020
  173SAPI   C1619557   2.509   5.950  10.830 -0.2808 -0.2124 -0.2103
  173SAPI    H619558   2.456   5.995  10.917 -0.0858 -0.1342 -0.1331
  173SAPI    O619559   2.626   5.898  10.890 -0.6586  0.0416 -0.1450
  173SAPI   HO619560   2.677   5.870  10.814 -0.1259  2.9805 -0.9970
  173SAPI   C1119561   2.527   6.049  10.721  1.3075  0.3588 -0.5655
  173SAPI    H119562   2.568   5.986  10.639 -0.9176 -2.0577  0.0209
  173SAPI     P19563   2.735   6.216  10.682  0.4892 -0.0315  0.1234
  173SAPI   O1319564   2.824   6.112  10.630 -0.2503  0.3549 -0.0211
  173SAPI   O1419565   2.790   6.317  10.769 -0.5579  0.2060  0.0559
  173SAPI   O1219566   2.610   6.153  10.765  0.7234  0.5235  0.0593
  173SAPI   O1119567   2.675   6.299  10.564 -0.1545  0.3301  0.1231
  173SAPI    C119568   2.576   6.397  10.586  0.3383  0.0726 -0.3552
  173SAPI    HA19569   2.473   6.360  10.568 -0.2630  1.2362  0.5304
  173SAPI    HB19570   2.566   6.423  10.694 -1.3878 -1.5719 -0.0699
  173SAPI    C219571   2.595   6.530  10.502 -0.1196 -0.8784  0.1863
  173SAPI    HS19572   2.500   6.586  10.513 -0.2881 -1.3541  1.2896
  173SAPI   O2119573   2.634   6.490  10.368 -0.6251 -0.1530  0.1386
  173SAPI   C2119574   2.517   6.474  10.297 -0.0171 -0.4401 -0.3475
  173SAPI   O2219575   2.405   6.487  10.343  0.5382 -0.3535 -0.3974
  173SAPI   C2219576   2.548   6.436  10.148  0.3838  0.1495 -0.7367
  173SAPI   H2R19577   2.651   6.396  10.151  0.4336  0.2973  1.2648
  173SAPI   H2S19578   2.471   6.365  10.111 -2.2752  1.2519  2.1637
  173SAPI    C319579   2.702   6.616  10.571 -0.0587 -0.0338  0.4234
  173SAPI    HX19580   2.773   6.543  10.615 -2.7603 -3.2358 -0.1344
  173SAPI    HY19581   2.660   6.668  10.661 -0.6795 -0.2325  0.2524
  173SAPI   O3119582   2.775   6.705  10.484 -0.1683 -0.1537 -0.3378
  173SAPI   C3119583   2.710   6.819  10.470 -0.8413  0.1477  0.2600
  173SAPI   O3219584   2.602   6.846  10.517 -0.1788  0.7619 -0.2972
  173SAPI   C3219585   2.789   6.904  10.374  0.7102  0.2923  0.0857
  173SAPI   H2X19586   2.895   6.868  10.372  0.5741 -0.1969  1.1098
  173SAPI   H2Y19587   2.787   7.005  10.419  4.7809 -0.3121  2.0602
  173SAPI   C2319588   2.539   6.559  10.056  0.2428  0.3278  0.2254
  173SAPI   H3R19589   2.596   6.543   9.962  1.2283  3.9053  0.0764
  173SAPI   H3S19590   2.572   6.656  10.099 -0.0417  0.8003 -0.6044
  173SAPI   C2419591   2.392   6.590  10.018 -0.1577  0.4899  0.2746
  173SAPI   H4R19592   2.384   6.685   9.962  3.7039  0.5393 -0.4703
  173SAPI   H4S19593   2.328   6.618  10.105 -1.9042 -1.1575 -0.3923
  173SAPI   C2519594   2.335   6.479   9.935 -0.6035 -0.3734  1.0561
  173SAPI   H5R19595   2.290   6.393   9.988  0.0183 -1.7601 -0.5825
  173SAPI   C2619596   2.319   6.477   9.803  0.2404  0.8211  0.2813
  173SAPI   H6R19597   2.285   6.384   9.755  1.2862  1.9803 -3.0296
  173SAPI   C2719598   2.354   6.580   9.702 -0.7585 -0.4910  0.7098
  173SAPI   H7R19599   2.381   6.523   9.611  1.3100  0.2060  0.8300
  173SAPI   H7S19600   2.449   6.638   9.715 -1.2313  0.3530  0.4421
  173SAPI   C2819601   2.241   6.678   9.681 -0.1312  0.1975  0.0644
  173SAPI   H8R19602   2.225   6.760   9.753  1.2894  0.0648  0.5770
  173SAPI   C2919603   2.162   6.680   9.573  0.5955 -0.2737  0.1229
  173SAPI   H9R19604   2.069   6.739   9.578  0.6241 -0.3052  1.3776
  173SAPI  C21019605   2.157   6.576   9.466 -0.6654  0.3837 -0.1065
  173SAPI  H10R19606   2.057   6.528   9.473  0.0885 -1.0436  2.0114
  173SAPI  H10S19607   2.224   6.490   9.484 -1.6765 -0.7531 -1.5204
  173SAPI  C21119608   2.182   6.641   9.330 -0.1746 -0.2956 -0.0881
  173SAPI  H11R19609   2.126   6.735   9.321  0.1505  0.0704  1.3417
  173SAPI  C21219610   2.257   6.591   9.235  0.4708 -0.6694 -0.0670
  173SAPI  H12R19611   2.262   6.639   9.136 -2.4906  0.6600  0.3251
  173SAPI  C21319612   2.338   6.467   9.239 -0.9180 -0.1189  0.3583
  173SAPI  H13R19613   2.340   6.427   9.136 -0.0531 -0.6169  0.5602
  173SAPI  H13S19614   2.313   6.387   9.312  2.9108  0.1601  2.2272
  173SAPI  C21419615   2.482   6.499   9.280  0.6293  0.2946  0.3440
  173SAPI  H14R19616   2.513   6.605   9.279  0.8565  0.2204 -0.7356
  173SAPI  C21519617   2.570   6.408   9.330 -0.1958 -0.5984  0.0738
  173SAPI  H15R19618   2.668   6.443   9.365 -0.9471  2.0476 -0.2635
  173SAPI  C21619619   2.540   6.254   9.336  0.0001 -0.5543 -0.1400
  173SAPI  H16R19620   2.431   6.235   9.341 -0.2321  0.6788  4.7720
  173SAPI  H16S19621   2.583   6.206   9.427  0.0664 -0.7757 -0.2886
  173SAPI  C21719622   2.613   6.194   9.213  1.0224 -0.4318 -0.4314
  173SAPI  H17R19623   2.564   6.254   9.134 -1.3930  2.1802  2.7804
  173SAPI  H17S19624   2.585   6.087   9.217  3.3817 -1.0747  0.6882
  173SAPI  C21819625   2.761   6.204   9.220 -0.2672 -0.0767  0.3493
  173SAPI  H18R19626   2.789   6.311   9.234  3.2736 -0.8544  0.2321
  173SAPI  H18S19627   2.802   6.179   9.120 -2.7355  0.6054 -0.9125
  173SAPI  C21919628   2.818   6.111   9.329  0.2539  0.1063  0.2095
  173SAPI  H19R19629   2.772   6.010   9.317 -0.6347  0.5635 -0.3400
  173SAPI  H19S19630   2.782   6.137   9.430 -0.7826  0.5264 -0.2474
  173SAPI  C22019631   2.972   6.092   9.334 -0.1130 -0.3065 -0.6538
  173SAPI  H20R19632   3.020   6.064   9.238 -0.0134 -0.4638 -0.5587
  173SAPI  H20S19633   3.005   6.031   9.420  0.7080 -0.2997 -0.9560
  173SAPI  H20T19634   3.011   6.195   9.347  0.0925 -0.2534 -1.5710
  173SAPI   C3319635   2.733   6.892  10.230 -0.3232  0.3781  0.1689
  173SAPI   H3X19636   2.626   6.917  10.240 -0.2622  0.3408  1.0238
  173SAPI   H3Y19637   2.727   6.790  10.186  0.4311 -0.4195  1.8245
  173SAPI   C3419638   2.784   6.984  10.119  0.0332  0.6763 -0.3577
  173SAPI   H4X19639   2.880   6.942  10.081  0.2800  0.2006  0.7458
  173SAPI   H4Y19640   2.804   7.082  10.166  3.0655  0.2365 -0.4986
  173SAPI   C3519641   2.690   7.014  10.005  0.5021 -0.0487  0.0444
  173SAPI   H5X19642   2.724   7.104   9.949  1.9012 -0.9095 -0.5407
  173SAPI   H5Y19643   2.593   7.046  10.048  2.2536  2.3149  2.5798
  173SAPI   C3619644   2.683   6.887   9.909  0.1225  0.4090 -0.6613
  173SAPI   H6X19645   2.677   6.794   9.969  2.0785  0.8705  0.3344
  173SAPI   H6Y19646   2.778   6.894   9.852 -0.3171  2.9605 -1.1943
  173SAPI   C3719647   2.563   6.889   9.816 -0.0630 -0.1455 -0.3332
  173SAPI   H7X19648   2.468   6.896   9.873  0.7663  3.2263  0.8571
  173SAPI   H7Y19649   2.554   6.795   9.757  0.1392  0.0316 -0.6464
  173SAPI   C3819650   2.570   7.011   9.717 -0.6493  0.2337 -0.5572
  173SAPI   H8X19651   2.676   7.027   9.686 -0.2749  0.2893  0.7176
  173SAPI   H8Y19652   2.536   7.100   9.774  0.7161  0.1043  0.5254
  173SAPI   C3919653   2.489   6.994   9.590  0.1338 -0.1695 -0.3979
  173SAPI   H9X19654   2.466   7.091   9.541 -0.8624 -0.3621 -0.3436
  173SAPI   H9Y19655   2.391   6.952   9.621  0.9839 -1.3033  0.8850
  173SAPI  C31019656   2.568   6.913   9.481 -0.0379  0.0426 -0.8355
  173SAPI  H10X19657   2.574   6.808   9.516 -0.6374 -0.1314 -1.2518
  173SAPI  H10Y19658   2.674   6.946   9.472  0.1863  0.6772  2.6416
  173SAPI  C31119659   2.506   6.902   9.343 -0.5045 -0.1905  0.3200
  173SAPI  H11X19660   2.429   6.823   9.335 -1.2328  0.4896  0.4212
  173SAPI  H11Y19661   2.588   6.858   9.282  1.1151  1.6146  1.0855
  173SAPI  C31219662   2.455   7.033   9.289 -0.0296  0.4692  0.5592
  173SAPI  H12X19663   2.518   7.120   9.320 -0.4906  1.0524 -0.0990
  173SAPI  H12Y19664   2.357   7.040   9.341  0.3917 -1.0458  1.6366
  173SAPI  C31319665   2.442   7.022   9.139  0.4960 -0.1750  0.3499
  173SAPI  H13X19666   2.524   6.972   9.083  0.1240  1.2420 -1.5637
  173SAPI  H13Y19667   2.429   7.123   9.093 -1.1196 -0.1278  0.8557
  173SAPI  C31419668   2.319   6.940   9.097 -0.2050  0.1836  0.0371
  173SAPI  H14X19669   2.230   6.992   9.139 -0.4296  1.2144 -1.6151
  173SAPI  H14Y19670   2.334   6.839   9.140  1.2499  1.5989  3.2015
  173SAPI  C31519671   2.286   6.929   8.943 -0.2116 -0.1571  0.6574
  173SAPI  H15X19672   2.190   6.876   8.925 -0.3221 -0.1485  1.1953
  173SAPI  H15Y19673   2.368   6.868   8.899 -1.3576 -0.5528 -1.0198
  173SAPI  C31619674   2.289   7.071   8.873  0.7715  0.9933  0.5361
  173SAPI  H16X19675   2.391   7.110   8.854  0.5083  0.4956 -2.2849
  173SAPI  H16Y19676   2.215   7.142   8.916 -1.0517  0.9781 -2.3113
  173SAPI  C31719677   2.232   7.061   8.723 -0.3213 -0.0947 -0.4730
  173SAPI  H17X19678   2.132   7.013   8.716 -0.1016 -0.3367 -2.1410
  173SAPI  H17Y19679   2.306   6.991   8.679 -1.1286 -0.9156 -0.5524
  173SAPI  C31819680   2.230   7.196   8.653 -0.4270  0.5180  0.6224
  173SAPI  H18X19681   2.300   7.274   8.689 -0.1058  1.5520 -1.9876
  173SAPI  H18Y19682   2.130   7.244   8.651 -0.6862 -0.0031 -1.2448
  173SAPI  H18Z19683   2.258   7.178   8.546  0.3732 -0.4205  0.9685
  174SAPI   C1219684   5.597   3.069  10.862  0.2857  0.2077  0.2514
  174SAPI    H219685   5.499   3.066  10.810  0.0900 -2.2593  0.6161
  174SAPI    O219686   5.706   3.047  10.774  0.5206 -0.1446  0.0456
  174SAPI   HO219687   5.727   2.956  10.754  0.1767 -0.1539 -0.2918
  174SAPI   C1319688   5.599   3.203  10.937  0.2164  0.1714  0.9020
  174SAPI    H319689   5.502   3.213  10.990  0.0121 -1.8516  0.9893
  174SAPI    O319690   5.608   3.307  10.839  0.6159  0.4261 -0.7720
  174SAPI   HO319691   5.675   3.276  10.779 -0.5858 -0.8529 -1.5167
  174SAPI   C1419692   5.706   3.206  11.041  0.1029 -0.3799 -0.2667
  174SAPI    H419693   5.801   3.186  10.987 -0.1404 -0.7757 -0.5520
  174SAPI    O419694   5.724   3.327  11.116 -0.1762  0.4974 -0.6486
  174SAPI   HO419695   5.751   3.400  11.060  1.0835 -0.2789 -1.0975
  174SAPI   C1519696   5.692   3.087  11.134 -0.3774 -0.4672  0.2903
  174SAPI    H519697   5.590   3.092  11.179  0.1074 -1.4214  1.5725
  174SAPI    O519698   5.786   3.087  11.246  0.1134 -0.1570 -0.8169
  174SAPI   HO519699   5.873   3.099  11.208  0.3637 -0.7249 -0.4228
  174SAPI   C1619700   5.692   2.952  11.062  0.2838 -0.2523 -0.2661
  174SAPI    H619701   5.791   2.942  11.013  0.2888  2.6592 -1.0569
  174SAPI    O619702   5.682   2.844  11.154  0.1678 -0.2342 -0.5232
  174SAPI   HO619703   5.775   2.837  11.177  0.6175  2.6915 -1.0488
  174SAPI   C1119704   5.587   2.953  10.958  1.2495  0.2353 -0.2814
  174SAPI    H119705   5.489   2.963  11.009  0.5544 -0.8747 -1.3412
  174SAPI     P19706   5.466   2.760  10.800 -0.2873  0.0442 -0.0340
  174SAPI   O1319707   5.353   2.734  10.893 -0.0340 -0.0901 -0.3057
  174SAPI   O1419708   5.508   2.647  10.715 -0.7988  0.0874  0.3731
  174SAPI   O1219709   5.590   2.826  10.883 -0.1277  0.2187  0.4427
  174SAPI   O1119710   5.430   2.868  10.703 -0.0565  0.4678  0.3381
  174SAPI    C119711   5.297   2.913  10.683 -0.1955 -0.1451  0.2818
  174SAPI    HA19712   5.234   2.827  10.650  1.0290 -1.2144  0.6645
  174SAPI    HB19713   5.251   2.951  10.777 -2.2548  2.3826 -1.6087
  174SAPI    C219714   5.279   3.017  10.570 -0.0785  0.3626  0.1342
  174SAPI    HS19715   5.170   3.027  10.554 -0.3084 -2.8574 -1.1744
  174SAPI   O2119716   5.340   2.959  10.449  0.6167  0.0028  0.1717
  174SAPI   C2119717   5.272   2.871  10.388  0.7241  0.1063  0.9855
  174SAPI   O2219718   5.159   2.825  10.411 -0.1220 -0.0542  0.2003
  174SAPI   C2219719   5.351   2.818  10.263 -0.0105 -0.2507 -0.8337
  174SAPI   H2R19720   5.333   2.895  10.185 -0.7897 -0.1057 -0.5213
  174SAPI   H2S19721   5.460   2.830  10.282  0.4907  0.4281 -3.6702
  174SAPI    C319722   5.342   3.156  10.600  0.7195  0.6646 -0.1714
  174SAPI    HX19723   5.448   3.131  10.622  0.6457  0.8870  0.4448
  174SAPI    HY19724   5.299   3.189  10.697 -0.1632 -0.0446 -0.3094
  174SAPI   O3119725   5.314   3.258  10.504  0.3514 -0.0146 -0.2812
  174SAPI   C3119726   5.419   3.322  10.463 -1.0006  0.2271 -0.3335
  174SAPI   O3219727   5.527   3.324  10.522 -0.2364 -0.9490  0.4916
  174SAPI   C3219728   5.384   3.418  10.344  0.6572 -0.0837 -0.1101
  174SAPI   H2X19729   5.457   3.497  10.318 -1.6631  1.9231 -0.9146
  174SAPI   H2Y19730   5.285   3.464  10.365  0.5469 -0.0863 -0.6138
  174SAPI   C2319731   5.328   2.677  10.216  0.3554  0.1127 -0.2100
  174SAPI   H3R19732   5.219   2.656  10.220  1.1202 -4.8478  1.4301
  174SAPI   H3S19733   5.385   2.595  10.265 -0.5176 -0.7392 -0.5882
  174SAPI   C2419734   5.359   2.657  10.067 -0.5879 -0.7280  0.1593
  174SAPI   H4R19735   5.272   2.704  10.017 -2.5211  0.9963  4.6135
  174SAPI   H4S19736   5.349   2.548  10.048  1.4968 -1.1925  1.3906
  174SAPI   C2519737   5.493   2.713  10.015 -0.2859 -0.5176 -0.1624
  174SAPI   H5R19738   5.574   2.706  10.089  0.7867 -0.4238 -1.2939
  174SAPI   C2619739   5.518   2.784   9.906  0.5856  0.1307  0.2408
  174SAPI   H6R19740   5.623   2.807   9.881 -0.2648  3.0454 -0.9506
  174SAPI   C2719741   5.424   2.822   9.789 -0.7257  0.1997 -0.4148
  174SAPI   H7R19742   5.485   2.896   9.733  1.0751 -0.5359  0.4706
  174SAPI   H7S19743   5.337   2.876   9.831  0.4181 -0.4979  3.2449
  174SAPI   C2819744   5.377   2.710   9.700 -0.0912 -0.1876 -0.4996
  174SAPI   H8R19745   5.367   2.618   9.760 -2.2270  1.3900  1.7427
  174SAPI   C2919746   5.326   2.716   9.573 -0.1049 -0.5097 -0.6982
  174SAPI   H9R19747   5.309   2.618   9.526  0.9878 -0.7744 -0.5735
  174SAPI  C21019748   5.312   2.842   9.489  0.1255 -0.6763  0.5776
  174SAPI  H10R19749   5.280   2.923   9.558 -0.8702 -1.2731  0.8405
  174SAPI  H10S19750   5.230   2.824   9.417  0.9629  1.8324 -1.1351
  174SAPI  C21119751   5.445   2.866   9.420  0.1125 -0.6210 -1.0879
  174SAPI  H11R19752   5.523   2.892   9.492 -2.0493  0.0834  1.1480
  174SAPI  C21219753   5.485   2.851   9.296  0.0444 -0.2180 -0.4409
  174SAPI  H12R19754   5.582   2.892   9.264  0.2223 -0.9096 -0.7903
  174SAPI  C21319755   5.401   2.814   9.178 -0.5303 -0.5798  0.3900
  174SAPI  H13R19756   5.398   2.901   9.109 -1.1872  0.0506  1.1880
  174SAPI  H13S19757   5.296   2.795   9.211 -2.2024 -1.6737 -4.6918
  174SAPI  C21419758   5.449   2.690   9.109  0.4706 -0.8146 -0.1688
  174SAPI  H14R19759   5.456   2.599   9.171  1.7916 -0.0640  0.8490
  174SAPI  C21519760   5.491   2.676   8.986  0.1815 -0.0806 -0.8677
  174SAPI  H15R19761   5.515   2.571   8.965  0.1344  0.1067 -1.9276
  174SAPI  C21619762   5.486   2.773   8.868  0.2718  0.2772 -0.7676
  174SAPI  H16R19763   5.591   2.775   8.831 -0.0091  0.6522 -1.5656
  174SAPI  H16S19764   5.454   2.876   8.895  0.5958 -0.1932  1.6934
  174SAPI  C21719765   5.395   2.712   8.756 -0.5410  0.7165  0.1302
  174SAPI  H17R19766   5.446   2.627   8.705 -0.3024  0.9330  0.0001
  174SAPI  H17S19767   5.387   2.785   8.673  2.1540  0.7941 -0.1758
  174SAPI  C21819768   5.248   2.686   8.805  1.0305  0.4590  0.5302
  174SAPI  H18R19769   5.220   2.785   8.847  1.1542  0.9112 -0.4405
  174SAPI  H18S19770   5.254   2.615   8.891 -0.5950 -0.4931 -0.0895
  174SAPI  C21919771   5.155   2.631   8.696 -0.3164 -0.3396  0.0213
  174SAPI  H19R19772   5.189   2.528   8.674 -1.8445 -1.0982  1.0820
  174SAPI  H19S19773   5.184   2.686   8.604  1.1498 -1.3675 -0.1598
  174SAPI  C22019774   5.005   2.634   8.716  0.1323  0.3379  0.3210
  174SAPI  H20R19775   4.965   2.562   8.791 -0.7452 -0.6841 -1.0909
  174SAPI  H20S19776   4.962   2.626   8.614  1.1853  0.8953 -0.1743
  174SAPI  H20T19777   4.982   2.734   8.758  0.1575 -0.3547  2.0597
  174SAPI   C3319778   5.379   3.337  10.206  0.0498  0.4201  0.4651
  174SAPI   H3X19779   5.483   3.313  10.174 -0.7155  0.7027 -2.5257
  174SAPI   H3Y19780   5.351   3.411  10.128  1.2993  0.2376 -0.1844
  174SAPI   C3419781   5.282   3.220  10.189 -0.8033 -0.9086  0.3345
  174SAPI   H4X19782   5.180   3.259  10.209 -0.5858 -0.0822 -0.0962
  174SAPI   H4Y19783   5.297   3.140  10.264 -2.5894  0.2128  1.9674
  174SAPI   C3519784   5.287   3.163  10.047  0.4427  0.2594 -0.4969
  174SAPI   H5X19785   5.187   3.118  10.029 -0.7258  2.3576  0.4388
  174SAPI   H5Y19786   5.371   3.090  10.048 -0.3095 -0.6313  0.3718
  174SAPI   C3619787   5.319   3.267   9.931 -0.3464 -0.0005  0.8463
  174SAPI   H6X19788   5.423   3.303   9.944  0.5031 -1.7532 -0.6161
  174SAPI   H6Y19789   5.254   3.356   9.938  1.8889  1.8483 -0.6807
  174SAPI   C3719790   5.307   3.204   9.791  0.1537  0.2747 -0.8242
  174SAPI   H7X19791   5.201   3.172   9.783  0.2045  0.1130 -0.8635
  174SAPI   H7Y19792   5.380   3.121   9.786  0.7217  0.7018  0.1752
  174SAPI   C3819793   5.346   3.291   9.670  0.9198  0.7082  0.7482
  174SAPI   H8X19794   5.447   3.335   9.689 -0.4707  4.1530  0.7981
  174SAPI   H8Y19795   5.286   3.384   9.668 -0.4436 -0.1179 -1.7373
  174SAPI   C3919796   5.331   3.217   9.542  0.1457 -0.2650  0.7668
  174SAPI   H9X19797   5.230   3.173   9.529  1.0364 -2.2160  0.0368
  174SAPI   H9Y19798   5.401   3.131   9.544  0.3255 -0.1178  2.1871
  174SAPI  C31019799   5.373   3.301   9.423  0.0632  0.7805 -0.5050
  174SAPI  H10X19800   5.484   3.313   9.428  0.3854 -1.5363 -0.9461
  174SAPI  H10Y19801   5.319   3.398   9.421  1.0460  1.4441  1.8261
  174SAPI  C31119802   5.339   3.232   9.294 -0.2171 -0.0635  0.7833
  174SAPI  H11X19803   5.249   3.289   9.262 -0.1421  0.2927  1.1967
  174SAPI  H11Y19804   5.317   3.126   9.318 -1.5148  0.2418  0.9789
  174SAPI  C31219805   5.445   3.260   9.185 -0.7324 -0.3054 -0.7581
  174SAPI  H12X19806   5.528   3.188   9.194 -0.5691  0.0367  0.6411
  174SAPI  H12Y19807   5.487   3.361   9.203 -1.3143 -0.2793  0.5629
  174SAPI  C31319808   5.376   3.240   9.041 -0.3576  0.7248 -0.3334
  174SAPI  H13X19809   5.282   3.299   9.036 -0.7113  0.3292  1.2236
  174SAPI  H13Y19810   5.340   3.134   9.046 -2.0347  1.2194 -1.1091
  174SAPI  C31419811   5.464   3.277   8.916 -0.1879 -0.6709 -0.0969
  174SAPI  H14X19812   5.403   3.261   8.824  1.1575 -2.4360 -0.7341
  174SAPI  H14Y19813   5.550   3.207   8.922  0.0231 -0.2995  2.0971
  174SAPI  C31519814   5.509   3.420   8.913 -0.0404  0.3220 -0.7287
  174SAPI  H15X19815   5.476   3.485   8.997  0.5137 -1.8396  1.2469
  174SAPI  H15Y19816   5.461   3.453   8.818 -1.6120 -0.8266 -0.3632
  174SAPI  C31619817   5.662   3.431   8.907  0.0247 -0.1387 -0.2210
  174SAPI  H16X19818   5.687   3.517   8.842  0.6421  1.1938  1.6759
  174SAPI  H16Y19819   5.709   3.337   8.872  3.6485  0.7758  1.7258
  174SAPI  C31719820   5.726   3.479   9.043  0.1047  0.0939  0.8516
  174SAPI  H17X19821   5.696   3.394   9.108  1.5397 -0.6996  0.5047
  174SAPI  H17Y19822   5.674   3.574   9.068 -2.4660 -0.1781 -2.6865
  174SAPI  C31819823   5.879   3.507   9.042 -0.0766  0.1207  0.6135
  174SAPI  H18X19824   5.927   3.413   9.006  1.4199  0.3650  1.8612
  174SAPI  H18Y19825   5.903   3.536   9.147  1.2264 -0.4280  0.4808
  174SAPI  H18Z19826   5.903   3.592   8.975 -0.3805 -0.8271 -0.7336
  175SAPI   C1219827   3.949   6.716   6.226  0.7585 -0.7928  0.0994
  175SAPI    H219828   4.015   6.736   6.313  0.1989  0.6800  0.2089
  175SAPI    O219829   3.842   6.633   6.278 -0.3830  0.3829 -0.8783
  175SAPI   HO219830   3.868   6.603   6.366 -0.9792 -0.1516 -0.8772
  175SAPI   C1319831   3.894   6.849   6.168 -0.4099  0.0254  0.1581
  175SAPI    H319832   3.987   6.901   6.136  0.5018 -2.2416 -1.0501
  175SAPI    O319833   3.835   6.935   6.271  0.2898  0.2129 -0.1747
  175SAPI   HO319834   3.764   6.884   6.311 -1.2979  1.7021 -0.9675
  175SAPI   C1419835   3.806   6.824   6.048  0.0371 -0.4689  0.9900
  175SAPI    H419836   3.725   6.752   6.075 -0.0484 -1.5758 -1.8756
  175SAPI    O419837   3.744   6.948   6.001  0.5642  0.4891 -0.2899
  175SAPI   HO419838   3.648   6.939   6.008  0.5078  2.1324  1.9426
  175SAPI   C1519839   3.884   6.756   5.939  0.0516  0.9945  0.3503
  175SAPI    H519840   3.976   6.813   5.915  1.9226 -1.0754  2.1833
  175SAPI    O519841   3.811   6.742   5.818  0.3529 -0.4362 -0.0236
  175SAPI   HO519842   3.719   6.719   5.833 -0.3317  2.2128  0.2459
  175SAPI   C1619843   3.938   6.618   5.995 -0.2425  0.0583 -0.6029
  175SAPI    H619844   3.856   6.550   6.027  1.1844 -0.8142  1.4883
  175SAPI    O619845   4.019   6.557   5.898  0.0160 -0.5243 -0.4599
  175SAPI   HO619846   3.966   6.517   5.829  1.2097 -1.3617 -0.9375
  175SAPI   C1119847   4.029   6.643   6.122  0.3031  0.3868  0.6296
  175SAPI    H119848   4.113   6.712   6.101  0.1390  1.0674  2.0579
  175SAPI     P19849   4.218   6.486   6.238 -0.0877  0.0001 -0.0335
  175SAPI   O1319850   4.327   6.545   6.157  0.0565 -0.9575  0.6380
  175SAPI   O1419851   4.220   6.340   6.244  0.1214 -0.0915 -0.1899
  175SAPI   O1219852   4.078   6.519   6.174 -0.1508  0.4528 -0.1893
  175SAPI   O1119853   4.195   6.546   6.390 -0.7158 -1.0108  0.5825
  175SAPI    C119854   4.310   6.596   6.464  0.0164 -0.1987 -0.2017
  175SAPI    HA19855   4.393   6.626   6.397 -0.2060 -1.8669 -1.2732
  175SAPI    HB19856   4.273   6.682   6.524 -0.0826 -0.3262 -0.0802
  175SAPI    C219857   4.355   6.484   6.562  0.5903 -0.6572 -0.2237
  175SAPI    HS19858   4.388   6.395   6.504 -0.7692 -1.8832  0.8058
  175SAPI   O2119859   4.239   6.442   6.647 -0.3452  0.1841 -0.4314
  175SAPI   C2119860   4.230   6.312   6.682 -0.6164  0.0225  0.0935
  175SAPI   O2219861   4.315   6.228   6.659 -0.1582  0.2676  0.7248
  175SAPI   C2219862   4.099   6.278   6.755  0.2963  0.4944  0.1723
  175SAPI   H2R19863   4.013   6.274   6.684  0.6637  0.3069 -0.2658
  175SAPI   H2S19864   4.104   6.175   6.797 -1.2709  0.5446  0.5620
  175SAPI    C319865   4.472   6.525   6.650 -0.1709 -0.6238  0.3991
  175SAPI    HX19866   4.439   6.609   6.714 -2.2409  0.4265 -1.8895
  175SAPI    HY19867   4.562   6.560   6.595 -0.5743  2.1416  1.3475
  175SAPI   O3119868   4.502   6.411   6.738  0.1130 -0.1167 -0.2208
  175SAPI   C3119869   4.589   6.326   6.698  0.4361  0.0251 -0.3009
  175SAPI   O3219870   4.651   6.328   6.587 -0.2821  0.2514  0.3782
  175SAPI   C3219871   4.602   6.208   6.799 -0.2674 -1.1679 -0.3955
  175SAPI   H2X19872   4.711   6.187   6.798  0.5695  2.5455 -0.4789
  175SAPI   H2Y19873   4.543   6.122   6.758  0.4827 -2.0686  0.3569
  175SAPI   C2319874   4.064   6.380   6.866 -0.5498  0.6571  0.3363
  175SAPI   H3R19875   3.954   6.394   6.870 -0.4649  1.3158  0.3902
  175SAPI   H3S19876   4.106   6.481   6.849  0.1734  0.3718  0.3914
  175SAPI   C2419877   4.109   6.339   7.008 -0.1180  0.0576  0.5784
  175SAPI   H4R19878   4.082   6.415   7.085 -0.7571  0.9466 -0.4974
  175SAPI   H4S19879   4.220   6.335   7.006 -0.1102 -0.1220 -2.7351
  175SAPI   C2519880   4.049   6.210   7.059  0.2542 -0.0359  0.9453
  175SAPI   H5R19881   3.968   6.171   6.995 -0.3887 -0.3358  1.9176
  175SAPI   C2619882   4.102   6.144   7.160 -0.0494 -0.4053  0.3287
  175SAPI   H6R19883   4.037   6.060   7.191  1.3941 -0.8424  2.3747
  175SAPI   C2719884   4.227   6.188   7.241  0.3026  0.8742 -0.8787
  175SAPI   H7R19885   4.240   6.298   7.249  4.4646  0.4815 -0.0025
  175SAPI   H7S19886   4.309   6.149   7.178 -1.0003  1.7097 -3.2165
  175SAPI   C2819887   4.241   6.124   7.377 -0.1815  0.0375 -0.0834
  175SAPI   H8R19888   4.237   6.014   7.379  3.9355 -0.2572 -0.3535
  175SAPI   C2919889   4.252   6.184   7.496 -0.1582  0.2881 -0.5942
  175SAPI   H9R19890   4.258   6.128   7.590  1.4713  1.9998  0.3898
  175SAPI  C21019891   4.242   6.336   7.520  0.1125 -0.2495 -0.2703
  175SAPI  H10R19892   4.142   6.381   7.539  0.7492  1.3663 -0.5272
  175SAPI  H10S19893   4.285   6.381   7.428  0.8980 -0.1627  0.1374
  175SAPI  C21119894   4.349   6.377   7.621 -0.6599  0.2689 -0.6056
  175SAPI  H11R19895   4.440   6.422   7.579  0.6819 -1.2632  0.5394
  175SAPI  C21219896   4.329   6.372   7.749  0.1459 -0.0730 -0.4321
  175SAPI  H12R19897   4.412   6.412   7.810 -0.7681 -0.2619  0.9899
  175SAPI  C21319898   4.201   6.328   7.818 -0.2715 -0.0057 -0.2891
  175SAPI  H13R19899   4.225   6.235   7.873 -0.7210  1.2742  2.2190
  175SAPI  H13S19900   4.118   6.296   7.751 -0.5939 -0.1195  0.1578
  175SAPI  C21419901   4.152   6.421   7.927  0.3223 -0.0864 -0.1202
  175SAPI  H14R19902   4.198   6.416   8.027 -1.4156  0.5208  0.7473
  175SAPI  C21519903   4.039   6.492   7.924  0.3876 -0.1941  0.6184
  175SAPI  H15R19904   4.025   6.563   8.006  0.7235 -0.0567  0.5552
  175SAPI  C21619905   3.948   6.516   7.799  0.0836  0.0968 -1.1151
  175SAPI  H16R19906   3.999   6.468   7.712  0.4240 -0.9581 -0.3495
  175SAPI  H16S19907   3.954   6.622   7.765 -2.5452  1.2567  1.5949
  175SAPI  C21719908   3.803   6.466   7.809 -0.0849  0.0566  0.3930
  175SAPI  H17R19909   3.795   6.360   7.839 -1.8719  0.1830  0.4596
  175SAPI  H17S19910   3.750   6.466   7.712  0.8279  1.5559 -0.1524
  175SAPI  C21819911   3.706   6.536   7.902 -0.4853 -0.5310  0.1441
  175SAPI  H18R19912   3.711   6.646   7.885  0.0206  0.1684  3.9309
  175SAPI  H18S19913   3.725   6.514   8.009  0.5724  1.1588  0.3382
  175SAPI  C21919914   3.554   6.509   7.878 -0.1754  0.6053  0.4702
  175SAPI  H19R19915   3.528   6.408   7.918  4.1099 -0.6291  0.6852
  175SAPI  H19S19916   3.531   6.503   7.770 -1.3523  0.5011  0.7117
  175SAPI  C22019917   3.454   6.606   7.947  0.3541 -0.5794  0.6003
  175SAPI  H20R19918   3.491   6.706   7.917  0.7061 -1.4536 -2.2044
  175SAPI  H20S19919   3.437   6.608   8.056 -2.8805  0.2491  0.1832
  175SAPI  H20T19920   3.351   6.591   7.909  1.3043 -3.6346 -1.2007
  175SAPI   C3319921   4.557   6.239   6.944 -0.3515  0.6560 -0.2946
  175SAPI   H3X19922   4.447   6.229   6.953 -0.3407  0.9636  0.2116
  175SAPI   H3Y19923   4.600   6.338   6.967  1.1518 -0.1947  0.7521
  175SAPI   C3419924   4.613   6.133   7.049  0.4777 -0.1375  0.6603
  175SAPI   H4X19925   4.717   6.107   7.021  0.9672  1.3868  0.9554
  175SAPI   H4Y19926   4.560   6.035   7.053  0.2579  0.0112  1.9946
  175SAPI   C3519927   4.612   6.189   7.185 -0.2591 -0.0350  0.1652
  175SAPI   H5X19928   4.510   6.233   7.188 -0.8356 -1.1563 -1.5440
  175SAPI   H5Y19929   4.681   6.276   7.196  0.8925 -1.0530  1.3082
  175SAPI   C3619930   4.630   6.090   7.302 -0.3981 -0.1243 -0.3693
  175SAPI   H6X19931   4.734   6.053   7.288 -0.3545  0.5060 -1.9705
  175SAPI   H6Y19932   4.564   6.001   7.292 -3.1899  1.6674  1.0395
  175SAPI   C3719933   4.621   6.164   7.434 -0.1950 -0.1364  0.2260
  175SAPI   H7X19934   4.522   6.214   7.423 -0.2301 -0.3413 -0.4531
  175SAPI   H7Y19935   4.704   6.236   7.423  0.2582 -0.8665 -1.5047
  175SAPI   C3819936   4.631   6.075   7.560  0.5599 -0.4713 -0.4635
  175SAPI   H8X19937   4.739   6.054   7.567  0.4050 -1.7333 -1.4452
  175SAPI   H8Y19938   4.583   5.975   7.551 -0.2837 -0.1096 -0.1319
  175SAPI   C3919939   4.577   6.126   7.698 -0.6622 -0.5612 -1.1228
  175SAPI   H9X19940   4.471   6.105   7.720 -0.6435  0.8185  0.5403
  175SAPI   H9Y19941   4.587   6.236   7.699 -1.9197 -0.4037  1.4530
  175SAPI  C31019942   4.647   6.057   7.821  0.1074  0.5441  0.4925
  175SAPI  H10X19943   4.757   6.067   7.829  0.2750 -0.9825  0.5506
  175SAPI  H10Y19944   4.624   5.948   7.814  1.6258  0.1357  1.2720
  175SAPI  C31119945   4.583   6.103   7.955  0.0122  0.2015  0.3093
  175SAPI  H11X19946   4.475   6.079   7.945 -0.4931  1.5764  1.9753
  175SAPI  H11Y19947   4.577   6.214   7.962 -1.8960  0.1287  0.2629
  175SAPI  C31219948   4.648   6.051   8.074  0.1305  0.0331 -0.2091
  175SAPI  H12X19949   4.752   6.090   8.085  0.2234  0.5448 -2.4816
  175SAPI  H12Y19950   4.658   5.941   8.062  0.4094 -0.0442  0.6628
  175SAPI  C31319951   4.575   6.071   8.210 -0.7964 -0.4440  0.6608
  175SAPI  H13X19952   4.489   6.004   8.230 -0.9635  0.3460  2.9148
  175SAPI  H13Y19953   4.542   6.177   8.219  2.2873  0.8015 -1.0091
  175SAPI  C31419954   4.670   6.044   8.326  0.3553 -0.0113 -0.3505
  175SAPI  H14X19955   4.767   6.096   8.318 -0.0391  0.9987  1.1096
  175SAPI  H14Y19956   4.699   5.936   8.324  0.0223 -0.0977 -0.9485
  175SAPI  C31519957   4.614   6.073   8.465  0.0182  0.0628  0.7668
  175SAPI  H15X19958   4.511   6.033   8.457  0.4452 -0.9268  0.0224
  175SAPI  H15Y19959   4.613   6.183   8.484 -1.7757 -0.2504  2.8876
  175SAPI  C31619960   4.673   6.007   8.585  0.5018  0.2095 -0.0059
  175SAPI  H16X19961   4.688   5.902   8.551  2.2910  0.8291 -1.2666
  175SAPI  H16Y19962   4.609   6.021   8.674 -0.3044  1.2512 -0.7330
  175SAPI  C31719963   4.809   6.068   8.633 -0.0224  0.0891  0.6789
  175SAPI  H17X19964   4.791   6.177   8.649  0.9666  0.7745 -2.2811
  175SAPI  H17Y19965   4.879   6.051   8.549 -1.6650 -0.8843 -0.5540
  175SAPI  C31819966   4.882   6.010   8.756 -0.2849  0.0480  0.3884
  175SAPI  H18X19967   4.913   5.904   8.741 -1.8789 -0.2874 -0.8989
  175SAPI  H18Y19968   4.817   6.013   8.846 -0.9071  1.5533 -0.0856
  175SAPI  H18Z19969   4.974   6.058   8.795 -0.2328 -0.0215  0.3524
  176SAPI   C1219970   6.559   3.575   6.362 -0.1486 -0.5396 -0.1594
  176SAPI    H219971   6.573   3.522   6.459 -0.1460 -0.2681 -0.0106
  176SAPI    O219972   6.593   3.486   6.260 -0.6582 -0.3255  0.6215
  176SAPI   HO219973   6.680   3.455   6.287  1.2754  3.0358 -1.0067
  176SAPI   C1319974   6.426   3.631   6.373  0.3341  0.2880 -0.0303
  176SAPI    H319975   6.421   3.700   6.460  1.1240 -0.1465  0.3660
  176SAPI    O319976   6.333   3.524   6.393 -0.1535  0.5932 -0.1534
  176SAPI   HO319977   6.349   3.448   6.336  0.2408  1.4799 -1.2407
  176SAPI   C1419978   6.394   3.719   6.249 -0.3250 -0.5381 -0.2029
  176SAPI    H419979   6.393   3.657   6.156 -0.4369  1.1144 -1.3568
  176SAPI    O419980   6.264   3.782   6.265  0.1463 -0.8279 -0.1462
  176SAPI   HO419981   6.208   3.707   6.244  0.7459 -1.6795  1.1595
  176SAPI   C1519982   6.495   3.826   6.223  0.4865 -0.4602  0.3632
  176SAPI    H519983   6.488   3.906   6.299  0.2379  0.3888 -0.5259
  176SAPI    O519984   6.471   3.890   6.096 -0.3413 -0.0557 -0.4346
  176SAPI   HO519985   6.390   3.940   6.104  0.1105  0.5036  0.9152
  176SAPI   C1619986   6.642   3.776   6.233  0.7102  0.1410 -0.2769
  176SAPI    H619987   6.660   3.703   6.151 -0.3445 -0.4484 -0.0074
  176SAPI    O619988   6.732   3.889   6.230  0.4102 -0.0224 -0.3010
  176SAPI   HO619989   6.771   3.893   6.318 -0.4091  3.0837  0.0684
  176SAPI   C1119990   6.658   3.691   6.364  0.0053 -0.7408  0.3650
  176SAPI    H119991   6.637   3.768   6.442  2.7349 -0.4422  0.9150
  176SAPI     P19992   6.896   3.726   6.472  0.1691 -0.2786 -0.2649
  176SAPI   O1319993   6.886   3.870   6.439 -0.2263 -0.0486 -0.2823
  176SAPI   O1419994   7.028   3.667   6.451 -0.3496 -0.2699  0.2911
  176SAPI   O1219995   6.789   3.639   6.382 -0.0654 -0.0114 -0.2458
  176SAPI   O1119996   6.840   3.697   6.618 -0.2844  0.2587 -0.1801
  176SAPI    C119997   6.820   3.564   6.661  0.5891  0.1761 -0.1967
  176SAPI    HA19998   6.711   3.545   6.662  0.7217 -0.5765  0.9051
  176SAPI    HB19999   6.874   3.491   6.597 -0.1038 -0.5253  0.0152
  176SAPI    C220000   6.874   3.545   6.803  0.3841  0.4132  0.0620
  176SAPI    HS20001   6.874   3.437   6.829  0.6031  0.2888 -0.4453
  176SAPI   O2120002   6.799   3.615   6.897  0.2521 -0.0504 -0.1493
  176SAPI   C2120003   6.691   3.549   6.944 -0.5767  0.5223  0.4055
  176SAPI   O2220004   6.645   3.451   6.891  0.1721  0.1051  0.8747
  176SAPI   C2220005   6.620   3.625   7.058 -0.5780 -0.0432  0.2770
  176SAPI   H2R20006   6.683   3.715   7.074 -0.8541 -0.1204  2.0619
  176SAPI   H2S20007   6.519   3.653   7.022 -1.4677 -1.9804  1.1613
  176SAPI    C320008   7.018   3.587   6.799  0.8040 -0.3749  0.5319
  176SAPI    HX20009   7.026   3.698   6.796 -0.5013 -0.2477 -3.4506
  176SAPI    HY20010   7.054   3.550   6.701 -2.0887  1.0688 -1.2114
  176SAPI   O3120011   7.102   3.541   6.915 -0.1593 -0.4535 -0.0858
  176SAPI   C3120012   7.215   3.610   6.934  0.3860 -0.1851 -0.1142
  176SAPI   O3220013   7.252   3.709   6.870  0.1576  0.2877 -0.7125
  176SAPI   C3220014   7.280   3.554   7.059  0.4794  0.0536  0.3045
  176SAPI   H2X20015   7.388   3.559   7.032  0.6265 -0.0881  0.8670
  176SAPI   H2Y20016   7.253   3.448   7.075 -0.1159  0.2920  0.9471
  176SAPI   C2320017   6.610   3.527   7.176 -0.1742 -0.2017  0.6530
  176SAPI   H3R20018   6.567   3.427   7.153 -0.9476  0.1894  0.3726
  176SAPI   H3S20019   6.532   3.565   7.245 -1.5744  2.0320 -1.9514
  176SAPI   C2420020   6.738   3.507   7.257  0.5148 -0.0118  0.7587
  176SAPI   H4R20021   6.715   3.467   7.359 -1.8049 -0.3187  0.1835
  176SAPI   H4S20022   6.775   3.609   7.282 -0.0466 -0.4822  4.0178
  176SAPI   C2520023   6.845   3.415   7.200  0.2844 -0.4536  0.3370
  176SAPI   H5R20024   6.834   3.393   7.093  1.8363 -1.5125  0.3522
  176SAPI   C2620025   6.939   3.355   7.274 -0.5541 -0.1716  0.3997
  176SAPI   H6R20026   7.015   3.290   7.228 -0.9272  1.0497 -2.1343
  176SAPI   C2720027   6.957   3.369   7.420 -0.8090 -0.0963 -0.4849
  176SAPI   H7R20028   6.892   3.452   7.454 -1.0395  0.1478 -1.4678
  176SAPI   H7S20029   7.063   3.390   7.443 -0.4432 -0.1558 -1.9702
  176SAPI   C2820030   6.931   3.253   7.508 -0.6753  0.1745 -0.0643
  176SAPI   H8R20031   6.921   3.157   7.456 -1.5245  0.0251  0.3579
  176SAPI   C2920032   6.888   3.252   7.641  0.1806 -0.1743  0.1986
  176SAPI   H9R20033   6.869   3.160   7.698  2.4621 -0.4999  0.5505
  176SAPI  C21020034   6.854   3.369   7.729  0.1547  0.3038 -0.5657
  176SAPI  H10R20035   6.747   3.363   7.758  0.3105  1.2015  0.2473
  176SAPI  H10S20036   6.861   3.460   7.665  0.6506  0.7320  0.0827
  176SAPI  C21120037   6.957   3.375   7.844 -0.5006 -0.9861  1.3371
  176SAPI  H11R20038   7.054   3.422   7.822 -1.7621  1.2320  0.2455
  176SAPI  C21220039   6.927   3.341   7.966  0.0000  0.9175 -0.0764
  176SAPI  H12R20040   7.009   3.337   8.038 -1.0821  2.0483  1.2763
  176SAPI  C21320041   6.786   3.290   8.005 -0.4680 -0.9145 -0.1473
  176SAPI  H13R20042   6.701   3.319   7.939 -0.3552  0.5444  0.2952
  176SAPI  H13S20043   6.760   3.340   8.101  2.7866 -0.6459  0.7276
  176SAPI  C21420044   6.801   3.144   8.020 -0.0209  0.0660  0.1609
  176SAPI  H14R20045   6.823   3.090   7.927 -0.6181 -1.7672  1.0306
  176SAPI  C21520046   6.786   3.067   8.130  0.1775  0.6342 -0.3020
  176SAPI  H15R20047   6.787   2.957   8.130  0.1246  0.4955  3.3168
  176SAPI  C21620048   6.749   3.119   8.267  0.4357  0.4250  0.8818
  176SAPI  H16R20049   6.715   3.033   8.330  1.6662 -0.8027 -0.0603
  176SAPI  H16S20050   6.655   3.177   8.271 -0.5851 -1.2286  2.1661
  176SAPI  C21720051   6.862   3.204   8.336  0.4293  0.5299 -0.3881
  176SAPI  H17R20052   6.889   3.285   8.265 -0.3621  2.1651  1.1245
  176SAPI  H17S20053   6.950   3.137   8.348  2.3430  3.0814  0.8798
  176SAPI  C21820054   6.819   3.271   8.464 -0.4953  0.2520 -0.1188
  176SAPI  H18R20055   6.772   3.187   8.520 -0.0519 -0.6877 -1.1264
  176SAPI  H18S20056   6.743   3.344   8.429 -0.3085 -0.5147 -2.2664
  176SAPI  C21920057   6.940   3.337   8.528  0.0585  0.2268 -0.3318
  176SAPI  H19R20058   7.002   3.399   8.459 -1.2327 -0.5463 -2.3019
  176SAPI  H19S20059   7.007   3.250   8.544  0.2877  0.5364  0.3904
  176SAPI  C22020060   6.906   3.386   8.666 -0.0252  0.0805  0.2240
  176SAPI  H20R20061   6.860   3.305   8.726 -0.3882 -0.1945 -0.4107
  176SAPI  H20S20062   6.848   3.481   8.659 -1.0005 -0.4747  0.6290
  176SAPI  H20T20063   7.003   3.410   8.714  0.3644 -1.0921  0.0503
  176SAPI   C3320064   7.250   3.617   7.193 -0.6866 -0.5588  0.0494
  176SAPI   H3X20065   7.142   3.604   7.217 -0.7475 -1.1592 -0.5264
  176SAPI   H3Y20066   7.251   3.727   7.199 -1.7661 -0.5501  0.2495
  176SAPI   C3420067   7.336   3.561   7.310 -0.2135 -0.3029 -0.6520
  176SAPI   H4X20068   7.442   3.543   7.280  0.2753 -1.1080  1.3742
  176SAPI   H4Y20069   7.298   3.459   7.331 -0.7513 -1.0357 -4.5013
  176SAPI   C3520070   7.329   3.648   7.436 -0.2077  0.1105 -0.2407
  176SAPI   H5X20071   7.234   3.704   7.425 -2.5387 -3.6090 -1.2107
  176SAPI   H5Y20072   7.415   3.717   7.441 -1.9156  2.2753  0.9805
  176SAPI   C3620073   7.317   3.574   7.569 -0.2480 -0.3232 -0.6380
  176SAPI   H6X20074   7.399   3.500   7.571  0.5749  0.5713  0.7609
  176SAPI   H6Y20075   7.215   3.530   7.565 -1.0357  1.4116 -0.7274
  176SAPI   C3720076   7.337   3.666   7.692  0.3899 -0.5328 -0.6390
  176SAPI   H7X20077   7.256   3.742   7.700  3.3910  2.7487  1.0829
  176SAPI   H7Y20078   7.427   3.729   7.684  0.7515 -0.5163  2.3065
  176SAPI   C3820079   7.344   3.589   7.829  0.3313 -0.9462 -0.4807
  176SAPI   H8X20080   7.434   3.529   7.854  0.8495  1.0455  3.1664
  176SAPI   H8Y20081   7.252   3.538   7.865  0.4391  0.3077  1.7762
  176SAPI   C3920082   7.349   3.699   7.940  0.5689  0.6659 -0.3793
  176SAPI   H9X20083   7.275   3.776   7.911  1.5341  1.8670  0.2477
  176SAPI   H9Y20084   7.444   3.757   7.942  1.3702 -0.6211  0.2563
  176SAPI  C31020085   7.323   3.642   8.084 -0.1323 -0.5164 -0.2276
  176SAPI  H10X20086   7.353   3.723   8.154 -0.6407 -0.1673 -0.4107
  176SAPI  H10Y20087   7.394   3.561   8.115  1.9524  1.0816 -0.5927
  176SAPI  C31120088   7.179   3.601   8.104 -0.1162 -0.0377 -0.5483
  176SAPI  H11X20089   7.138   3.522   8.039  0.5461  0.2305 -1.3152
  176SAPI  H11Y20090   7.115   3.688   8.079  1.4743  1.1412 -0.7138
  176SAPI  C31220091   7.141   3.591   8.255  0.3552  1.0812 -0.3310
  176SAPI  H12X20092   7.168   3.491   8.297 -0.1769  0.2553 -1.8735
  176SAPI  H12Y20093   7.030   3.589   8.253  0.2972  1.0582  1.3035
  176SAPI  C31320094   7.185   3.707   8.346  0.1587  0.0892 -0.8618
  176SAPI  H13X20095   7.155   3.793   8.283 -1.5721  0.0214 -0.1957
  176SAPI  H13Y20096   7.295   3.710   8.357  0.4699 -1.5977 -2.8856
  176SAPI  C31420097   7.129   3.711   8.489 -0.0290 -0.2570 -0.1808
  176SAPI  H14X20098   7.186   3.638   8.551 -1.0401 -1.0491 -0.1607
  176SAPI  H14Y20099   7.025   3.673   8.492  0.2116 -0.8837  0.6259
  176SAPI  C31520100   7.124   3.857   8.557 -0.4987 -0.1445 -0.4426
  176SAPI  H15X20101   7.080   3.921   8.477 -0.2068  0.8373  0.1648
  176SAPI  H15Y20102   7.225   3.896   8.581 -1.5851  1.6609  1.5225
  176SAPI  C31620103   7.049   3.875   8.692  0.2332 -0.2889  0.1620
  176SAPI  H16X20104   7.125   3.850   8.768  0.0411  1.7305  1.0703
  176SAPI  H16Y20105   6.959   3.810   8.693 -0.2874  0.2564 -2.6312
  176SAPI  C31720106   6.999   4.020   8.710  0.2243 -0.0356  0.1745
  176SAPI  H17X20107   6.915   4.027   8.638  1.4391  2.5658 -1.1672
  176SAPI  H17Y20108   7.078   4.090   8.674 -0.1934  1.4828  2.0480
  176SAPI  C31820109   6.949   4.059   8.849 -0.6338  0.0189  0.0668
  176SAPI  H18X20110   6.854   4.012   8.882  0.6914 -3.3681 -0.5469
  176SAPI  H18Y20111   6.938   4.170   8.840  2.2116  0.3360 -0.6734
  176SAPI  H18Z20112   7.030   4.058   8.925  1.7425  3.0569 -2.1642
  177SLPC     N20113   0.780   2.053  11.394  0.2340 -0.1507  0.4335
  177SLPC   C1320114   0.870   2.167  11.417  0.0929 -0.4565  0.2961
  177SLPC  H13A20115   0.970   2.131  11.441  0.8817  1.4211 -0.0149
  177SLPC  H13B20116   0.876   2.229  11.329  0.1779  0.8109  1.1731
  177SLPC  H13C20117   0.859   2.239  11.496  1.7549  0.0174  0.1366
  177SLPC   C1420118   0.755   1.975  11.526  0.6278 -0.1411  0.0014
  177SLPC  H14A20119   0.842   1.925  11.568  0.8346  0.3960  0.2297
  177SLPC  H14B20120   0.706   2.044  11.593  1.0717  0.7858 -0.6033
  177SLPC  H14C20121   0.685   1.897  11.499  0.5449  0.7909 -2.7465
  177SLPC   C1520122   0.842   1.946  11.308 -0.0862 -0.1856  0.0864
  177SLPC  H15A20123   0.931   1.911  11.357  1.0839  0.0429 -1.7805
  177SLPC  H15B20124   0.772   1.866  11.287 -0.1748 -0.3228  0.8895
  177SLPC  H15C20125   0.875   1.992  11.215 -2.4977 -0.5755 -1.0404
  177SLPC   C1220126   0.649   2.098  11.331 -0.4941  0.3782  0.6934
  177SLPC  H12A20127   0.601   2.171  11.394 -1.2199  0.2956  0.2475
  177SLPC  H12B20128   0.574   2.021  11.321  0.9524 -0.8876 -1.4193
  177SLPC   C1120129   0.652   2.173  11.192  0.2117 -0.1439  0.0735
  177SLPC  H11A20130   0.744   2.236  11.191 -0.0945  0.3126 -1.1695
  177SLPC  H11B20131   0.567   2.244  11.184  0.9022  0.8820  1.5182
  177SLPC     P20132   0.558   1.965  11.050  0.2119  0.2146 -0.2551
  177SLPC   O1320133   0.615   1.841  11.090 -0.7177  0.2901  0.1148
  177SLPC   O1420134   0.431   2.001  11.120 -0.0979  0.1872 -0.5678
  177SLPC   O1220135   0.658   2.087  11.080  0.1139 -0.2409 -0.0893
  177SLPC   O1120136   0.545   1.962  10.897  0.0931  0.1293 -0.0648
  177SLPC    C120137   0.593   2.053  10.800 -0.4529 -0.5635  0.0742
  177SLPC    HA20138   0.645   2.137  10.851 -2.9760  1.4197 -0.4134
  177SLPC    HB20139   0.676   2.006  10.743 -2.3617 -2.0303 -1.6859
  177SLPC    C220140   0.481   2.104  10.720  0.0670 -0.0996 -0.2478
  177SLPC    HS20141   0.393   2.105  10.788 -0.2648 -2.2659 -0.5683
  177SLPC   O2120142   0.457   2.005  10.622  0.2967 -0.2996  0.0039
  177SLPC   C2120143   0.346   2.005  10.552  0.0882  0.6141 -0.5502
  177SLPC   O2220144   0.246   2.078  10.570  0.0194 -0.3143  0.2398
  177SLPC   C2220145   0.367   1.910  10.443  0.4570  0.0600  0.6124
  177SLPC   H2R20146   0.409   1.813  10.477  1.2525  0.3290  0.4372
  177SLPC   H2S20147   0.272   1.884  10.392  0.8946 -1.0041  0.3059
  177SLPC    C320148   0.509   2.242  10.656  0.6201  0.2919  0.3693
  177SLPC    HX20149   0.549   2.315  10.730 -2.3233  1.4735  0.9487
  177SLPC    HY20150   0.412   2.282  10.620  0.2895  0.1661  1.1102
  177SLPC   O3120151   0.592   2.229  10.535 -0.4117 -0.0735  0.1625
  177SLPC   C3120152   0.723   2.272  10.533  0.2722  0.1685 -0.2459
  177SLPC   O3220153   0.782   2.319  10.625  0.0311  0.2085 -0.0781
  177SLPC   C3220154   0.757   2.276  10.385 -0.2440  0.2732 -0.1922
  177SLPC   H2X20155   0.666   2.306  10.329 -0.7505 -0.0673  0.4421
  177SLPC   H2Y20156   0.766   2.172  10.347  1.2330  0.0734  0.6263
  177SLPC   C2320157   0.461   1.960  10.330  0.3641 -0.4268  0.3562
  177SLPC   H3R20158   0.499   1.866  10.286 -1.2994 -0.7685 -0.4422
  177SLPC   H3S20159   0.548   2.002  10.385 -0.8583 -0.1350  2.1407
  177SLPC   C2420160   0.402   2.061  10.232 -0.0767 -1.0791  0.4840
  177SLPC   H4R20161   0.493   2.089  10.175  1.4495 -0.9392  2.8169
  177SLPC   H4S20162   0.359   2.149  10.286 -2.6494 -0.2962 -2.5695
  177SLPC   C2520163   0.291   2.015  10.147 -0.0389 -0.1174  0.6041
  177SLPC   H5R20164   0.252   2.099  10.086 -1.4081 -0.7500  0.5679
  177SLPC   H5S20165   0.203   1.971  10.199  0.7786  1.0932  3.1613
  177SLPC   C2620166   0.346   1.929  10.031 -0.3608  0.7168 -0.0933
  177SLPC   H6R20167   0.364   1.829  10.077 -1.9053  0.4594  0.0043
  177SLPC   H6S20168   0.445   1.955   9.988  0.6030 -1.4460  0.6689
  177SLPC   C2720169   0.251   1.900   9.906 -0.0477  0.3987 -1.6087
  177SLPC   H7R20170   0.156   1.849   9.936  1.1900 -1.6877 -0.9963
  177SLPC   H7S20171   0.309   1.824   9.849  1.2191 -1.1449  1.4887
  177SLPC   C2820172   0.227   2.024   9.814  0.5227 -0.4534 -0.6929
  177SLPC   H8R20173   0.227   2.001   9.705 -2.2601  1.4200 -1.2140
  177SLPC   H8S20174   0.313   2.091   9.836  1.4857 -1.8426 -0.0629
  177SLPC   C2920175   0.092   2.098   9.828  0.5763 -0.3444 -0.1876
  177SLPC   H9R20176   0.089   2.175   9.907  2.4071 -1.5545  1.1243
  177SLPC  C21020177  -0.020   2.069   9.757 -0.1724  0.2949  0.3184
  177SLPC  H10R20178  -0.114   2.125   9.769  0.4485  1.5910 -0.6156
  177SLPC  C21120179  -0.018   1.971   9.647  0.5524  0.6310 -0.5858
  177SLPC  H11R20180   0.026   2.012   9.553 -0.8318 -1.3509 -2.1924
  177SLPC  H11S20181   0.038   1.878   9.670  0.5654  0.2324 -2.0966
  177SLPC  C21220182  -0.153   1.918   9.613 -0.9368 -0.5234  0.0025
  177SLPC  H12R20183  -0.212   1.884   9.699  1.0878 -0.0211  1.6836
  177SLPC  C21320184  -0.214   1.942   9.496  0.0767  0.5318 -0.6486
  177SLPC  H13R20185  -0.316   1.902   9.495 -0.1708  1.0062  1.2667
  177SLPC  C21420186  -0.171   2.015   9.372  0.0425  0.0854  0.2219
  177SLPC  H14R20187  -0.063   1.998   9.352  0.0935 -0.8825  1.2044
  177SLPC  H14S20188  -0.196   2.122   9.389 -1.6374 -0.3798  0.8761
  177SLPC  C21520189  -0.248   1.971   9.249 -0.4224 -0.2563  0.0946
  177SLPC  H15R20190  -0.357   1.988   9.261 -0.5282  1.6050 -2.6342
  177SLPC  H15S20191  -0.244   1.863   9.223 -1.9249 -0.5505  0.9653
  177SLPC  C21620192  -0.204   2.056   9.125  0.6308  0.3335 -0.5053
  177SLPC  H16R20193  -0.097   2.059   9.095  0.2222 -1.5672 -2.3961
  177SLPC  H16S20194  -0.212   2.161   9.159 -0.7387 -0.1883  0.9258
  177SLPC  C21720195  -0.292   2.031   9.002  0.3369  0.1386 -0.0822
  177SLPC  H17R20196  -0.400   2.025   9.024  0.4356 -1.3863  0.0953
  177SLPC  H17S20197  -0.259   1.935   8.956 -0.9219 -0.0909 -0.5348
  177SLPC  C21820198  -0.273   2.143   8.895 -0.3629  0.1786  0.7397
  177SLPC  H18R20199  -0.201   2.097   8.824 -0.6985 -0.6590  0.9190
  177SLPC  H18S20200  -0.235   2.239   8.935  2.7938  0.3250 -2.2256
  177SLPC  H18T20201  -0.369   2.150   8.840 -1.5895 -0.2082  2.7230
  177SLPC   C3320202   0.886   2.352  10.343  0.6376  0.0182 -0.4423
  177SLPC   H3X20203   0.967   2.309  10.407 -1.1328  1.5010  3.0221
  177SLPC   H3Y20204   0.883   2.458  10.375 -2.6450  1.5362 -4.7240
  177SLPC   C3420205   0.923   2.332  10.192 -0.6667  0.3136 -0.6804
  177SLPC   H4X20206   0.860   2.409  10.142 -0.5531  0.8838  0.0350
  177SLPC   H4Y20207   0.909   2.225  10.168  4.8065 -0.5369 -1.4210
  177SLPC   C3520208   1.064   2.367  10.153 -0.7118  0.6595  0.6823
  177SLPC   H5X20209   1.135   2.288  10.186  0.1011  0.9377 -0.3577
  177SLPC   H5Y20210   1.098   2.458  10.207  2.3891  0.0309 -0.0277
  177SLPC   C3620211   1.076   2.389  10.003  0.2363 -0.6648  0.0377
  177SLPC   H6X20212   1.184   2.413   9.993 -0.5394  4.2289  0.5950
  177SLPC   H6Y20213   1.015   2.474   9.965  0.6275 -1.0142 -1.4204
  177SLPC   C3720214   1.037   2.266   9.911 -0.0687 -0.2765  0.3880
  177SLPC   H7X20215   0.928   2.250   9.923 -0.3929  0.4122 -1.4294
  177SLPC   H7Y20216   1.076   2.171   9.954 -1.5109 -1.4544 -0.8028
  177SLPC   C3820217   1.071   2.288   9.761 -0.5811 -0.1605  0.5714
  177SLPC   H8X20218   1.180   2.303   9.745 -0.1158 -3.5853 -0.2241
  177SLPC   H8Y20219   1.011   2.372   9.721 -0.0411 -0.8180 -1.7754
  177SLPC   C3920220   1.047   2.173   9.665  0.3966  0.3621 -0.4055
  177SLPC   H9X20221   0.938   2.154   9.681  0.6757 -1.2952 -0.2439
  177SLPC   H9Y20222   1.101   2.077   9.680 -0.6217 -0.0921  0.5824
  177SLPC  C31020223   1.089   2.221   9.522  0.1580  0.4277  0.2591
  177SLPC  H10X20224   1.200   2.229   9.520  0.0436  2.4606  0.1071
  177SLPC  H10Y20225   1.050   2.324   9.511  2.5765  1.5595  1.6071
  177SLPC  C31120226   1.035   2.140   9.411 -0.0018  0.4436 -0.2837
  177SLPC  H11X20227   0.924   2.137   9.409  0.0022  0.5267 -0.9055
  177SLPC  H11Y20228   1.082   2.040   9.426 -0.8976  0.2940  1.7601
  177SLPC  C31220229   1.086   2.192   9.277 -1.0525  0.2828 -0.2048
  177SLPC  H12X20230   1.194   2.168   9.264 -1.4474 -0.4368 -2.7179
  177SLPC  H12Y20231   1.074   2.301   9.263 -2.0981  0.0668 -1.0868
  177SLPC  C31320232   1.028   2.129   9.148 -0.2756  0.3893  0.6660
  177SLPC  H13X20233   0.918   2.136   9.153 -0.7349 -3.3725 -0.7228
  177SLPC  H13Y20234   1.058   2.022   9.146 -2.3604 -0.2456  0.8626
  177SLPC  C31420235   1.083   2.192   9.017 -0.3115 -0.0374 -0.0347
  177SLPC  H14X20236   1.194   2.176   9.017 -0.1756  0.5504  2.3967
  177SLPC  H14Y20237   1.048   2.296   9.007 -0.9158 -0.2213  0.1248
  177SLPC  C31520238   1.037   2.121   8.890 -0.6066 -0.3286 -0.4718
  177SLPC  H15X20239   0.926   2.112   8.897 -0.7700  1.7751  0.1651
  177SLPC  H15Y20240   1.091   2.024   8.888  0.8763  0.4679 -1.9830
  177SLPC  C31620241   1.053   2.199   8.762  0.6268  0.0164 -0.8699
  177SLPC  H16X20242   1.006   2.297   8.784 -1.6354 -1.1372 -0.3226
  177SLPC  H16Y20243   1.004   2.163   8.669  0.3409  1.2032 -1.1916
  177SLPC  C31720244   1.200   2.216   8.719 -0.5107 -0.0585 -0.1400
  177SLPC  H17X20245   1.234   2.116   8.684  1.2306  0.2473  0.5647
  177SLPC  H17Y20246   1.258   2.235   8.812  0.7297 -0.2868 -0.8440
  177SLPC  C31820247   1.218   2.327   8.604 -0.0979 -0.5766  0.3154
  177SLPC  H18X20248   1.320   2.318   8.562  0.0383 -1.5457  0.8163
  177SLPC  H18Y20249   1.208   2.436   8.622  2.6495 -0.0312 -0.9266
  177SLPC  H18Z20250   1.146   2.299   8.524  1.6910 -0.6948 -1.3209
  178SLPC     N20251   1.965   3.327  11.072  0.0067 -0.2451 -0.0816
  178SLPC   C1320252   2.063   3.215  11.079  0.2813 -0.1428 -0.7107
  178SLPC  H13A20253   2.030   3.125  11.028  0.4808 -0.8322  0.3434
  178SLPC  H13B20254   2.159   3.236  11.035  0.8139 -0.6695  0.1945
  178SLPC  H13C20255   2.086   3.186  11.180  0.7797 -2.4776 -1.4287
  178SLPC   C1420256   1.941   3.360  10.926  0.0835  0.2238 -0.4611
  178SLPC  H14A20257   1.920   3.465  10.912 -0.5935  0.0928 -0.4570
  178SLPC  H14B20258   2.023   3.333  10.861  1.2846  1.7925  0.3355
  178SLPC  H14C20259   1.856   3.299  10.897 -0.3879 -0.0860  1.4495
  178SLPC   C1520260   2.026   3.441  11.127 -0.7258 -0.5237 -0.3809
  178SLPC  H15A20261   1.971   3.534  11.123  1.3703  0.9782  2.4562
  178SLPC  H15B20262   2.055   3.431  11.230 -1.8611  0.0978  0.0177
  178SLPC  H15C20263   2.120   3.457  11.077 -0.6967 -2.9411 -1.2564
  178SLPC   C1220264   1.833   3.293  11.145 -0.4527 -0.2108  0.5023
  178SLPC  H12A20265   1.770   3.379  11.125  0.4540  0.2801 -0.3637
  178SLPC  H12B20266   1.853   3.284  11.251  1.6215 -2.2733  0.0260
  178SLPC   C1120267   1.758   3.161  11.111 -0.2180  0.1598  0.4000
  178SLPC  H11A20268   1.670   3.162  11.180  0.7440  0.7314  1.6530
  178SLPC  H11B20269   1.815   3.073  11.147 -0.8872  0.1366  1.4518
  178SLPC     P20270   1.606   3.233  10.912 -0.3970  0.3670  0.0804
  178SLPC   O1320271   1.571   3.339  11.007 -0.1753 -0.2514  0.1008
  178SLPC   O1420272   1.657   3.280  10.780  0.4220  0.4054  0.1376
  178SLPC   O1220273   1.723   3.144  10.969  0.4831 -0.0041  0.6297
  178SLPC   O1120274   1.482   3.139  10.896  0.4346  0.3319  0.3832
  178SLPC    C120275   1.496   2.998  10.886 -0.2235  0.3966  0.2769
  178SLPC    HA20276   1.558   2.962  10.971  1.4062  1.3033 -0.4884
  178SLPC    HB20277   1.395   2.952  10.894 -0.0672  0.2388  1.7381
  178SLPC    C220278   1.562   2.952  10.759 -0.4924  0.5531  0.1037
  178SLPC    HS20279   1.668   2.981  10.773 -0.3161 -0.5188  1.1886
  178SLPC   O2120280   1.492   2.996  10.642 -0.1782  0.2570 -0.1549
  178SLPC   C2120281   1.566   3.063  10.552  0.2099 -0.2317  0.8875
  178SLPC   O2220282   1.684   3.087  10.561  0.0563  0.0369  0.5593
  178SLPC   C2220283   1.479   3.087  10.424  0.4768  0.2681 -1.5372
  178SLPC   H2R20284   1.378   3.060  10.463  0.8095  1.5159  0.3189
  178SLPC   H2S20285   1.482   3.196  10.401  0.9325  0.4189 -0.7780
  178SLPC    C320286   1.569   2.792  10.742  0.2528  0.3339 -0.6491
  178SLPC    HX20287   1.467   2.746  10.742  1.7226 -3.3861  1.5213
  178SLPC    HY20288   1.616   2.754  10.835 -0.9453  0.2507 -0.0637
  178SLPC   O3120289   1.642   2.750  10.624  0.1360 -0.1935 -0.4384
  178SLPC   C3120290   1.772   2.751  10.643 -0.4222 -0.2364 -0.0549
  178SLPC   O3220291   1.837   2.794  10.739 -0.0487 -0.5053 -0.6818
  178SLPC   C3220292   1.841   2.655  10.545  0.4842 -0.4723 -0.2561
  178SLPC   H2X20293   1.778   2.563  10.537  0.6565 -0.4559 -3.0763
  178SLPC   H2Y20294   1.937   2.610  10.578  1.6548  0.2939 -2.3977
  178SLPC   C2320295   1.525   2.978  10.316  0.2139 -0.5230  0.1866
  178SLPC   H3R20296   1.428   2.962  10.264  0.4750  0.0906 -0.5063
  178SLPC   H3S20297   1.554   2.883  10.365  0.5506  0.9295  3.0280
  178SLPC   C2420298   1.625   3.044  10.218  0.0279  0.7279 -0.6644
  178SLPC   H4R20299   1.715   3.056  10.282 -1.6505  1.0452  1.8113
  178SLPC   H4S20300   1.590   3.142  10.179  0.5613  0.1897 -2.5660
  178SLPC   C2520301   1.661   2.950  10.092 -0.3130 -0.7544  0.0905
  178SLPC   H5R20302   1.694   2.845  10.109 -2.0641 -1.4376 -0.5319
  178SLPC   H5S20303   1.751   2.994  10.043 -1.2401 -0.2573 -1.2186
  178SLPC   C2620304   1.555   2.958   9.985  0.4203  0.8849  0.4009
  178SLPC   H6R20305   1.521   3.062   9.968 -0.0601  0.6316 -0.2223
  178SLPC   H6S20306   1.472   2.891  10.017  1.2663 -0.6521 -0.4773
  178SLPC   C2720307   1.607   2.892   9.852  0.5403  0.1203  0.3589
  178SLPC   H7R20308   1.519   2.883   9.786 -0.3653  0.6662  1.4536
  178SLPC   H7S20309   1.647   2.792   9.879  0.8023 -0.4392 -1.9281
  178SLPC   C2820310   1.712   2.971   9.778 -0.3406 -0.2067  0.3772
  178SLPC   H8R20311   1.801   2.988   9.842 -0.9152 -0.8065  1.3550
  178SLPC   H8S20312   1.656   3.064   9.755 -0.6714 -0.9267 -2.1344
  178SLPC   C2920313   1.758   2.905   9.645  0.3776  1.1788  0.2339
  178SLPC   H9R20314   1.693   2.822   9.614  0.4853  0.9772  0.5461
  178SLPC  C21020315   1.834   2.960   9.547 -0.4074 -0.0782 -0.3343
  178SLPC  H10R20316   1.841   2.913   9.448 -1.6868  1.8070 -1.3869
  178SLPC  C21120317   1.888   3.097   9.566  0.1003 -0.4308  0.1210
  178SLPC  H11R20318   1.998   3.102   9.548 -0.0774  1.5461 -0.6887
  178SLPC  H11S20319   1.882   3.124   9.673  0.5788  0.9426 -0.1726
  178SLPC  C21220320   1.821   3.201   9.478  0.0544 -0.3599  0.0000
  178SLPC  H12R20321   1.715   3.216   9.501  0.4989  0.7208  1.4996
  178SLPC  C21320322   1.879   3.277   9.380 -0.0289  0.1135 -0.2599
  178SLPC  H13R20323   1.815   3.340   9.317 -0.2516 -0.1758 -0.3252
  178SLPC  C21420324   2.023   3.277   9.344 -0.1547  0.4841  0.3446
  178SLPC  H14R20325   2.067   3.179   9.371 -2.3094  0.0149  2.5232
  178SLPC  H14S20326   2.072   3.366   9.387 -1.9840  0.9010  1.7248
  178SLPC  C21520327   2.039   3.308   9.184  0.1609  0.1936 -0.0518
  178SLPC  H15R20328   1.968   3.383   9.144  1.0979  1.1153 -0.0437
  178SLPC  H15S20329   2.023   3.212   9.130  1.5785 -0.7859  1.1737
  178SLPC  C21620330   2.176   3.373   9.140  0.2469  0.1265 -0.3342
  178SLPC  H16R20331   2.189   3.375   9.030  0.1920  0.2991 -0.3370
  178SLPC  H16S20332   2.261   3.312   9.178  0.0935 -0.6006 -1.1162
  178SLPC  C21720333   2.198   3.526   9.177 -0.1075  0.1070 -0.3025
  178SLPC  H17R20334   2.215   3.535   9.286 -1.7014 -0.2505  0.0074
  178SLPC  H17S20335   2.103   3.583   9.171 -0.9854 -1.2847  0.0059
  178SLPC  C21820336   2.298   3.605   9.098  0.1135  0.1449  0.1731
  178SLPC  H18R20337   2.288   3.712   9.129 -2.0876  0.0048  0.1483
  178SLPC  H18S20338   2.299   3.590   8.988  0.5056 -1.2137  0.3509
  178SLPC  H18T20339   2.396   3.567   9.132  0.2874 -0.9618 -1.4429
  178SLPC   C3320340   1.841   2.723  10.413  0.1193  0.1877 -0.2644
  178SLPC   H3X20341   1.918   2.803  10.421 -0.4306  0.6724  0.3055
  178SLPC   H3Y20342   1.748   2.777  10.388  1.6246  3.4621  0.5765
  178SLPC   C3420343   1.874   2.624  10.301 -0.1972 -0.0890  0.3078
  178SLPC   H4X20344   1.953   2.549  10.321 -1.3248 -1.8137 -1.3231
  178SLPC   H4Y20345   1.901   2.684  10.211 -0.1382 -1.9637 -1.0008
  178SLPC   C3520346   1.762   2.537  10.254  0.0048 -0.3819  0.3700
  178SLPC   H5X20347   1.674   2.599  10.228  0.5735  1.0127  1.6151
  178SLPC   H5Y20348   1.725   2.465  10.330  1.1293 -0.9020  0.4475
  178SLPC   C3620349   1.799   2.464  10.122  0.1809 -0.4578 -0.9714
  178SLPC   H6X20350   1.739   2.370  10.120  0.9412 -0.9691 -0.3425
  178SLPC   H6Y20351   1.905   2.435  10.138 -0.4571 -1.2512  2.4842
  178SLPC   C3720352   1.786   2.551  10.000 -0.4641 -0.6748 -0.5012
  178SLPC   H7X20353   1.856   2.637  10.012 -1.0624 -0.2344 -0.1278
  178SLPC   H7Y20354   1.684   2.595   9.998 -0.7002 -1.0719  1.0784
  178SLPC   C3820355   1.823   2.469   9.874 -0.0558 -0.8175  0.1364
  178SLPC   H8X20356   1.756   2.383   9.856 -1.8207  1.0544 -3.3719
  178SLPC   H8Y20357   1.928   2.431   9.881  0.5818  1.1076  2.5618
  178SLPC   C3920358   1.804   2.537   9.746  0.6925 -0.1388 -0.4720
  178SLPC   H9X20359   1.844   2.640   9.753  1.6376 -0.5991  1.5716
  178SLPC   H9Y20360   1.696   2.562   9.732  0.7967  1.4052  1.0905
  178SLPC  C31020361   1.852   2.480   9.612  0.1237  0.4852  0.2227
  178SLPC  H10X20362   1.763   2.421   9.582  0.0182 -0.7067  2.6861
  178SLPC  H10Y20363   1.946   2.422   9.622 -0.2331 -0.0579  0.4600
  178SLPC  C31120364   1.870   2.583   9.505  0.0178  0.0516 -0.5577
  178SLPC  H11X20365   1.973   2.624   9.502 -0.7800  2.1913 -0.2368
  178SLPC  H11Y20366   1.812   2.671   9.541  2.1608  1.0580  0.5872
  178SLPC  C31220367   1.821   2.547   9.358  0.2589  0.0925 -0.8923
  178SLPC  H12X20368   1.726   2.604   9.341  0.5220  1.8646  2.7062
  178SLPC  H12Y20369   1.806   2.437   9.349  1.5558 -0.1355 -0.4294
  178SLPC  C31320370   1.919   2.588   9.248  0.1452  0.6082 -0.3493
  178SLPC  H13X20371   2.017   2.537   9.260  0.3812  0.4482 -2.5337
  178SLPC  H13Y20372   1.938   2.698   9.255 -0.2654  0.8268 -2.1506
  178SLPC  C31420373   1.856   2.563   9.109 -0.2385  0.2267 -0.3573
  178SLPC  H14X20374   1.758   2.614   9.103 -0.1504  0.2034 -2.9622
  178SLPC  H14Y20375   1.842   2.455   9.088 -0.2474 -0.0056  0.7937
  178SLPC  C31520376   1.940   2.596   8.985  0.7445  0.3172 -0.4689
  178SLPC  H15X20377   1.873   2.605   8.897  3.1027  2.2144 -2.2141
  178SLPC  H15Y20378   1.986   2.696   8.996  0.6209  0.4024 -0.7290
  178SLPC  C31620379   2.048   2.493   8.955  0.0034  0.4374  0.4595
  178SLPC  H16X20380   2.014   2.388   8.954  1.1001  0.0331  1.9276
  178SLPC  H16Y20381   2.104   2.473   9.049 -1.6776 -0.0247  1.3901
  178SLPC  C31720382   2.126   2.525   8.826 -0.3305  0.4482  0.1984
  178SLPC  H17X20383   2.169   2.626   8.835 -0.4544  0.4391  0.8995
  178SLPC  H17Y20384   2.058   2.531   8.738 -0.2725 -0.4656  0.0768
  178SLPC  C31820385   2.245   2.433   8.815 -0.5021 -0.2941 -0.0900
  178SLPC  H18X20386   2.307   2.434   8.908 -0.3810 -0.1935 -0.1724
  178SLPC  H18Y20387   2.316   2.460   8.734 -2.1393  0.6990 -1.2259
  178SLPC  H18Z20388   2.210   2.329   8.799 -0.6818 -0.5153  1.5312
  179SLPC     N20389   4.518   1.007  10.483  0.6761  0.1772 -0.1408
  179SLPC   C1320390   4.420   0.971  10.592 -0.4517 -0.4911 -0.5975
  179SLPC  H13A20391   4.337   0.909  10.562 -0.9244  0.0935 -0.4913
  179SLPC  H13B20392   4.476   0.918  10.668 -0.2649  2.2307  1.3190
  179SLPC  H13C20393   4.384   1.063  10.633 -2.0534 -1.5528  0.4704
  179SLPC   C1420394   4.451   1.110  10.395 -0.3572 -1.2263  0.5949
  179SLPC  H14A20395   4.411   1.197  10.446 -0.5115  0.0086 -1.4926
  179SLPC  H14B20396   4.518   1.135  10.313 -1.1919  0.3722  0.3505
  179SLPC  H14C20397   4.374   1.070  10.331  1.2036 -2.2167 -0.7424
  179SLPC   C1520398   4.547   0.888  10.398  0.4115 -0.5500 -0.2030
  179SLPC  H15A20399   4.605   0.819  10.458 -2.3129 -1.0296  2.0512
  179SLPC  H15B20400   4.458   0.830  10.378  0.6030 -1.1294  0.5644
  179SLPC  H15C20401   4.609   0.919  10.315  3.9650 -1.8734  1.7066
  179SLPC   C1220402   4.642   1.067  10.548  0.2920 -0.4971 -0.4576
  179SLPC  H12A20403   4.612   1.150  10.611  2.2045  0.7844 -1.1138
  179SLPC  H12B20404   4.699   1.106  10.464 -0.4023 -0.5726 -0.9703
  179SLPC   C1120405   4.729   0.967  10.623  0.7699  0.0405 -1.2555
  179SLPC  H11A20406   4.666   0.893  10.677  0.3147  2.3647  1.6735
  179SLPC  H11B20407   4.800   1.022  10.688  0.3893 -0.7749 -0.1238
  179SLPC     P20408   4.854   0.755  10.549 -0.3658  0.0803 -0.0292
  179SLPC   O1320409   4.869   0.724  10.693 -0.6888  0.3715 -0.2949
  179SLPC   O1420410   4.749   0.671  10.486 -0.2759 -0.6039  0.4441
  179SLPC   O1220411   4.820   0.907  10.534 -0.7621 -0.3767 -0.2053
  179SLPC   O1120412   4.990   0.742  10.470 -0.1363  0.3664  0.1539
  179SLPC    C120413   5.026   0.856  10.389 -0.1730  0.0823 -0.7614
  179SLPC    HA20414   5.018   0.955  10.438  2.7491  1.9473 -3.6346
  179SLPC    HB20415   5.134   0.845  10.366  0.0431 -1.4129  0.7892
  179SLPC    C220416   4.956   0.871  10.255  0.1367  0.1482  0.8172
  179SLPC    HS20417   4.848   0.871  10.282 -0.1493 -0.1308 -0.2550
  179SLPC   O2120418   5.002   0.753  10.180 -0.4179 -0.0021  0.5662
  179SLPC   C2120419   4.902   0.698  10.113 -0.5461  0.4773  0.4301
  179SLPC   O2220420   4.783   0.715  10.129 -0.7718  0.1012  0.2093
  179SLPC   C2220421   4.953   0.588  10.020 -0.7439  0.1369 -0.1490
  179SLPC   H2R20422   5.039   0.543  10.075 -0.3999  1.2389  0.2386
  179SLPC   H2S20423   4.866   0.521  10.008 -2.1515  1.3947  2.2051
  179SLPC    C320424   4.991   1.000  10.175 -0.8212 -0.2881 -0.2876
  179SLPC    HX20425   5.096   0.999  10.137 -0.2297 -1.9015  1.2523
  179SLPC    HY20426   4.971   1.081  10.248  0.3757 -0.6535  0.4747
  179SLPC   O3120427   4.910   1.012  10.062  0.2509 -0.0435 -0.9283
  179SLPC   C3120428   4.786   1.057  10.087  0.9921 -0.3567  0.3521
  179SLPC   O3220429   4.738   1.080  10.195 -0.3293  0.3724  0.0337
  179SLPC   C3220430   4.706   1.065   9.953  0.0043  0.6390  0.5076
  179SLPC   H2X20431   4.627   1.143   9.959 -0.4260  0.5099 -2.1057
  179SLPC   H2Y20432   4.661   0.964   9.938  1.6771 -0.1191  0.4053
  179SLPC   C2320433   4.999   0.630   9.875 -0.1083  0.2380 -0.5138
  179SLPC   H3R20434   5.053   0.547   9.824  0.4511  0.0353  0.3880
  179SLPC   H3S20435   5.086   0.698   9.881  2.7269 -3.2704  2.2565
  179SLPC   C2420436   4.891   0.682   9.787  0.1498  0.1937  0.9467
  179SLPC   H4R20437   4.842   0.774   9.824  0.1198  0.0446  1.2776
  179SLPC   H4S20438   4.817   0.600   9.789 -0.1729  0.4941  2.4521
  179SLPC   C2520439   4.932   0.721   9.644  0.2848 -0.8210 -0.6699
  179SLPC   H5R20440   4.967   0.634   9.584  3.0831 -0.2155 -0.0587
  179SLPC   H5S20441   5.010   0.800   9.638  0.5426 -1.1949 -4.2690
  179SLPC   C2620442   4.818   0.779   9.556 -0.1688  0.0051 -0.5113
  179SLPC   H6R20443   4.783   0.872   9.606  0.5569 -0.2474  0.4866
  179SLPC   H6S20444   4.734   0.707   9.545 -0.5234  0.5189 -1.2198
  179SLPC   C2720445   4.877   0.817   9.417  0.6058  0.0985  0.1720
  179SLPC   H7R20446   4.921   0.728   9.368 -0.6928  0.2717 -1.3899
  179SLPC   H7S20447   4.968   0.879   9.426  0.6753 -0.0159  0.2535
  179SLPC   C2820448   4.769   0.888   9.334  0.0498  0.1517  0.6880
  179SLPC   H8R20449   4.719   0.956   9.406  0.3536  0.7288  0.3609
  179SLPC   H8S20450   4.696   0.814   9.294  0.5711  0.1091 -0.2034
  179SLPC   C2920451   4.820   0.963   9.217 -0.1063  0.2643  1.0006
  179SLPC   H9R20452   4.834   1.072   9.224 -1.9984  0.5699  0.6800
  179SLPC  C21020453   4.824   0.919   9.087 -0.2387 -0.3560 -0.2972
  179SLPC  H10R20454   4.847   0.998   9.013 -2.2608  2.6052  1.9987
  179SLPC  C21120455   4.799   0.786   9.022  0.2789 -0.0163 -0.4744
  179SLPC  H11R20456   4.745   0.710   9.082  0.1962 -1.3752 -2.1856
  179SLPC  H11S20457   4.900   0.746   9.002  0.7016  0.8423 -0.1082
  179SLPC  C21220458   4.743   0.804   8.887 -0.4615 -0.4640 -0.1377
  179SLPC  H12R20459   4.714   0.908   8.865  0.2484 -0.5346 -1.4977
  179SLPC  C21320460   4.696   0.713   8.805  0.4355 -0.0421  0.8550
  179SLPC  H13R20461   4.676   0.741   8.700 -0.0044  2.1170  1.4732
  179SLPC  C21420462   4.690   0.567   8.831  0.1120  0.8199 -0.5684
  179SLPC  H14R20463   4.587   0.531   8.812  0.4190 -0.5780  0.2895
  179SLPC  H14S20464   4.696   0.541   8.939 -1.6712 -2.2689 -1.0992
  179SLPC  C21520465   4.789   0.473   8.750  0.3791  0.0997  0.0275
  179SLPC  H15R20466   4.783   0.367   8.781 -0.4275 -0.0564 -0.6286
  179SLPC  H15S20467   4.889   0.493   8.795  0.2472 -0.5112  0.6144
  179SLPC  C21620468   4.765   0.479   8.599 -0.1234 -0.4196  0.2887
  179SLPC  H16R20469   4.776   0.586   8.573  2.0585 -0.0776  2.3428
  179SLPC  H16S20470   4.659   0.448   8.583  0.0622 -2.2327  2.2056
  179SLPC  C21720471   4.851   0.385   8.522  0.9641  0.2677  0.6754
  179SLPC  H17R20472   4.841   0.284   8.568  2.2642 -0.6024 -0.8410
  179SLPC  H17S20473   4.955   0.422   8.518  0.0515  3.0187 -3.1373
  179SLPC  C21820474   4.814   0.367   8.371 -0.1484 -0.3352 -0.7209
  179SLPC  H18R20475   4.808   0.466   8.321  0.6862  0.3426  0.4711
  179SLPC  H18S20476   4.713   0.320   8.370 -0.3644  0.0238  0.7390
  179SLPC  H18T20477   4.883   0.308   8.308  0.3904  1.7009 -2.1219
  179SLPC   C3320478   4.787   1.089   9.828  0.1075  0.0605 -0.1307
  179SLPC   H3X20479   4.840   1.002   9.783  1.1945  1.4932 -1.7699
  179SLPC   H3Y20480   4.860   1.172   9.843 -0.6520  1.1645 -2.1396
  179SLPC   C3420481   4.690   1.129   9.716 -0.5593 -0.1238  0.7393
  179SLPC   H4X20482   4.637   1.214   9.764  0.4661  0.1411  1.4122
  179SLPC   H4Y20483   4.625   1.041   9.696 -0.2444 -0.7964  2.5689
  179SLPC   C3520484   4.767   1.185   9.592 -0.5565  0.1497 -0.5155
  179SLPC   H5X20485   4.839   1.113   9.549  1.1539  1.9967 -0.8702
  179SLPC   H5Y20486   4.828   1.270   9.629 -1.9327  0.7561  0.4463
  179SLPC   C3620487   4.671   1.237   9.475 -0.5050  0.2711 -1.1983
  179SLPC   H6X20488   4.603   1.314   9.516 -0.6998  0.4602 -1.8519
  179SLPC   H6Y20489   4.616   1.147   9.438 -1.7881  1.5555 -2.5749
  179SLPC   C3720490   4.761   1.308   9.367  0.2043 -1.0130 -0.3669
  179SLPC   H7X20491   4.850   1.243   9.352  0.5354 -0.5200 -0.5947
  179SLPC   H7Y20492   4.788   1.401   9.421 -3.0558 -1.6131  2.6241
  179SLPC   C3820493   4.693   1.332   9.231 -0.5543  0.6571  0.1055
  179SLPC   H8X20494   4.652   1.435   9.239 -1.7932  0.3310 -1.5366
  179SLPC   H8Y20495   4.613   1.255   9.218 -2.6407  2.9741 -1.8991
  179SLPC   C3920496   4.789   1.336   9.112 -0.5236 -0.4039  0.1570
  179SLPC   H9X20497   4.823   1.233   9.089  2.8346  1.0269 -1.9873
  179SLPC   H9Y20498   4.888   1.384   9.127  0.0685 -1.5600  0.0149
  179SLPC  C31020499   4.705   1.372   8.983  0.0259  0.1512 -0.8840
  179SLPC  H10X20500   4.704   1.483   8.972 -2.2862  0.2941  0.1312
  179SLPC  H10Y20501   4.602   1.331   8.989 -0.4610  1.3476 -0.7692
  179SLPC  C31120502   4.757   1.299   8.859 -0.8004 -0.3179  0.6305
  179SLPC  H11X20503   4.748   1.189   8.868 -0.1989 -0.3805  0.5320
  179SLPC  H11Y20504   4.866   1.322   8.853  0.3457 -4.8991  0.4632
  179SLPC  C31220505   4.682   1.352   8.733 -0.3036  0.7709  0.1639
  179SLPC  H12X20506   4.677   1.462   8.737 -0.6791  0.7447  0.4752
  179SLPC  H12Y20507   4.574   1.327   8.733 -0.0166 -0.5575 -0.2825
  179SLPC  C31320508   4.744   1.309   8.601 -0.8890  0.3453 -0.0491
  179SLPC  H13X20509   4.854   1.312   8.618 -0.9172 -0.8580  0.4832
  179SLPC  H13Y20510   4.710   1.377   8.520  0.5794 -0.6760 -1.5861
  179SLPC  C31420511   4.708   1.164   8.571  0.2526  0.0502  0.0669
  179SLPC  H14X20512   4.597   1.154   8.576  0.3032 -0.3567  0.4571
  179SLPC  H14Y20513   4.752   1.087   8.638 -0.3034 -2.1613 -2.0002
  179SLPC  C31520514   4.739   1.110   8.429 -0.0135 -0.4394 -0.2907
  179SLPC  H15X20515   4.850   1.116   8.424 -0.0094 -1.3788 -2.1295
  179SLPC  H15Y20516   4.711   1.172   8.341  0.9282  0.5763  0.1069
  179SLPC  C31620517   4.694   0.966   8.434 -0.2155 -0.2112  0.0904
  179SLPC  H16X20518   4.585   0.966   8.457  0.0058  1.8644  1.3983
  179SLPC  H16Y20519   4.738   0.910   8.520 -1.6656 -0.3030  0.8129
  179SLPC  C31720520   4.699   0.888   8.307  0.0854  0.4187 -0.4742
  179SLPC  H17X20521   4.806   0.883   8.279  0.7287  1.6451  1.4695
  179SLPC  H17Y20522   4.650   0.942   8.223  1.0167  2.8167  0.4140
  179SLPC  C31820523   4.646   0.741   8.298 -0.3255  0.6249  0.4622
  179SLPC  H18X20524   4.681   0.688   8.390 -1.2944  2.4461  1.9613
  179SLPC  H18Y20525   4.682   0.687   8.208  1.9893 -0.2362  1.8148
  179SLPC  H18Z20526   4.535   0.740   8.303 -0.3536 -0.6375  0.0152
  180SLPC     N20527   4.535   5.567  10.794  1.0441  0.0154 -0.5320
  180SLPC   C1320528   4.551   5.553  10.643 -0.5592  0.0631 -0.0936
  180SLPC  H13A20529   4.639   5.611  10.619  1.4801 -2.8614 -0.1629
  180SLPC  H13B20530   4.584   5.454  10.616 -0.5892  0.3245 -1.1103
  180SLPC  H13C20531   4.472   5.587  10.578  0.5871  0.5919 -1.2570
  180SLPC   C1420532   4.405   5.490  10.832 -0.1402 -0.6362 -0.0371
  180SLPC  H14A20533   4.317   5.530  10.784 -1.6280 -0.3192  2.7135
  180SLPC  H14B20534   4.408   5.387  10.800 -0.2527 -1.1081  1.4049
  180SLPC  H14C20535   4.392   5.498  10.939  2.2271  0.8079  0.2162
  180SLPC   C1520536   4.516   5.713  10.821 -0.5405  0.1860  0.0673
  180SLPC  H15A20537   4.426   5.746  10.771  0.4512  0.6672 -1.4906
  180SLPC  H15B20538   4.500   5.733  10.926 -1.8445  2.2945 -0.4655
  180SLPC  H15C20539   4.606   5.763  10.789 -0.1985 -0.4915 -0.0414
  180SLPC   C1220540   4.660   5.523  10.869 -0.4005  0.1671  0.2447
  180SLPC  H12A20541   4.633   5.543  10.972 -1.5099 -0.7067  0.1365
  180SLPC  H12B20542   4.743   5.583  10.835  0.2980 -1.1808 -0.4978
  180SLPC   C1120543   4.719   5.381  10.850 -0.5564 -0.3297  0.2208
  180SLPC  H11A20544   4.644   5.302  10.872 -0.7753 -0.5577 -1.2131
  180SLPC  H11B20545   4.804   5.362  10.919 -0.4196 -1.1831 -0.1578
  180SLPC     P20546   4.912   5.415  10.668  0.2822  0.0025 -0.0224
  180SLPC   O1320547   4.914   5.559  10.633  1.1196  0.0651 -1.0041
  180SLPC   O1420548   5.008   5.368  10.771  0.7601  0.3346 -0.4090
  180SLPC   O1220549   4.762   5.373  10.711 -0.2347 -0.1400 -0.1023
  180SLPC   O1120550   4.933   5.340  10.537  0.5620  0.3942 -0.0005
  180SLPC    C120551   4.891   5.207  10.521 -0.1935  0.2132  0.1022
  180SLPC    HA20552   4.941   5.141  10.595  0.8744  0.1477 -0.6608
  180SLPC    HB20553   4.781   5.203  10.532 -0.1546  1.6848  1.5176
  180SLPC    C220554   4.941   5.168  10.385  0.7299 -0.6602  0.6438
  180SLPC    HS20555   5.052   5.174  10.388  0.8029 -1.1931 -0.4594
  180SLPC   O2120556   4.885   5.270  10.297  0.6014  0.3464  0.0345
  180SLPC   C2120557   4.950   5.276  10.181  0.0028 -0.3634 -0.0460
  180SLPC   O2220558   5.057   5.230  10.153 -0.6728 -0.4364 -0.0384
  180SLPC   C2220559   4.857   5.345  10.079  0.0084 -0.3187 -0.8466
  180SLPC   H2R20560   4.751   5.316  10.095 -0.6756  0.8350 -2.8092
  180SLPC   H2S20561   4.861   5.454  10.104  0.5026 -0.8964  1.8971
  180SLPC    C320562   4.888   5.028  10.349  0.1143 -0.1440  0.6338
  180SLPC    HX20563   4.780   5.040  10.325 -0.4837 -3.1739  1.4084
  180SLPC    HY20564   4.889   4.972  10.444 -1.4728 -0.9376  0.2250
  180SLPC   O3120565   4.957   4.960  10.247 -0.3307  0.5264  0.5759
  180SLPC   C3120566   5.088   4.931  10.266 -0.1298  0.4219  0.3982
  180SLPC   O3220567   5.158   4.957  10.362  0.0855  0.3868 -0.0271
  180SLPC   C3220568   5.140   4.860  10.135  0.9204 -0.1716 -0.7810
  180SLPC   H2X20569   5.184   4.759  10.152  0.4927 -0.4585 -1.3632
  180SLPC   H2Y20570   5.212   4.937  10.098  0.8804  0.0712 -0.3585
  180SLPC   C2320571   4.917   5.339   9.943 -0.4956  0.0263 -0.2559
  180SLPC   H3R20572   4.938   5.233   9.918 -3.4134 -0.6229 -0.2640
  180SLPC   H3S20573   5.004   5.407   9.928 -0.9937  0.2019 -2.8674
  180SLPC   C2420574   4.811   5.379   9.841  0.0632 -0.8338 -0.3978
  180SLPC   H4R20575   4.788   5.487   9.836 -0.8972 -0.8731  2.0917
  180SLPC   H4S20576   4.718   5.331   9.879 -0.2401 -0.8561 -1.1445
  180SLPC   C2520577   4.838   5.334   9.700  0.0555 -0.0494  0.6614
  180SLPC   H5R20578   4.860   5.226   9.695 -1.6950 -0.4003 -2.7343
  180SLPC   H5S20579   4.931   5.377   9.657  0.3903  1.0927  2.4426
  180SLPC   C2620580   4.720   5.375   9.611 -0.0671  0.0933  0.4969
  180SLPC   H6R20581   4.707   5.485   9.612 -0.0281  0.0944  1.0910
  180SLPC   H6S20582   4.623   5.330   9.643 -0.3420 -0.1640 -0.6391
  180SLPC   C2720583   4.740   5.324   9.468 -0.1488 -0.0584  0.7623
  180SLPC   H7R20584   4.653   5.329   9.398 -0.3510 -2.9689  0.7070
  180SLPC   H7S20585   4.768   5.217   9.470 -0.5252 -0.2041 -0.7029
  180SLPC   C2820586   4.862   5.387   9.395  0.0976 -0.5209 -0.6373
  180SLPC   H8R20587   4.863   5.341   9.294  0.4284  0.4640 -1.0907
  180SLPC   H8S20588   4.953   5.348   9.445 -0.3915 -0.4658  0.3143
  180SLPC   C2920589   4.864   5.534   9.373  0.0441 -0.2916  0.1889
  180SLPC   H9R20590   4.847   5.590   9.466 -1.7942 -0.1590 -0.1865
  180SLPC  C21020591   4.905   5.600   9.260 -0.0332 -0.3538 -0.8495
  180SLPC  H10R20592   4.894   5.710   9.264  2.1870 -0.1021  2.2265
  180SLPC  C21120593   4.958   5.551   9.131  0.3151  0.2679  0.5681
  180SLPC  H11R20594   4.948   5.634   9.059  1.1155 -0.3089 -0.2238
  180SLPC  H11S20595   4.889   5.470   9.097 -1.5674  1.3527  1.6132
  180SLPC  C21220596   5.098   5.488   9.125 -0.1435  0.5193 -0.5772
  180SLPC  H12R20597   5.107   5.382   9.098 -0.0956  0.3427  0.1066
  180SLPC  C21320598   5.215   5.553   9.153 -0.1079  0.0547  0.1937
  180SLPC  H13R20599   5.308   5.495   9.148 -0.1573 -0.0107  0.0462
  180SLPC  C21420600   5.225   5.697   9.190  0.7435 -0.4826 -0.7216
  180SLPC  H14R20601   5.135   5.762   9.181  1.0257  0.0930  0.4448
  180SLPC  H14S20602   5.307   5.754   9.141 -0.0945  1.4625  0.0289
  180SLPC  C21520603   5.267   5.717   9.343  0.1586 -0.0578  0.5385
  180SLPC  H15R20604   5.193   5.667   9.410  1.4205 -1.4803  0.9171
  180SLPC  H15S20605   5.264   5.825   9.367  1.0414  0.3517 -1.0109
  180SLPC  C21620606   5.414   5.660   9.370  0.2175 -0.1688 -0.5921
  180SLPC  H16R20607   5.480   5.722   9.306 -0.4175  0.2513 -0.8440
  180SLPC  H16S20608   5.416   5.551   9.352  0.4913 -0.1677 -0.5727
  180SLPC  C21720609   5.468   5.686   9.511 -0.3982  0.1169 -0.1549
  180SLPC  H17R20610   5.396   5.639   9.581 -3.2169  1.3365 -2.0816
  180SLPC  H17S20611   5.457   5.792   9.542 -0.3162  0.1772 -0.3293
  180SLPC  C21820612   5.612   5.625   9.535 -0.1240  0.3960  1.2251
  180SLPC  H18R20613   5.686   5.673   9.467  1.1582 -0.8842  1.6672
  180SLPC  H18S20614   5.624   5.517   9.513 -1.3825  0.6511 -1.0142
  180SLPC  H18T20615   5.646   5.629   9.641  0.0959 -0.2257  1.1818
  180SLPC   C3320616   5.041   4.846  10.011  0.4230  1.1563 -0.2375
  180SLPC   H3X20617   5.010   4.945   9.971 -1.5190  0.4588 -0.5420
  180SLPC   H3Y20618   4.944   4.809  10.050 -0.3963  3.7122  0.3536
  180SLPC   C3420619   5.109   4.756   9.905  0.5449  0.1412 -0.0323
  180SLPC   H4X20620   5.135   4.657   9.948  0.5772 -0.6368 -1.7655
  180SLPC   H4Y20621   5.200   4.802   9.861  0.1291 -1.0312 -2.2445
  180SLPC   C3520622   5.012   4.717   9.787  0.4414  0.3851 -0.1761
  180SLPC   H5X20623   4.928   4.789   9.777 -1.5270 -1.6898  0.5627
  180SLPC   H5Y20624   4.960   4.625   9.821  0.1135 -0.0137 -1.6449
  180SLPC   C3620625   5.076   4.685   9.651  0.1942 -0.1059  0.2908
  180SLPC   H6X20626   5.164   4.619   9.663 -1.7603 -2.6731  1.6204
  180SLPC   H6Y20627   5.100   4.785   9.609  1.1138  0.3616  1.8275
  180SLPC   C3720628   4.983   4.604   9.561 -1.0550 -0.2227  0.1112
  180SLPC   H7X20629   4.890   4.665   9.561 -1.4686 -0.8284 -1.0002
  180SLPC   H7Y20630   4.962   4.498   9.588 -0.8543 -0.3503 -0.2346
  180SLPC   C3820631   5.029   4.595   9.415 -0.5184  0.6139  0.8672
  180SLPC   H8X20632   5.113   4.523   9.411 -0.7470  0.4101 -1.0594
  180SLPC   H8Y20633   5.070   4.687   9.368 -1.8452  0.9132  0.2481
  180SLPC   C3920634   4.909   4.552   9.329 -0.3553 -0.2873 -0.3276
  180SLPC   H9X20635   4.819   4.609   9.362  1.0280  1.0248  1.3691
  180SLPC   H9Y20636   4.884   4.448   9.358 -0.0840 -0.2728 -0.0352
  180SLPC  C31020637   4.934   4.562   9.178 -0.1570 -0.1235 -0.0053
  180SLPC  H10X20638   5.039   4.529   9.162 -1.0300 -2.4804 -1.4040
  180SLPC  H10Y20639   4.917   4.664   9.137  0.9013  0.3907  0.7774
  180SLPC  C31120640   4.846   4.465   9.098  0.1031 -0.2662  0.6453
  180SLPC  H11X20641   4.743   4.505   9.101  0.3687  0.5278 -0.2623
  180SLPC  H11Y20642   4.856   4.367   9.150 -0.5746  1.7410  5.0054
  180SLPC  C31220643   4.886   4.464   8.947  0.3741 -0.4558 -0.0997
  180SLPC  H12X20644   4.987   4.419   8.946  0.3051 -0.6168  0.0631
  180SLPC  H12Y20645   4.897   4.568   8.911  0.9532 -0.5523 -0.2074
  180SLPC  C31320646   4.795   4.374   8.870  0.3694 -0.5972 -0.2622
  180SLPC  H13X20647   4.686   4.391   8.864  0.5356  0.6058 -0.0696
  180SLPC  H13Y20648   4.805   4.274   8.918 -0.2088 -0.5126  0.0324
  180SLPC  C31420649   4.837   4.346   8.721  0.2801 -1.0880 -0.4804
  180SLPC  H14X20650   4.946   4.328   8.714  0.3412 -1.1514  0.4662
  180SLPC  H14Y20651   4.815   4.439   8.663 -1.3312 -0.8813  0.3955
  180SLPC  C31520652   4.755   4.235   8.658 -0.1845 -0.3808  0.4823
  180SLPC  H15X20653   4.649   4.240   8.691 -0.7116  0.2562 -1.2018
  180SLPC  H15Y20654   4.797   4.139   8.696  0.9292  0.5621  1.6998
  180SLPC  C31620655   4.764   4.231   8.505 -0.4561  0.6306  0.0591
  180SLPC  H16X20656   4.861   4.202   8.461 -0.8304  0.9416 -1.0056
  180SLPC  H16Y20657   4.749   4.337   8.473  1.0940  0.0387 -2.9556
  180SLPC  C31720658   4.657   4.141   8.448  0.0555  0.6290  0.5538
  180SLPC  H17X20659   4.616   4.203   8.365 -1.6181  1.3433  1.8643
  180SLPC  H17Y20660   4.580   4.115   8.524 -0.6335 -0.3751 -0.4559
  180SLPC  C31820661   4.701   3.997   8.407 -0.5984  0.0671  0.7123
  180SLPC  H18X20662   4.804   4.000   8.365  0.4365 -1.5973  2.9169
  180SLPC  H18Y20663   4.636   3.951   8.330  1.1417 -1.7192  0.2392
  180SLPC  H18Z20664   4.712   3.933   8.497 -1.0368 -0.8053  0.1591
  181SLPC     N20665   1.476   0.974  11.073 -0.3690 -0.6871  0.2269
  181SLPC   C1320666   1.448   0.840  11.126  0.1492  0.3147 -0.0761
  181SLPC  H13A20667   1.474   0.759  11.058  0.0137 -0.6046  0.9354
  181SLPC  H13B20668   1.503   0.825  11.218  0.8889 -0.5774 -0.6342
  181SLPC  H13C20669   1.344   0.835  11.153  0.1171  0.4713 -0.1677
  181SLPC   C1420670   1.624   0.970  11.042  0.1390  0.3005 -0.7403
  181SLPC  H14A20671   1.649   0.898  10.966  1.6994  0.0075 -0.0004
  181SLPC  H14B20672   1.658   1.066  11.007  0.7379 -0.5419 -2.5616
  181SLPC  H14C20673   1.672   0.939  11.134 -1.5538  1.1415  0.4858
  181SLPC   C1520674   1.451   1.077  11.184 -0.3858 -0.3958 -0.6841
  181SLPC  H15A20675   1.347   1.060  11.208 -0.2316  0.2191  0.5120
  181SLPC  H15B20676   1.522   1.057  11.262 -0.0699 -1.4343 -1.2252
  181SLPC  H15C20677   1.460   1.178  11.145  3.9372 -0.4755 -0.2863
  181SLPC   C1220678   1.383   1.007  10.952  0.4272  0.8857  0.3224
  181SLPC  H12A20679   1.282   1.012  10.988  0.4820  0.1254  0.6135
  181SLPC  H12B20680   1.392   0.929  10.878 -0.8188  1.6165 -0.6122
  181SLPC   C1120681   1.414   1.139  10.871  0.3821 -0.3474  0.1982
  181SLPC  H11A20682   1.356   1.138  10.777  1.1582  0.7332 -0.3123
  181SLPC  H11B20683   1.518   1.128  10.833  0.7859  0.4767  1.0321
  181SLPC     P20684   1.253   1.309  10.976 -0.3658 -0.1358 -0.2048
  181SLPC   O1320685   1.152   1.200  11.004 -0.1633  0.0360  0.1351
  181SLPC   O1420686   1.257   1.422  11.071  0.5120  0.2396 -0.1274
  181SLPC   O1220687   1.396   1.250  10.956  0.3892 -0.0572 -0.4186
  181SLPC   O1120688   1.224   1.366  10.834  0.2663 -0.3654  0.5454
  181SLPC    C120689   1.097   1.388  10.775 -0.1308  0.1448  0.5746
  181SLPC    HA20690   1.048   1.294  10.742  0.3257 -0.1013  0.6004
  181SLPC    HB20691   1.029   1.431  10.852 -1.0564  0.2969 -0.3073
  181SLPC    C220692   1.102   1.479  10.647 -0.2035  0.0572  0.3897
  181SLPC    HS20693   1.001   1.498  10.604 -0.1696  0.3258  0.4297
  181SLPC   O2120694   1.185   1.413  10.550 -0.2555  0.0162 -0.2856
  181SLPC   C2120695   1.158   1.445  10.423 -0.4597 -0.1978 -0.5283
  181SLPC   O2220696   1.055   1.504  10.390 -0.3237 -0.2737 -0.2661
  181SLPC   C2220697   1.265   1.398  10.331  0.4459  0.2935  0.8220
  181SLPC   H2R20698   1.360   1.386  10.388  0.8335  2.7479  0.8276
  181SLPC   H2S20699   1.230   1.295  10.309  1.7367 -0.6929  3.0880
  181SLPC    C320700   1.162   1.611  10.677  0.7614 -0.0945  0.0538
  181SLPC    HX20701   1.259   1.608  10.730 -0.0885  0.8408  1.7480
  181SLPC    HY20702   1.095   1.659  10.752  2.1434 -0.7968  1.8089
  181SLPC   O3120703   1.176   1.704  10.567  0.0881 -0.1953  0.4194
  181SLPC   C3120704   1.216   1.829  10.591  0.5375  0.3045  0.5437
  181SLPC   O3220705   1.224   1.885  10.699  0.1434 -0.2018  0.3446
  181SLPC   C3220706   1.267   1.888  10.461 -0.2841 -0.2871 -0.4367
  181SLPC   H2X20707   1.187   1.892  10.385  0.0649 -0.3993 -0.8112
  181SLPC   H2Y20708   1.353   1.830  10.422 -0.6530 -1.0072 -0.1977
  181SLPC   C2320709   1.285   1.485  10.200 -0.7716 -0.8137  0.2925
  181SLPC   H3R20710   1.196   1.476  10.134 -0.3922 -2.9990  0.0054
  181SLPC   H3S20711   1.363   1.431  10.142  0.5794  0.1185  1.1638
  181SLPC   C2420712   1.339   1.625  10.230 -0.4270  0.2341  0.2703
  181SLPC   H4R20713   1.396   1.610  10.324 -0.6830  0.3173  0.4377
  181SLPC   H4S20714   1.253   1.692  10.248  1.2386  2.9503 -1.2240
  181SLPC   C2520715   1.437   1.685  10.122  0.6062 -0.1972 -0.7037
  181SLPC   H5R20716   1.510   1.608  10.090 -0.2644 -2.1191  1.5806
  181SLPC   H5S20717   1.492   1.758  10.184 -2.7742 -0.4583  2.9762
  181SLPC   C2620718   1.358   1.758  10.011 -0.5089  0.6416  0.5308
  181SLPC   H6R20719   1.431   1.811   9.945  0.5929  0.2314  1.3875
  181SLPC   H6S20720   1.287   1.827  10.062  0.9220  0.3703  3.0997
  181SLPC   C2720721   1.280   1.664   9.918 -0.3150 -0.0168 -0.3168
  181SLPC   H7R20722   1.185   1.621   9.957  0.3081 -0.6531  0.5324
  181SLPC   H7S20723   1.348   1.578   9.902 -0.3725 -0.2136  0.4360
  181SLPC   C2820724   1.254   1.716   9.767  0.2238 -0.4278 -0.0971
  181SLPC   H8R20725   1.238   1.826   9.781  1.0523 -0.6126  3.1559
  181SLPC   H8S20726   1.160   1.669   9.732 -1.7288  0.9404  2.8648
  181SLPC   C2920727   1.362   1.714   9.662  0.0393  0.3898 -1.2605
  181SLPC   H9R20728   1.467   1.711   9.695  0.7502  0.7406 -3.3180
  181SLPC  C21020729   1.347   1.716   9.528 -0.5141 -0.1553 -0.2712
  181SLPC  H10R20730   1.431   1.714   9.458  0.1167 -1.2328  0.4877
  181SLPC  C21120731   1.203   1.717   9.468 -0.2337 -0.4255  0.5873
  181SLPC  H11R20732   1.126   1.776   9.522  0.5148  0.1856  1.0079
  181SLPC  H11S20733   1.168   1.612   9.463 -1.0293 -0.1113 -1.6814
  181SLPC  C21220734   1.206   1.778   9.328  0.2192 -0.4626 -0.0084
  181SLPC  H12R20735   1.150   1.872   9.312 -1.2716 -1.0969  1.1439
  181SLPC  C21320736   1.262   1.728   9.216 -0.1541  0.8826  0.0986
  181SLPC  H13R20737   1.248   1.778   9.119  0.3168 -2.0770 -1.6277
  181SLPC  C21420738   1.321   1.598   9.204 -0.5380 -0.4051  0.8807
  181SLPC  H14R20739   1.239   1.523   9.209 -1.5614  0.2602 -2.9707
  181SLPC  H14S20740   1.382   1.576   9.295 -2.1891 -0.2765  2.0582
  181SLPC  C21520741   1.399   1.573   9.075  0.2207  0.6551 -0.7994
  181SLPC  H15R20742   1.329   1.580   8.988 -0.8977 -1.5583 -0.1456
  181SLPC  H15S20743   1.446   1.472   9.073 -1.4898 -0.1699 -1.8250
  181SLPC  C21620744   1.510   1.675   9.049  0.0885  0.4816 -0.0795
  181SLPC  H16R20745   1.581   1.691   9.133 -1.0344  2.0621  0.6166
  181SLPC  H16S20746   1.471   1.779   9.040  0.9752  1.0346  1.8695
  181SLPC  C21720747   1.592   1.650   8.925  0.3125 -0.0631  0.0017
  181SLPC  H17R20748   1.526   1.659   8.836 -1.1520  2.2167  1.1940
  181SLPC  H17S20749   1.631   1.547   8.913 -0.9614 -0.6518  0.6897
  181SLPC  C21820750   1.704   1.750   8.912 -0.4848 -0.2624  0.1513
  181SLPC  H18R20751   1.752   1.731   8.814  0.4691 -2.2995  0.9439
  181SLPC  H18S20752   1.784   1.733   8.987 -1.3045 -1.2256  0.8530
  181SLPC  H18T20753   1.669   1.855   8.924 -1.0523 -0.3932 -0.3355
  181SLPC   C3320754   1.307   2.041  10.480  0.6906  0.1066 -0.1291
  181SLPC   H3X20755   1.384   2.044  10.561  1.9779  0.6905 -1.3236
  181SLPC   H3Y20756   1.233   2.092  10.544 -1.0696 -1.8650 -0.4971
  181SLPC   C3420757   1.337   2.121  10.352  0.1538 -0.5000 -0.4607
  181SLPC   H4X20758   1.322   2.229  10.370 -1.1407 -0.5012 -1.3627
  181SLPC   H4Y20759   1.259   2.108  10.274  0.6733  1.3804 -1.3436
  181SLPC   C3520760   1.466   2.084  10.272 -0.9880 -0.3427  0.2326
  181SLPC   H5X20761   1.472   1.974  10.257  1.6640 -0.3762  1.0865
  181SLPC   H5Y20762   1.546   2.110  10.345 -0.1677 -2.1376  0.0242
  181SLPC   C3620763   1.486   2.174  10.153  0.9484  0.2781  0.3111
  181SLPC   H6X20764   1.594   2.189  10.136  1.1441 -2.2847 -1.3980
  181SLPC   H6Y20765   1.438   2.273  10.168 -2.8726 -1.0087 -1.7025
  181SLPC   C3720766   1.436   2.117  10.016  0.2910  0.8156  0.1054
  181SLPC   H7X20767   1.331   2.086  10.031  0.5534 -0.8437 -1.1646
  181SLPC   H7Y20768   1.498   2.027   9.994 -1.2186 -0.0060 -0.9874
  181SLPC   C3820769   1.449   2.202   9.896 -0.6531 -0.4998 -0.6319
  181SLPC   H8X20770   1.546   2.257   9.904  0.0050 -1.7995  1.0923
  181SLPC   H8Y20771   1.367   2.276   9.884  1.0162  1.4872 -0.5560
  181SLPC   C3920772   1.455   2.112   9.773  0.1184 -0.5958 -0.0488
  181SLPC   H9X20773   1.370   2.041   9.766  0.6738 -1.4943  1.6970
  181SLPC   H9Y20774   1.543   2.047   9.795  0.5668 -0.6233 -1.7716
  181SLPC  C31020775   1.488   2.191   9.647 -0.4053  0.6348  0.3707
  181SLPC  H10X20776   1.583   2.243   9.673  1.1014 -2.1135  0.7654
  181SLPC  H10Y20777   1.407   2.265   9.626  0.9880  1.7324 -1.4960
  181SLPC  C31120778   1.510   2.110   9.516 -0.1271  0.3181  0.6689
  181SLPC  H11X20779   1.423   2.046   9.491  0.8612 -1.7001  2.0724
  181SLPC  H11Y20780   1.590   2.033   9.521 -0.0314  0.3438 -0.2678
  181SLPC  C31220781   1.536   2.208   9.403 -0.0957  0.1457 -0.4137
  181SLPC  H12X20782   1.549   2.149   9.310  0.0158  2.1578 -1.7375
  181SLPC  H12Y20783   1.636   2.254   9.422 -0.0913  0.5407 -1.3085
  181SLPC  C31320784   1.445   2.324   9.382 -0.1074  0.0257  0.2116
  181SLPC  H13X20785   1.460   2.408   9.453  0.7276 -0.9358  1.2155
  181SLPC  H13Y20786   1.340   2.289   9.381  0.0405 -0.5463  1.6824
  181SLPC  C31420787   1.474   2.387   9.236 -0.2390 -0.6108  0.1184
  181SLPC  H14X20788   1.467   2.311   9.156 -1.3618  0.5641 -0.9206
  181SLPC  H14Y20789   1.574   2.430   9.257 -0.3984 -0.9320  1.6693
  181SLPC  C31520790   1.381   2.505   9.197 -0.5686 -0.0279  0.4587
  181SLPC  H15X20791   1.346   2.554   9.290 -2.7535 -2.5216  1.1040
  181SLPC  H15Y20792   1.283   2.466   9.160 -1.1189  1.6110  0.1362
  181SLPC  C31620793   1.436   2.597   9.082  0.0094  0.6894  0.4383
  181SLPC  H16X20794   1.470   2.525   9.004  2.2224  0.0130  1.8936
  181SLPC  H16Y20795   1.518   2.650   9.136 -0.3942  0.7917  0.9549
  181SLPC  C31720796   1.333   2.681   9.010  0.5798  0.7427 -0.1555
  181SLPC  H17X20797   1.373   2.767   8.953 -3.5366  2.1784 -1.2514
  181SLPC  H17Y20798   1.275   2.723   9.095  1.5574  0.1468  0.8382
  181SLPC  C31820799   1.241   2.609   8.912 -0.2107 -0.5346 -0.8853
  181SLPC  H18X20800   1.173   2.685   8.868 -0.8804 -0.5149  0.1328
  181SLPC  H18Y20801   1.199   2.516   8.955  1.7990 -0.3070  1.8620
  181SLPC  H18Z20802   1.302   2.578   8.825 -0.6812 -0.8031 -1.1243
  182SLPC     N20803   6.262   4.908  10.906  0.0452  0.0299  0.2805
  182SLPC   C1320804   6.222   4.789  10.987  0.0246  0.0566  0.3918
  182SLPC  H13A20805   6.308   4.749  11.039 -0.1131 -0.0917  0.5063
  182SLPC  H13B20806   6.156   4.811  11.070  0.7026 -1.8127  1.4784
  182SLPC  H13C20807   6.169   4.716  10.928 -2.4215  2.9650 -1.3161
  182SLPC   C1420808   6.388   4.885  10.839  0.3216  0.5737 -0.3547
  182SLPC  H14A20809   6.460   4.841  10.908 -1.0747  1.4103  1.7325
  182SLPC  H14B20810   6.369   4.810  10.764 -1.3610  2.2063 -1.6186
  182SLPC  H14C20811   6.421   4.971  10.783 -0.0485  1.0547  0.1580
  182SLPC   C1520812   6.276   5.022  11.002  0.3884 -0.5563  0.2681
  182SLPC  H15A20813   6.326   5.110  10.963  0.6911 -0.6114  0.5260
  182SLPC  H15B20814   6.177   5.060  11.021 -0.0483 -1.4446 -0.2031
  182SLPC  H15C20815   6.319   4.995  11.098  1.1865 -0.2110  0.0172
  182SLPC   C1220816   6.151   4.933  10.809 -0.7286 -0.9295  0.2871
  182SLPC  H12A20817   6.170   5.024  10.754 -2.2266 -0.1730  0.9479
  182SLPC  H12B20818   6.054   4.953  10.853 -0.2566  1.9904  0.2358
  182SLPC   C1120819   6.121   4.825  10.704  0.5625  0.8982 -0.3224
  182SLPC  H11A20820   6.206   4.761  10.673  0.1333 -0.6618  1.6014
  182SLPC  H11B20821   6.081   4.868  10.609 -1.4949 -3.9680 -2.0043
  182SLPC     P20822   5.996   4.590  10.748  0.4658 -0.2963  0.1265
  182SLPC   O1320823   6.104   4.527  10.826 -0.0746  0.4541  0.0419
  182SLPC   O1420824   5.858   4.547  10.779 -0.2335 -0.7748  0.1618
  182SLPC   O1220825   6.012   4.747  10.754 -0.5371  0.0179 -0.4927
  182SLPC   O1120826   6.030   4.577  10.596  0.0076  0.1805 -0.0242
  182SLPC    C120827   5.943   4.646  10.510  0.4131 -0.1115  0.6770
  182SLPC    HA20828   5.853   4.699  10.547  0.0353  0.9184 -1.5275
  182SLPC    HB20829   5.991   4.717  10.440  1.6398 -1.7416 -0.2133
  182SLPC    C220830   5.872   4.544  10.409  0.5558  0.1676 -0.6414
  182SLPC    HS20831   5.865   4.445  10.459  0.2269  1.1191  1.3124
  182SLPC   O2120832   5.953   4.535  10.297  0.1455 -0.1076  0.2387
  182SLPC   C2120833   6.025   4.423  10.287 -0.3888 -0.5563 -1.0566
  182SLPC   O2220834   6.006   4.321  10.355 -0.3785  0.0518 -0.1431
  182SLPC   C2220835   6.140   4.447  10.189  0.2142 -0.2190  0.4825
  182SLPC   H2R20836   6.142   4.556  10.167  0.6548 -0.0718  1.2246
  182SLPC   H2S20837   6.233   4.418  10.243 -0.6537 -0.0111  2.1645
  182SLPC    C320838   5.725   4.602  10.363 -0.2710  0.0471 -0.0802
  182SLPC    HX20839   5.729   4.706  10.323 -1.3187 -0.0729 -0.5351
  182SLPC    HY20840   5.668   4.613  10.458 -0.4966 -0.0975 -0.1981
  182SLPC   O3120841   5.654   4.514  10.269  0.1888  0.1227  0.5160
  182SLPC   C3120842   5.520   4.534  10.271  0.3387 -0.5692 -0.0522
  182SLPC   O3220843   5.454   4.614  10.332  1.0673  0.3630 -0.1711
  182SLPC   C3220844   5.460   4.442  10.170 -0.0802  0.2245 -0.4048
  182SLPC   H2X20845   5.516   4.349  10.191 -2.2233 -0.5334  2.7417
  182SLPC   H2Y20846   5.491   4.453  10.064  4.5846 -2.5604  0.4214
  182SLPC   C2320847   6.125   4.375  10.054 -0.4428  0.5398 -0.0026
  182SLPC   H3R20848   6.035   4.411   9.999 -0.5893  2.1184  1.1887
  182SLPC   H3S20849   6.106   4.267  10.068  1.6277  0.1261 -0.2073
  182SLPC   C2420850   6.250   4.392   9.965 -0.1508  0.3352 -0.1555
  182SLPC   H4R20851   6.325   4.322  10.008 -0.9767  0.6854  1.9844
  182SLPC   H4S20852   6.295   4.493   9.972  1.1255 -0.2480  0.4660
  182SLPC   C2520853   6.212   4.363   9.821 -0.5060  0.4497  0.1005
  182SLPC   H5R20854   6.135   4.435   9.785  0.6726  3.0040  2.3295
  182SLPC   H5S20855   6.162   4.265   9.835  2.3342 -0.8011  2.8761
  182SLPC   C2620856   6.328   4.360   9.721 -0.0567  0.4250  0.6164
  182SLPC   H6R20857   6.403   4.286   9.757  1.1251  0.7853 -1.0173
  182SLPC   H6S20858   6.383   4.457   9.719  0.1819  0.2824 -0.7241
  182SLPC   C2720859   6.296   4.312   9.577 -0.0887  0.4106 -0.4554
  182SLPC   H7R20860   6.206   4.364   9.537 -0.4005 -0.2857 -0.6762
  182SLPC   H7S20861   6.276   4.203   9.569  1.3030  0.2308 -2.1315
  182SLPC   C2820862   6.409   4.333   9.481  0.0290 -0.1604  0.6776
  182SLPC   H8R20863   6.391   4.286   9.382 -1.6908 -0.9618  1.3265
  182SLPC   H8S20864   6.490   4.276   9.530  0.4726  1.6155  2.1266
  182SLPC   C2920865   6.438   4.478   9.443  0.1219  0.3919  0.2912
  182SLPC   H9R20866   6.521   4.526   9.497 -0.1004  0.2837  0.7302
  182SLPC  C21020867   6.394   4.545   9.338  0.8222  0.0066  0.0976
  182SLPC  H10R20868   6.436   4.646   9.325  0.7608 -0.2812 -3.0875
  182SLPC  C21120869   6.293   4.505   9.232  0.3885  0.3131 -0.3585
  182SLPC  H11R20870   6.224   4.426   9.268  3.4686 -2.1147  0.6346
  182SLPC  H11S20871   6.342   4.454   9.146 -1.7736 -1.0636 -0.8621
  182SLPC  C21220872   6.227   4.629   9.189  0.6018 -0.1072  0.1703
  182SLPC  H12R20873   6.142   4.661   9.251  0.6694  1.3617 -0.4664
  182SLPC  C21320874   6.256   4.706   9.081 -1.0138 -0.3526 -0.1194
  182SLPC  H13R20875   6.198   4.798   9.061 -1.0258 -0.2740  0.2634
  182SLPC  C21420876   6.360   4.689   8.975 -0.5744 -0.3114  0.3079
  182SLPC  H14R20877   6.412   4.591   8.983 -0.4751 -0.5000 -1.8512
  182SLPC  H14S20878   6.430   4.775   8.988 -0.2568 -0.3496 -1.0119
  182SLPC  C21520879   6.312   4.702   8.829 -0.4400 -1.0335  0.1889
  182SLPC  H15R20880   6.213   4.651   8.817 -1.0054 -0.0035  0.3439
  182SLPC  H15S20881   6.391   4.658   8.765 -1.8178  1.0197 -3.2242
  182SLPC  C21620882   6.310   4.850   8.772  0.2422  0.4501 -0.1150
  182SLPC  H16R20883   6.246   4.922   8.827 -1.3821  0.1975 -1.5901
  182SLPC  H16S20884   6.253   4.852   8.677 -0.1810  1.3595  0.1470
  182SLPC  C21720885   6.447   4.920   8.747 -0.0546 -0.3882 -0.0788
  182SLPC  H17R20886   6.513   4.853   8.688  0.9529  1.1306 -0.7472
  182SLPC  H17S20887   6.502   4.940   8.841 -1.5700  4.7904  0.0021
  182SLPC  C21820888   6.425   5.061   8.685 -0.8371 -0.1571 -0.3141
  182SLPC  H18R20889   6.438   5.138   8.765 -0.0153 -1.6817  1.0862
  182SLPC  H18S20890   6.323   5.080   8.645  0.0699  0.3265 -2.5595
  182SLPC  H18T20891   6.498   5.092   8.607 -0.3431 -0.9198 -0.1601
  182SLPC   C3320892   5.311   4.398  10.189 -0.2942  0.4847 -0.0312
  182SLPC   H3X20893   5.257   4.492  10.167 -0.1270  1.0714  1.9074
  182SLPC   H3Y20894   5.303   4.382  10.299  4.4871 -0.4659  0.4150
  182SLPC   C3420895   5.272   4.293  10.090  0.2198 -0.2800 -0.3661
  182SLPC   H4X20896   5.180   4.244  10.127 -1.4574  2.6899 -0.2357
  182SLPC   H4Y20897   5.345   4.211  10.101 -0.4798 -1.0909 -1.5380
  182SLPC   C3520898   5.250   4.345   9.944 -0.3924 -0.6570 -0.0679
  182SLPC   H5X20899   5.347   4.385   9.906 -1.5013  1.2246 -1.0981
  182SLPC   H5Y20900   5.173   4.425   9.946  1.3245  1.0814  0.3193
  182SLPC   C3620901   5.219   4.227   9.847 -0.3428 -0.8940 -0.7083
  182SLPC   H6X20902   5.139   4.167   9.896 -0.3689 -0.3456 -0.0587
  182SLPC   H6Y20903   5.316   4.173   9.849  0.1491 -0.0189 -0.5840
  182SLPC   C3720904   5.177   4.270   9.705 -0.0052  0.2466  0.2239
  182SLPC   H7X20905   5.255   4.341   9.668  0.0005 -0.9639 -2.2930
  182SLPC   H7Y20906   5.085   4.333   9.708  0.5755  1.2576 -1.4556
  182SLPC   C3820907   5.148   4.153   9.614  0.4646  0.7704  0.1872
  182SLPC   H8X20908   5.075   4.084   9.662  1.2566  0.6923  1.3460
  182SLPC   H8Y20909   5.245   4.105   9.589  0.7349  1.4643 -0.1244
  182SLPC   C3920910   5.104   4.207   9.480 -0.0511  0.2254 -0.0775
  182SLPC   H9X20911   5.162   4.295   9.448  3.7001 -1.7268  0.7971
  182SLPC   H9Y20912   5.001   4.247   9.488  0.1210  0.4857  1.0375
  182SLPC  C31020913   5.117   4.107   9.365 -0.4673 -0.3786  0.5596
  182SLPC  H10X20914   5.088   4.003   9.389  0.4317 -1.0991 -1.2892
  182SLPC  H10Y20915   5.226   4.098   9.345 -0.6897 -0.5088 -0.6635
  182SLPC  C31120916   5.052   4.164   9.236 -0.0962 -0.8707  0.0262
  182SLPC  H11X20917   5.073   4.273   9.236 -2.0307 -0.4299  1.9073
  182SLPC  H11Y20918   4.947   4.129   9.237  0.8473 -4.3681  3.8436
  182SLPC  C31220919   5.132   4.091   9.124  1.6988 -0.0455  0.3076
  182SLPC  H12X20920   5.121   3.981   9.139 -2.1759  0.3127  1.3670
  182SLPC  H12Y20921   5.238   4.121   9.137  1.7045 -0.7384  2.2341
  182SLPC  C31320922   5.112   4.129   8.975  0.0588 -0.3431  0.0585
  182SLPC  H13X20923   5.212   4.135   8.928  0.3095 -0.0371  0.6169
  182SLPC  H13Y20924   5.058   4.226   8.963  1.1421  0.1494 -1.0451
  182SLPC  C31420925   5.017   4.038   8.896  0.0158  0.4837  0.1500
  182SLPC  H14X20926   4.922   4.087   8.869  0.6320  1.8119  0.3389
  182SLPC  H14Y20927   5.009   3.950   8.964 -0.8001  0.1907 -0.3152
  182SLPC  C31520928   5.076   3.996   8.756  0.5554 -0.5475  0.1121
  182SLPC  H15X20929   5.186   3.979   8.762  0.6450  0.1683  0.7271
  182SLPC  H15Y20930   5.076   4.086   8.690 -0.7184 -0.9370 -0.4404
  182SLPC  C31620931   5.007   3.874   8.695 -1.1478  0.1273  0.1822
  182SLPC  H16X20932   4.898   3.881   8.677 -1.2488 -1.0946  0.2775
  182SLPC  H16Y20933   5.017   3.785   8.761 -1.1299 -0.5249 -0.6826
  182SLPC  C31720934   5.071   3.846   8.562  0.1422  0.3411  0.3754
  182SLPC  H17X20935   5.180   3.828   8.567 -0.0419 -0.4871  2.4002
  182SLPC  H17Y20936   5.043   3.928   8.493 -1.1436 -1.1186 -0.9329
  182SLPC  C31820937   5.008   3.724   8.492 -0.3256  0.1412  0.4792
  182SLPC  H18X20938   4.954   3.757   8.400  0.9877  0.2010 -0.3024
  182SLPC  H18Y20939   4.930   3.670   8.548 -1.5539  2.1080  0.7789
  182SLPC  H18Z20940   5.089   3.652   8.468  2.7596  3.2234  0.7765
  183SLPC     N20941   2.030   4.146  11.123 -0.5258  0.0411 -0.2064
  183SLPC   C1320942   2.159   4.125  11.055  0.1643 -0.6307 -0.8306
  183SLPC  H13A20943   2.228   4.094  11.132 -1.9679 -0.3968  1.3156
  183SLPC  H13B20944   2.151   4.053  10.975 -1.2335 -1.9274  0.4020
  183SLPC  H13C20945   2.187   4.222  11.019 -4.0666  1.7417  1.4526
  183SLPC   C1420946   2.053   4.225  11.250 -0.2519 -0.5821  0.5347
  183SLPC  H14A20947   2.118   4.172  11.319  2.7743  0.3213 -1.4288
  183SLPC  H14B20948   2.091   4.324  11.231 -2.0086  0.3381  1.6341
  183SLPC  H14C20949   1.959   4.244  11.300 -1.8241 -1.9627 -1.6927
  183SLPC   C1520950   1.979   4.001  11.161  0.2951  0.0501 -0.3695
  183SLPC  H15A20951   1.879   4.010  11.202  0.6290 -1.8114  0.9980
  183SLPC  H15B20952   1.965   3.939  11.074  1.3129 -3.7013  1.9069
  183SLPC  H15C20953   2.049   3.961  11.234  0.3718  1.2452  0.2385
  183SLPC   C1220954   1.934   4.205  11.025 -0.9308  0.2512  0.1277
  183SLPC  H12A20955   1.836   4.207  11.069 -0.7736 -3.3849  0.9275
  183SLPC  H12B20956   1.918   4.148  10.935 -0.7816  0.4877 -0.0498
  183SLPC   C1120957   1.973   4.345  10.979  0.3258  0.4435  0.2489
  183SLPC  H11A20958   2.053   4.344  10.901 -0.2881  2.9024 -0.4956
  183SLPC  H11B20959   2.001   4.400  11.071 -3.3417  1.7368  0.7617
  183SLPC     P20960   1.816   4.360  10.765  0.1817 -0.1884  0.7184
  183SLPC   O1320961   1.812   4.214  10.759  0.1460 -0.0645  0.0770
  183SLPC   O1420962   1.695   4.436  10.731 -0.0784 -0.2474 -0.0113
  183SLPC   O1220963   1.858   4.407  10.910 -0.3216  0.3366 -0.0385
  183SLPC   O1120964   1.933   4.422  10.681  0.2703 -0.1937 -0.0660
  183SLPC    C120965   1.990   4.337  10.575  0.3481  0.2096  0.3217
  183SLPC    HA20966   2.089   4.376  10.542 -0.4776  0.0482 -2.6571
  183SLPC    HB20967   2.007   4.231  10.605  1.2565  0.1716 -0.2629
  183SLPC    C220968   1.911   4.341  10.439 -0.0819  0.0794 -0.4369
  183SLPC    HS20969   1.882   4.442  10.405  1.4101  0.4386 -0.7297
  183SLPC   O2120970   1.799   4.251  10.454  0.2471  0.5980  0.3332
  183SLPC   C2120971   1.693   4.285  10.380  0.1394 -0.2985 -0.3539
  183SLPC   O2220972   1.680   4.389  10.314  0.1040 -0.3428  0.3089
  183SLPC   C2220973   1.572   4.197  10.406 -0.1874  0.1186 -0.4164
  183SLPC   H2R20974   1.595   4.118  10.481  0.9502  0.3739 -0.4764
  183SLPC   H2S20975   1.489   4.256  10.451 -0.5310 -1.2958  0.8900
  183SLPC    C320976   1.998   4.280  10.328 -0.8392  0.0857  0.2803
  183SLPC    HX20977   2.027   4.178  10.359  0.0044 -0.3439 -1.7264
  183SLPC    HY20978   2.095   4.334  10.315 -1.5324  1.5943  1.0713
  183SLPC   O3120979   1.942   4.281  10.202  0.1178 -0.0661  0.3877
  183SLPC   C3120980   1.893   4.166  10.151 -0.5007  1.0541 -0.5515
  183SLPC   O3220981   1.873   4.065  10.217  0.0448  0.0313 -0.0862
  183SLPC   C3220982   1.901   4.181   9.998  0.1495  0.2538 -0.1538
  183SLPC   H2X20983   1.977   4.259   9.978 -1.2433  1.3437 -1.4053
  183SLPC   H2Y20984   1.806   4.226   9.962  1.4134  1.1966 -2.5492
  183SLPC   C2320985   1.519   4.127  10.282  0.7180  0.2435  0.2450
  183SLPC   H3R20986   1.487   4.024  10.305 -0.3994  0.3757 -0.5818
  183SLPC   H3S20987   1.595   4.125  10.201  1.6791  3.4008  0.9385
  183SLPC   C2420988   1.404   4.213  10.226 -0.1975  0.3751  0.6653
  183SLPC   H4R20989   1.447   4.307  10.185 -0.4128 -0.2687 -1.1295
  183SLPC   H4S20990   1.328   4.233  10.304 -2.2397 -1.6054 -0.7051
  183SLPC   C2520991   1.325   4.148  10.101  0.3496 -0.1050  0.0760
  183SLPC   H5R20992   1.236   4.212  10.086  0.2982  0.6851  3.1181
  183SLPC   H5S20993   1.280   4.050  10.127 -1.5675  0.4799 -0.8411
  183SLPC   C2620994   1.414   4.135   9.977 -0.1894 -0.0132 -0.0335
  183SLPC   H6R20995   1.512   4.088  10.002  1.0138  2.4011  0.0489
  183SLPC   H6S20996   1.437   4.238   9.944 -0.5747 -0.5922 -2.2694
  183SLPC   C2720997   1.344   4.058   9.862  0.5260 -0.4425  0.6625
  183SLPC   H7R20998   1.267   4.120   9.812 -0.2656 -2.4647 -0.7610
  183SLPC   H7S20999   1.305   3.961   9.899  1.0639 -0.4697  1.1768
  183SLPC   C2821000   1.442   4.022   9.749  0.5700  0.3876 -0.8498
  183SLPC   H8R21001   1.398   3.946   9.681 -0.0804 -2.6503  2.5966
  183SLPC   H8S21002   1.533   3.978   9.795 -0.3724 -1.6506 -0.7992
  183SLPC   C2921003   1.482   4.151   9.681  0.0451  0.9643  0.1531
  183SLPC   H9R21004   1.518   4.233   9.745  0.4703  0.0375  1.1231
  183SLPC  C21021005   1.481   4.161   9.542  0.3169  0.2220 -0.0641
  183SLPC  H10R21006   1.511   4.257   9.496 -1.4900  0.6024 -0.5078
  183SLPC  C21121007   1.443   4.054   9.444 -0.2492 -0.0729 -0.0843
  183SLPC  H11R21008   1.341   4.022   9.477 -0.8298  1.6907 -0.0714
  183SLPC  H11S21009   1.505   3.963   9.456 -0.5887 -0.1831  0.8734
  183SLPC  C21221010   1.433   4.100   9.304  0.6761  0.5952 -0.4473
  183SLPC  H12R21011   1.505   4.179   9.278  0.5486  1.0320  0.4796
  183SLPC  C21321012   1.337   4.041   9.220 -0.9898  0.2262 -0.8177
  183SLPC  H13R21013   1.336   4.082   9.118 -0.7469  1.3016 -0.4006
  183SLPC  C21421014   1.245   3.932   9.261  0.4910  0.7365 -0.0725
  183SLPC  H14R21015   1.217   3.943   9.368 -0.4537 -0.6472 -0.1511
  183SLPC  H14S21016   1.298   3.835   9.248 -2.0072 -0.6413 -0.6201
  183SLPC  C21521017   1.107   3.938   9.184  0.2660 -0.6784  0.2264
  183SLPC  H15R21018   1.128   3.918   9.077 -0.0725 -0.0143  0.0306
  183SLPC  H15S21019   1.061   4.038   9.200 -0.8430 -1.2628  0.7814
  183SLPC  C21621020   1.012   3.833   9.244 -0.4342  0.8181  0.2885
  183SLPC  H16R21021   1.025   3.820   9.354 -2.3616 -1.2461  0.3466
  183SLPC  H16S21022   1.045   3.737   9.200  0.7733  0.5791  1.6246
  183SLPC  C21721023   0.863   3.864   9.219 -0.4425 -1.0294 -0.5257
  183SLPC  H17R21024   0.864   3.975   9.233 -1.3563 -0.7809 -2.2166
  183SLPC  H17S21025   0.804   3.816   9.300  0.0220  1.1902  1.2650
  183SLPC  C21821026   0.810   3.834   9.083 -0.4180 -0.0192  0.6474
  183SLPC  H18R21027   0.865   3.897   9.010  1.3343 -1.3042  0.7849
  183SLPC  H18S21028   0.701   3.855   9.073 -0.7458 -1.2507  1.3430
  183SLPC  H18T21029   0.831   3.726   9.063  3.0441 -0.0805  3.5756
  183SLPC   C3321030   1.915   4.046   9.931  0.0988  0.0815  0.0160
  183SLPC   H3X21031   1.827   3.986   9.962 -0.6601 -0.2486 -2.5114
  183SLPC   H3Y21032   2.002   3.985   9.963 -1.1813 -3.5223 -2.6957
  183SLPC   C3421033   1.927   4.065   9.781  0.0808 -0.0266  0.0968
  183SLPC   H4X21034   2.014   4.134   9.773 -0.9082  1.5865  2.0764
  183SLPC   H4Y21035   1.845   4.127   9.738 -0.6017 -0.2087  1.1000
  183SLPC   C3521036   1.942   3.931   9.705 -0.6026  0.3101 -0.6503
  183SLPC   H5X21037   2.026   3.877   9.753 -0.0042  1.6994 -0.0518
  183SLPC   H5Y21038   1.972   3.947   9.599  0.4447  2.1138 -0.1321
  183SLPC   C3621039   1.812   3.844   9.719 -0.5560  0.2441 -0.4492
  183SLPC   H6X21040   1.718   3.901   9.700 -1.6751 -1.1605  0.6084
  183SLPC   H6Y21041   1.810   3.810   9.825 -0.0130 -1.5832 -0.9835
  183SLPC   C3721042   1.816   3.725   9.628 -0.4237  0.7590  0.1188
  183SLPC   H7X21043   1.744   3.644   9.653 -0.1162  0.0503 -1.1892
  183SLPC   H7Y21044   1.915   3.677   9.644 -1.8722 -2.2189  0.9191
  183SLPC   C3821045   1.775   3.757   9.483  0.1096 -0.3039  1.1084
  183SLPC   H8X21046   1.842   3.840   9.452  0.3583 -1.0248 -0.3373
  183SLPC   H8Y21047   1.671   3.794   9.471  0.0457 -0.5762  0.8247
  183SLPC   C3921048   1.781   3.655   9.375 -0.7150  0.6676 -0.2238
  183SLPC   H9X21049   1.707   3.577   9.404  0.1278 -0.4289 -0.9461
  183SLPC   H9Y21050   1.885   3.616   9.375 -0.3659  1.5450 -1.1831
  183SLPC  C31021051   1.771   3.700   9.224  0.1534 -0.3331  0.3518
  183SLPC  H10X21052   1.785   3.614   9.156  2.0877  0.5454 -0.4325
  183SLPC  H10Y21053   1.846   3.780   9.205 -0.8598  0.6633  0.3833
  183SLPC  C31121054   1.634   3.759   9.194  0.4847  0.1073  0.6679
  183SLPC  H11X21055   1.619   3.854   9.250  0.5960  1.4135 -1.4182
  183SLPC  H11Y21056   1.552   3.688   9.220  0.7692 -0.0152  1.2443
  183SLPC  C31221057   1.619   3.796   9.038 -0.6907  0.2501 -0.1382
  183SLPC  H12X21058   1.523   3.853   9.037 -1.4693 -1.0292 -0.3510
  183SLPC  H12Y21059   1.601   3.695   8.996 -1.4910  0.2195  0.2569
  183SLPC  C31321060   1.735   3.882   8.985  0.2048  0.4515  0.2071
  183SLPC  H13X21061   1.830   3.825   8.990 -0.7705 -1.2208  0.3155
  183SLPC  H13Y21062   1.755   3.973   9.046 -0.1329  2.3764 -2.3898
  183SLPC  C31421063   1.719   3.930   8.837 -0.7121  0.3291  1.5683
  183SLPC  H14X21064   1.801   3.987   8.788  2.1795 -3.7756  1.0730
  183SLPC  H14Y21065   1.629   3.994   8.829  1.0009  2.7472  0.4055
  183SLPC  C31521066   1.722   3.809   8.736 -0.2671  0.0460 -0.6154
  183SLPC  H15X21067   1.619   3.767   8.736  0.6002 -2.1930  0.2037
  183SLPC  H15Y21068   1.799   3.738   8.772  0.5859  1.0633 -0.3904
  183SLPC  C31621069   1.770   3.855   8.596 -0.2815  0.3804  0.0283
  183SLPC  H16X21070   1.871   3.901   8.603  1.7838 -3.6146 -0.9752
  183SLPC  H16Y21071   1.709   3.929   8.540  0.9080  0.0512 -1.7909
  183SLPC  C31721072   1.794   3.732   8.502 -0.3053 -0.2550  0.0711
  183SLPC  H17X21073   1.704   3.667   8.502  0.7074 -1.7656  1.4714
  183SLPC  H17Y21074   1.872   3.669   8.550  0.1802 -0.6186 -1.1582
  183SLPC  C31821075   1.829   3.778   8.363  0.2752 -0.2877 -0.5933
  183SLPC  H18X21076   1.745   3.840   8.325 -0.0085 -0.5681 -0.4359
  183SLPC  H18Y21077   1.849   3.694   8.293 -4.0161 -1.1322 -1.0611
  183SLPC  H18Z21078   1.922   3.838   8.361  0.6000 -0.7409  0.1967
  184SLPC     N21079   2.656   1.608  10.725  0.1863  0.4936  0.4716
  184SLPC   C1321080   2.502   1.632  10.743  0.3376 -0.1306 -0.3104
  184SLPC  H13A21081   2.458   1.657  10.647  2.0665  1.5552 -0.7377
  184SLPC  H13B21082   2.450   1.547  10.785 -1.5544  0.4761 -1.3225
  184SLPC  H13C21083   2.484   1.716  10.808  1.3324  0.0228 -0.2080
  184SLPC   C1421084   2.714   1.711  10.634  0.0794 -0.2579 -0.4251
  184SLPC  H14A21085   2.726   1.803  10.690 -0.9672  0.9357 -2.0385
  184SLPC  H14B21086   2.810   1.688  10.592  1.6284  1.3302  2.0264
  184SLPC  H14C21087   2.649   1.747  10.555 -1.3037  1.4645  1.3737
  184SLPC   C1521088   2.671   1.475  10.650  0.5856  0.3493  0.1371
  184SLPC  H15A21089   2.775   1.453  10.631  0.2885 -1.0874  0.0860
  184SLPC  H15B21090   2.632   1.392  10.706 -0.7873  1.5738  1.0795
  184SLPC  H15C21091   2.619   1.480  10.556  2.1328 -0.4268 -0.7941
  184SLPC   C1221092   2.712   1.602  10.864 -0.0140  0.3146  0.8604
  184SLPC  H12A21093   2.643   1.551  10.930  1.0196 -1.8128  0.3787
  184SLPC  H12B21094   2.718   1.704  10.898  2.6202  0.2615  0.7154
  184SLPC   C1121095   2.862   1.561  10.879  0.2044  0.3752 -0.0161
  184SLPC  H11A21096   2.878   1.453  10.860  1.4976  0.4997  0.3178
  184SLPC  H11B21097   2.882   1.589  10.985  2.1464 -1.1069  0.0528
  184SLPC     P21098   3.061   1.583  10.727 -0.0797 -0.3628  0.2699
  184SLPC   O1321099   3.125   1.700  10.659 -0.8321  0.5363  0.3967
  184SLPC   O1421100   3.150   1.489  10.806 -0.4759  0.3609  0.2475
  184SLPC   O1221101   2.945   1.645  10.806 -0.3413 -0.6639  0.3566
  184SLPC   O1121102   2.984   1.506  10.614 -0.5940  0.5691 -0.4501
  184SLPC    C121103   3.054   1.472  10.491  0.6534  0.4025 -0.1813
  184SLPC    HA21104   3.085   1.565  10.438 -1.0709  2.4773  2.1810
  184SLPC    HB21105   3.142   1.410  10.515  0.0235 -0.4694 -0.0703
  184SLPC    C221106   2.955   1.394  10.402  0.1256 -0.7584 -1.3081
  184SLPC    HS21107   3.013   1.360  10.314 -0.4206 -1.5745 -1.3719
  184SLPC   O2121108   2.840   1.475  10.361  0.6302  0.3101  0.2531
  184SLPC   C2121109   2.863   1.567  10.273  0.9288 -0.3092  0.9858
  184SLPC   O2221110   2.962   1.589  10.208  0.6718  0.0435 -0.2159
  184SLPC   C2221111   2.741   1.655  10.272  0.5881 -0.4213  1.1617
  184SLPC   H2R21112   2.659   1.600  10.221 -0.0902 -0.6237  2.4264
  184SLPC   H2S21113   2.705   1.690  10.372 -2.6473 -0.7919  0.2338
  184SLPC    C321114   2.904   1.267  10.473 -0.1700 -0.7057  0.2890
  184SLPC    HX21115   2.832   1.283  10.556 -1.5230 -1.1229 -0.7610
  184SLPC    HY21116   2.994   1.227  10.524  1.3427  2.2064  0.0944
  184SLPC   O3121117   2.851   1.185  10.371  0.3278 -0.5315  0.3537
  184SLPC   C3121118   2.718   1.203  10.355 -0.2708  0.7137  0.7676
  184SLPC   O3221119   2.641   1.257  10.428 -0.6933 -0.1675 -0.0408
  184SLPC   C3221120   2.668   1.109  10.249  0.5242  0.2632  0.2579
  184SLPC   H2X21121   2.592   1.050  10.303 -1.8248  2.7724 -0.0792
  184SLPC   H2Y21122   2.756   1.045  10.225 -1.2208 -0.7860 -4.5047
  184SLPC   C2321123   2.751   1.791  10.192  0.3051 -0.2281  0.0135
  184SLPC   H3R21124   2.843   1.844  10.226 -0.1646  0.3704  0.3883
  184SLPC   H3S21125   2.666   1.858  10.219 -1.0053 -1.9127  0.1785
  184SLPC   C2421126   2.747   1.765  10.045 -0.5049 -0.0701 -0.6690
  184SLPC   H4R21127   2.653   1.711  10.021 -1.5766  2.1248 -1.6652
  184SLPC   H4S21128   2.837   1.704  10.021 -1.0249 -1.6877  1.1471
  184SLPC   C2521129   2.743   1.896   9.969 -0.0966 -0.3367 -0.0203
  184SLPC   H5R21130   2.826   1.961  10.004  0.7090 -1.5308  0.3512
  184SLPC   H5S21131   2.647   1.944   9.996  0.1574  0.2069 -0.0717
  184SLPC   C2621132   2.749   1.886   9.819 -0.4490  0.1465  0.2176
  184SLPC   H6R21133   2.667   1.817   9.790 -0.6380 -1.2405  3.6026
  184SLPC   H6S21134   2.845   1.834   9.795 -0.0514  1.8412 -2.2281
  184SLPC   C2721135   2.735   2.022   9.740  0.1821  0.3219 -0.4602
  184SLPC   H7R21136   2.827   2.081   9.762  0.0127  0.4183 -0.0017
  184SLPC   H7S21137   2.643   2.077   9.770  0.4692  0.8718 -0.5554
  184SLPC   C2821138   2.723   2.007   9.583  0.0504  0.6669  0.2140
  184SLPC   H8R21139   2.803   1.934   9.563 -1.1533 -0.5852 -0.2116
  184SLPC   H8S21140   2.735   2.099   9.521  0.8462 -0.6071 -1.5888
  184SLPC   C2921141   2.605   1.923   9.548 -0.2380 -0.1717  1.0495
  184SLPC   H9R21142   2.584   1.832   9.605 -0.4664 -0.3851  0.6331
  184SLPC  C21021143   2.526   1.940   9.438 -0.1577 -0.0344  0.1707
  184SLPC  H10R21144   2.450   1.864   9.414  0.3571 -0.6133  0.3564
  184SLPC  C21121145   2.544   2.055   9.341 -0.0279 -0.2980  0.7028
  184SLPC  H11R21146   2.571   2.151   9.391  0.4208  0.8724 -1.6704
  184SLPC  H11S21147   2.447   2.072   9.290  1.3032  1.0694 -1.5493
  184SLPC  C21221148   2.643   2.025   9.232  0.3175 -0.8110 -1.0019
  184SLPC  H12R21149   2.742   1.997   9.269  0.8120 -0.0362 -1.6811
  184SLPC  C21321150   2.626   2.039   9.100  0.2309  0.0445 -0.8898
  184SLPC  H13R21151   2.703   2.019   9.025  1.3502 -0.0977  0.2661
  184SLPC  C21421152   2.500   2.086   9.031 -0.4315 -0.1816 -0.9754
  184SLPC  H14R21153   2.533   2.160   8.955  2.3366 -0.3776 -0.0767
  184SLPC  H14S21154   2.434   2.141   9.101  1.3405 -0.1712  0.7454
  184SLPC  C21521155   2.416   1.971   8.956  0.3396  0.0663  0.2313
  184SLPC  H15R21156   2.474   1.936   8.867  0.9988 -1.1162  1.0965
  184SLPC  H15S21157   2.319   2.016   8.927 -0.7244 -1.7128  0.8933
  184SLPC  C21621158   2.390   1.849   9.045  0.5821 -0.3228  0.4377
  184SLPC  H16R21159   2.356   1.879   9.147 -1.7434 -1.3633  0.0331
  184SLPC  H16S21160   2.472   1.777   9.068  1.1195 -1.1073 -3.3105
  184SLPC  C21721161   2.276   1.763   8.989  0.0730  0.1579 -0.2872
  184SLPC  H17R21162   2.179   1.818   8.992  0.7794  1.4183  0.6384
  184SLPC  H17S21163   2.266   1.678   9.060  0.9781  0.1549 -0.1463
  184SLPC  C21821164   2.298   1.691   8.865 -0.4955  0.0754 -0.1017
  184SLPC  H18R21165   2.210   1.625   8.849 -1.6412  1.0954  1.6523
  184SLPC  H18S21166   2.401   1.649   8.859 -0.6039 -0.4482  1.2070
  184SLPC  H18T21167   2.300   1.751   8.772  2.7810 -1.7890 -1.4295
  184SLPC   C3321168   2.610   1.171  10.112  0.0108 -0.5334  0.9258
  184SLPC   H3X21169   2.506   1.208  10.119 -0.2794 -0.5069 -2.1203
  184SLPC   H3Y21170   2.604   1.090  10.037 -0.2003  0.0526  0.2928
  184SLPC   C3421171   2.710   1.279  10.057 -0.0157  0.0572  0.1468
  184SLPC   H4X21172   2.810   1.231  10.052 -1.4545 -3.0793 -1.3129
  184SLPC   H4Y21173   2.722   1.361  10.131 -0.7150 -0.0366  0.3740
  184SLPC   C3521174   2.672   1.325   9.913  0.4340 -0.1139 -0.3275
  184SLPC   H5X21175   2.584   1.391   9.926  2.4187  2.0886  3.5102
  184SLPC   H5Y21176   2.649   1.238   9.848 -1.8455  1.0099 -1.1200
  184SLPC   C3621177   2.783   1.403   9.835 -0.0723  0.2387  0.2251
  184SLPC   H6X21178   2.883   1.355   9.829 -0.0600  0.2665  0.2093
  184SLPC   H6Y21179   2.798   1.494   9.896  0.5456  0.2580  0.0536
  184SLPC   C3721180   2.734   1.444   9.698  0.2093 -0.4257  0.7330
  184SLPC   H7X21181   2.644   1.509   9.708  1.3290  1.3011 -0.0244
  184SLPC   H7Y21182   2.707   1.364   9.625  0.2861 -0.0863  0.3285
  184SLPC   C3821183   2.834   1.531   9.618  0.2470 -0.2153 -0.0290
  184SLPC   H8X21184   2.926   1.470   9.603 -0.0933 -0.7922  0.2280
  184SLPC   H8Y21185   2.855   1.625   9.675 -0.8739 -0.2774  0.5091
  184SLPC   C3921186   2.781   1.584   9.487  0.4392 -0.6594  0.0915
  184SLPC   H9X21187   2.707   1.664   9.508  1.0100  0.3867 -1.6640
  184SLPC   H9Y21188   2.729   1.506   9.427 -2.1089  1.1438 -0.1798
  184SLPC  C31021189   2.889   1.659   9.407  0.1123  0.9266  0.2195
  184SLPC  H10X21190   2.987   1.606   9.408  1.5164  3.3537  1.5565
  184SLPC  H10Y21191   2.897   1.756   9.462 -0.5826  1.1606 -0.0897
  184SLPC  C31121192   2.844   1.675   9.267 -0.7015  0.4929 -0.4836
  184SLPC  H11X21193   2.749   1.733   9.270 -1.0886  0.1552 -3.1743
  184SLPC  H11Y21194   2.815   1.575   9.226  0.4380  0.5056 -1.3641
  184SLPC  C31221195   2.929   1.768   9.185 -0.1071 -0.7522  0.2468
  184SLPC  H12X21196   3.034   1.733   9.193 -0.2537 -1.0890  0.7670
  184SLPC  H12Y21197   2.941   1.873   9.221  4.9256 -0.8239 -0.4367
  184SLPC  C31321198   2.881   1.782   9.037 -0.7710  0.2204  0.6065
  184SLPC  H13X21199   2.934   1.863   8.980 -3.0312  0.4964 -1.2472
  184SLPC  H13Y21200   2.775   1.812   9.050 -0.2883  1.2921  2.5471
  184SLPC  C31421201   2.891   1.653   8.954 -0.1308 -0.2487  0.1034
  184SLPC  H14X21202   2.889   1.563   9.018  1.9331 -1.3146 -1.2222
  184SLPC  H14Y21203   2.994   1.657   8.912  1.2015  2.4312  3.2010
  184SLPC  C31521204   2.782   1.630   8.857  0.5459  0.8478  0.2415
  184SLPC  H15X21205   2.685   1.631   8.910  0.2844  3.7936 -0.1234
  184SLPC  H15Y21206   2.793   1.537   8.796  0.0584  0.0551  1.3332
  184SLPC  C31621207   2.771   1.739   8.747 -0.2718 -0.1201 -0.4478
  184SLPC  H16X21208   2.872   1.780   8.728 -0.1054 -0.4527 -0.2833
  184SLPC  H16Y21209   2.712   1.820   8.796 -0.6139  0.3558 -1.6206
  184SLPC  C31721210   2.698   1.687   8.628 -0.5313  0.8214 -0.6025
  184SLPC  H17X21211   2.653   1.768   8.568 -2.6776  0.6463  0.6701
  184SLPC  H17Y21212   2.609   1.626   8.653  0.3877 -1.0970 -1.7774
  184SLPC  C31821213   2.788   1.598   8.535  0.7582 -0.1461  0.8775
  184SLPC  H18X21214   2.884   1.649   8.514  0.6835 -1.2710 -3.1198
  184SLPC  H18Y21215   2.727   1.588   8.442 -0.4563  1.1114  1.5085
  184SLPC  H18Z21216   2.804   1.498   8.582 -1.5635  0.0500  2.2260
  185SLPC     N21217   1.495   4.301   6.357  0.5199 -0.2138  0.1335
  185SLPC   C1321218   1.479   4.151   6.351  0.2327 -0.0849 -0.1852
  185SLPC  H13A21219   1.436   4.107   6.440  0.5199 -1.8678 -0.8935
  185SLPC  H13B21220   1.417   4.128   6.265 -0.6693 -1.0446  0.6942
  185SLPC  H13C21221   1.579   4.112   6.339  0.5768  0.6330  0.2581
  185SLPC   C1421222   1.359   4.352   6.394 -0.8281 -0.4051  0.3891
  185SLPC  H14A21223   1.358   4.460   6.392 -1.4495 -0.3829 -2.7647
  185SLPC  H14B21224   1.286   4.318   6.322 -0.3615  1.2985 -0.9542
  185SLPC  H14C21225   1.332   4.325   6.495 -2.5779 -0.7776 -0.1516
  185SLPC   C1521226   1.539   4.344   6.214  0.0045  0.3034  0.3200
  185SLPC  H15A21227   1.573   4.446   6.211 -1.3967  0.7918  0.3172
  185SLPC  H15B21228   1.610   4.270   6.181 -1.2743 -0.7405 -0.1818
  185SLPC  H15C21229   1.463   4.353   6.139  1.3320 -0.0141 -1.1169
  185SLPC   C1221230   1.596   4.333   6.466 -0.7880 -0.8508  0.7537
  185SLPC  H12A21231   1.698   4.300   6.453 -1.1802 -3.7407  3.7394
  185SLPC  H12B21232   1.564   4.292   6.560  0.4945  0.6679  1.8955
  185SLPC   C1121233   1.617   4.482   6.499  0.1999 -0.2878 -0.0456
  185SLPC  H11A21234   1.693   4.488   6.580 -0.7081  2.7262  0.6764
  185SLPC  H11B21235   1.530   4.517   6.557 -1.3481 -0.2539 -2.2727
  185SLPC     P21236   1.792   4.586   6.331  0.0564 -0.3260 -0.1943
  185SLPC   O1321237   1.874   4.471   6.373  0.3644  0.0174  0.3704
  185SLPC   O1421238   1.783   4.602   6.184 -0.5939 -0.3435 -0.3619
  185SLPC   O1221239   1.646   4.573   6.385  0.7559 -0.0770  0.1668
  185SLPC   O1121240   1.848   4.720   6.394  0.5380  0.0135 -0.1717
  185SLPC    C121241   1.952   4.724   6.490  0.3713  0.8116 -0.1161
  185SLPC    HA21242   1.997   4.623   6.505 -1.4369 -0.1291 -0.7523
  185SLPC    HB21243   2.029   4.797   6.458 -0.4128  1.9416  0.4987
  185SLPC    C221244   1.878   4.760   6.624  0.2491 -0.4979  0.8926
  185SLPC    HS21245   1.953   4.814   6.686  1.8150 -2.4856  0.8521
  185SLPC   O2121246   1.831   4.647   6.699  0.0944  0.1325 -0.1058
  185SLPC   C2121247   1.915   4.596   6.792  0.5005  0.6642 -0.2241
  185SLPC   O2221248   2.030   4.630   6.801  0.5303 -0.2908 -0.1018
  185SLPC   C2221249   1.852   4.501   6.897 -0.1355 -0.4796  0.0101
  185SLPC   H2R21250   1.777   4.553   6.959  0.4823 -0.1216  0.4694
  185SLPC   H2S21251   1.813   4.413   6.842 -0.8674 -0.3477  0.3155
  185SLPC    C321252   1.766   4.859   6.605  0.7487 -0.5857  0.0626
  185SLPC    HX21253   1.696   4.807   6.536  0.6055  0.2195 -0.4117
  185SLPC    HY21254   1.792   4.957   6.561  0.6093 -0.0971  1.0332
  185SLPC   O3121255   1.702   4.895   6.729 -0.1133 -0.1841 -0.0125
  185SLPC   C3121256   1.568   4.859   6.748 -0.2520  0.0717  0.4228
  185SLPC   O3221257   1.494   4.807   6.663 -0.0375 -0.2488  0.4354
  185SLPC   C3221258   1.532   4.896   6.889  0.0550  0.1370  0.1271
  185SLPC   H2X21259   1.421   4.905   6.887 -0.0345 -0.5184  1.2698
  185SLPC   H2Y21260   1.572   4.995   6.918 -1.3648  0.9694 -0.6187
  185SLPC   C2321261   1.962   4.443   6.994 -0.3959 -0.2166  0.6451
  185SLPC   H3R21262   2.006   4.516   7.065  1.2402 -2.7819  2.4270
  185SLPC   H3S21263   2.041   4.404   6.927 -2.2890 -2.5491 -0.3767
  185SLPC   C2421264   1.910   4.323   7.073  0.2423  0.1056  0.3564
  185SLPC   H4R21265   1.882   4.242   7.002 -0.4867  1.7390 -1.3177
  185SLPC   H4S21266   1.820   4.365   7.123  0.4310  2.5663 -1.2008
  185SLPC   C2521267   2.012   4.278   7.178 -0.3439 -0.2458  0.1171
  185SLPC   H5R21268   2.035   4.366   7.242 -2.0043  0.2666  0.0691
  185SLPC   H5S21269   2.107   4.250   7.128  1.2081  0.1389  2.6776
  185SLPC   C2621270   1.967   4.162   7.269 -0.6825 -0.0585  0.0294
  185SLPC   H6R21271   2.038   4.151   7.354  0.1901 -0.5791 -0.7518
  185SLPC   H6S21272   1.961   4.059   7.228  0.4978  0.2392 -0.9637
  185SLPC   C2721273   1.830   4.179   7.329  0.8776 -0.7725  0.9219
  185SLPC   H7R21274   1.801   4.088   7.385  1.2072 -0.1829  2.0811
  185SLPC   H7S21275   1.752   4.185   7.250  0.3388 -1.0019  1.4280
  185SLPC   C2821276   1.807   4.301   7.421  0.5466  0.0009  0.0976
  185SLPC   H8R21277   1.708   4.288   7.468  0.8793  0.3438  0.9083
  185SLPC   H8S21278   1.800   4.395   7.362 -1.3999 -0.3962 -0.3671
  185SLPC   C2921279   1.916   4.319   7.531 -0.0804  0.0019  0.3415
  185SLPC   H9R21280   2.001   4.381   7.498 -0.8780  0.7904 -0.2714
  185SLPC  C21021281   1.927   4.239   7.645  0.4686  0.0870  0.1130
  185SLPC  H10R21282   2.016   4.257   7.705 -0.0401  1.8151  0.4053
  185SLPC  C21121283   1.825   4.133   7.688  0.7785 -0.3021 -0.0175
  185SLPC  H11R21284   1.767   4.103   7.598 -0.3985  0.7264  0.3763
  185SLPC  H11S21285   1.761   4.178   7.767  1.9925 -1.7960  1.9338
  185SLPC  C21221286   1.882   4.012   7.755 -0.0243 -0.1933 -0.0338
  185SLPC  H12R21287   1.938   3.947   7.686  0.6302 -0.1420  0.4399
  185SLPC  C21321288   1.858   3.962   7.880  0.5407 -0.2149 -0.5360
  185SLPC  H13R21289   1.927   3.881   7.910  2.0703  1.2761  0.1075
  185SLPC  C21421290   1.774   4.021   7.994 -0.0894  0.0379  0.5180
  185SLPC  H14R21291   1.707   3.946   8.041 -0.4348  0.3649  0.5572
  185SLPC  H14S21292   1.723   4.116   7.966  0.8131  0.7767  1.2767
  185SLPC  C21521293   1.864   4.057   8.112 -0.4446  0.2414 -0.6348
  185SLPC  H15R21294   1.941   4.134   8.088 -0.4148  0.1607 -0.7991
  185SLPC  H15S21295   1.914   3.966   8.153 -0.3462  1.3854  1.9900
  185SLPC  C21621296   1.798   4.114   8.235 -0.3815 -0.1894 -0.0467
  185SLPC  H16R21297   1.713   4.053   8.275  1.0428 -0.9378  2.0301
  185SLPC  H16S21298   1.745   4.206   8.203 -0.8821 -0.2740  0.5170
  185SLPC  C21721299   1.894   4.137   8.348 -0.3814  0.1209  0.0462
  185SLPC  H17R21300   1.982   4.197   8.315 -0.5550  0.7792  0.7618
  185SLPC  H17S21301   1.928   4.035   8.373 -0.8387 -0.6899 -2.3545
  185SLPC  C21821302   1.833   4.210   8.465  0.1647 -0.0650  0.3711
  185SLPC  H18R21303   1.912   4.218   8.543 -0.2603  0.9301  0.7173
  185SLPC  H18S21304   1.742   4.157   8.502  1.3073 -1.5178  1.2026
  185SLPC  H18T21305   1.810   4.311   8.425  1.1468  0.8955  2.0677
  185SLPC   C3321306   1.575   4.791   7.002  0.4145  0.2567  0.6231
  185SLPC   H3X21307   1.685   4.797   7.012  0.3526  2.3648  0.3447
  185SLPC   H3Y21308   1.538   4.691   6.971  0.1629  0.6313 -0.3048
  185SLPC   C3421309   1.522   4.817   7.147 -0.1552  0.0422  0.0324
  185SLPC   H4X21310   1.568   4.913   7.180 -0.0316  0.4907 -1.3788
  185SLPC   H4Y21311   1.564   4.728   7.197 -2.4794 -1.2915 -0.2417
  185SLPC   C3521312   1.375   4.842   7.157 -0.3009  0.4018  0.0528
  185SLPC   H5X21313   1.322   4.745   7.144  0.5390 -0.2029  0.9348
  185SLPC   H5Y21314   1.353   4.902   7.066  0.5707  0.2971 -0.2441
  185SLPC   C3621315   1.325   4.896   7.292  0.8343 -0.2642 -0.3082
  185SLPC   H6X21316   1.215   4.908   7.289  0.8336  1.0482  2.2039
  185SLPC   H6Y21317   1.365   4.998   7.310 -1.0300  0.9855 -2.7279
  185SLPC   C3721318   1.354   4.800   7.408  0.6769 -0.0526 -0.7933
  185SLPC   H7X21319   1.461   4.800   7.438  0.8524  0.1835 -1.4105
  185SLPC   H7Y21320   1.322   4.697   7.381  0.4148  0.1158 -1.1314
  185SLPC   C3821321   1.282   4.845   7.536  1.1784 -0.2497  0.5336
  185SLPC   H8X21322   1.171   4.837   7.528  1.2303  0.0595 -0.8208
  185SLPC   H8Y21323   1.306   4.953   7.540 -0.1027  0.0161  2.2292
  185SLPC   C3921324   1.324   4.785   7.668  0.3773 -0.0763 -0.2906
  185SLPC   H9X21325   1.323   4.673   7.666 -2.7108 -0.1303 -2.2621
  185SLPC   H9Y21326   1.255   4.808   7.752  0.5112 -0.1807 -0.1503
  185SLPC  C31021327   1.471   4.836   7.711  0.0278 -0.1136  0.4551
  185SLPC  H10X21328   1.484   4.942   7.678 -0.1814  0.4663  2.1006
  185SLPC  H10Y21329   1.543   4.779   7.648 -0.5439 -0.9245  0.5276
  185SLPC  C31121330   1.496   4.820   7.858  0.5802  0.7373  0.6655
  185SLPC  H11X21331   1.473   4.715   7.885  0.7603  0.1769 -1.1876
  185SLPC  H11Y21332   1.411   4.879   7.899 -1.4845 -0.8881 -1.0818
  185SLPC  C31221333   1.616   4.883   7.914  0.2898  0.6278  0.1315
  185SLPC  H12X21334   1.609   4.992   7.892  0.9493  0.9087  1.2290
  185SLPC  H12Y21335   1.707   4.849   7.860 -1.5855 -4.0142 -0.5929
  185SLPC  C31321336   1.628   4.864   8.069  0.3052  0.4821 -0.8599
  185SLPC  H13X21337   1.703   4.941   8.097  1.2107  0.4827 -3.0471
  185SLPC  H13Y21338   1.655   4.757   8.084 -1.8012 -0.0973 -0.8975
  185SLPC  C31421339   1.501   4.904   8.145 -0.6368 -0.4373 -0.2425
  185SLPC  H14X21340   1.421   4.837   8.109  0.5200 -0.4286 -3.0395
  185SLPC  H14Y21341   1.486   5.012   8.120 -4.0113 -0.9831 -1.0900
  185SLPC  C31521342   1.536   4.884   8.299  0.2753 -0.5687 -0.7523
  185SLPC  H15X21343   1.612   4.963   8.315  1.9164 -1.6480 -2.7097
  185SLPC  H15Y21344   1.570   4.781   8.321 -0.4028 -0.7292 -0.4278
  185SLPC  C31621345   1.405   4.898   8.389 -0.3633 -0.1172  0.1037
  185SLPC  H16X21346   1.366   5.002   8.378 -1.5816 -0.6648 -1.0958
  185SLPC  H16Y21347   1.434   4.887   8.495  3.2247 -1.0371 -0.8336
  185SLPC  C31721348   1.293   4.802   8.354 -0.4839  0.3346  0.4440
  185SLPC  H17X21349   1.327   4.697   8.364 -0.3684  0.3635  0.3554
  185SLPC  H17Y21350   1.248   4.802   8.253 -0.5883 -2.0284  0.4436
  185SLPC  C31821351   1.174   4.832   8.447  1.0282  0.5014  0.7697
  185SLPC  H18X21352   1.147   4.938   8.430 -1.3826 -0.1073  0.5001
  185SLPC  H18Y21353   1.187   4.805   8.554  0.3449 -1.7621  0.3515
  185SLPC  H18Z21354   1.092   4.766   8.411  1.8168  0.0121 -0.2006
  186SLPC     N21355   2.458   1.101   6.016  0.5195 -0.8278 -0.4372
  186SLPC   C1321356   2.323   1.175   6.006  0.0832  0.4061 -0.5577
  186SLPC  H13A21357   2.267   1.121   5.931  0.2349 -3.0814  1.5919
  186SLPC  H13B21358   2.271   1.176   6.101 -0.5939  1.3869 -0.9280
  186SLPC  H13C21359   2.331   1.276   5.969 -3.7009  0.6238 -1.2027
  186SLPC   C1421360   2.558   1.140   5.910 -0.3993  0.2490  0.5731
  186SLPC  H14A21361   2.524   1.078   5.828 -0.3463  0.4753  0.3794
  186SLPC  H14B21362   2.564   1.242   5.876 -1.0749  0.0039 -0.3353
  186SLPC  H14C21363   2.653   1.097   5.941 -1.7429 -3.3846  0.1901
  186SLPC   C1521364   2.426   0.948   6.009 -0.3902 -0.3501 -0.4886
  186SLPC  H15A21365   2.500   0.897   6.068  0.1647  1.1058  0.1145
  186SLPC  H15B21366   2.324   0.925   6.037 -0.1726 -1.5531 -0.6200
  186SLPC  H15C21367   2.442   0.913   5.908 -0.2198  2.5003 -1.5182
  186SLPC   C1221368   2.516   1.144   6.148  0.1155  0.4761 -0.5389
  186SLPC  H12A21369   2.450   1.114   6.228  2.2398  1.0775  1.5711
  186SLPC  H12B21370   2.519   1.251   6.157 -1.4091  0.4391  0.9616
  186SLPC   C1121371   2.662   1.095   6.195  0.2521  0.1353 -0.0276
  186SLPC  H11A21372   2.679   1.125   6.300 -2.2230 -0.4714  0.6040
  186SLPC  H11B21373   2.739   1.148   6.135 -0.5959  0.2240 -1.0691
  186SLPC     P21374   2.790   0.874   6.113  0.2250  0.0530 -0.2970
  186SLPC   O1321375   2.754   0.732   6.138  0.2659  0.4016  0.1251
  186SLPC   O1421376   2.793   0.900   5.970  0.0529 -0.3698  0.7013
  186SLPC   O1221377   2.673   0.948   6.183 -0.5544 -0.9520  0.2264
  186SLPC   O1121378   2.928   0.909   6.188  0.9332 -0.0228 -0.3764
  186SLPC    C121379   2.926   0.925   6.333 -0.1912  0.2735  0.6912
  186SLPC    HA21380   2.998   1.004   6.363  0.0685  0.5607 -0.6198
  186SLPC    HB21381   2.825   0.952   6.372 -1.2719 -2.3747 -0.0755
  186SLPC    C221382   2.975   0.796   6.403 -0.1874 -0.0838  0.1869
  186SLPC    HS21383   2.919   0.712   6.357 -0.1165  0.2134 -0.4560
  186SLPC   O2121384   2.966   0.798   6.546 -0.1915  0.1095 -0.2001
  186SLPC   C2121385   2.848   0.790   6.593  0.2812  0.3687  0.3802
  186SLPC   O2221386   2.750   0.752   6.526  0.2724 -0.1065  0.2440
  186SLPC   C2221387   2.845   0.804   6.742 -0.4855  0.3486 -1.0400
  186SLPC   H2R21388   2.759   0.871   6.763  1.0132  1.5671  1.7112
  186SLPC   H2S21389   2.816   0.704   6.783  2.3558 -1.0974 -2.2173
  186SLPC    C321390   3.124   0.754   6.366  0.3496 -0.2505  0.9047
  186SLPC    HX21391   3.125   0.749   6.255  2.1558  0.0304  0.8815
  186SLPC    HY21392   3.148   0.652   6.402  1.6235 -0.0641  0.6136
  186SLPC   O3121393   3.223   0.856   6.397  0.4912 -0.5298 -0.3989
  186SLPC   C3121394   3.259   0.842   6.530 -0.6057 -1.0963 -0.2500
  186SLPC   O3221395   3.238   0.744   6.601 -0.3072  0.4565  0.3103
  186SLPC   C3221396   3.328   0.978   6.579  0.1373 -0.4999  0.4067
  186SLPC   H2X21397   3.279   1.070   6.540  1.4146  0.8816  1.9467
  186SLPC   H2Y21398   3.431   0.974   6.537 -0.5354 -1.0127 -1.3168
  186SLPC   C2321399   2.965   0.851   6.828 -0.3218 -0.2169  0.5111
  186SLPC   H3R21400   3.000   0.950   6.790  0.6444 -0.4333  0.8107
  186SLPC   H3S21401   3.048   0.778   6.828  0.3279  0.4999 -0.3002
  186SLPC   C2421402   2.915   0.879   6.974 -0.2982  0.7486 -0.0569
  186SLPC   H4R21403   2.870   0.786   7.013  0.4374  0.0777 -0.7625
  186SLPC   H4S21404   2.837   0.958   6.978 -1.2004 -0.0496 -1.1852
  186SLPC   C2521405   3.029   0.910   7.079 -0.1304 -0.0242 -0.4602
  186SLPC   H5R21406   3.097   0.994   7.053 -1.7947  1.7573  0.6936
  186SLPC   H5S21407   3.084   0.815   7.093 -1.8075 -0.9360  0.1717
  186SLPC   C2621408   2.972   0.929   7.225  0.1380  0.1624 -0.9330
  186SLPC   H6R21409   2.893   0.852   7.240 -0.4565  0.4810 -2.3057
  186SLPC   H6S21410   2.922   1.029   7.225 -2.8114 -1.1685 -2.2842
  186SLPC   C2721411   3.074   0.950   7.337  0.7319 -0.2989 -0.0883
  186SLPC   H7R21412   3.136   1.039   7.314 -0.5528  0.2569 -1.6021
  186SLPC   H7S21413   3.136   0.859   7.349  1.0396 -0.9010 -4.4577
  186SLPC   C2821414   3.003   0.979   7.471  0.4240  0.9362 -0.1559
  186SLPC   H8R21415   2.920   0.907   7.486 -2.2346  3.0766 -3.2766
  186SLPC   H8S21416   2.948   1.075   7.463 -0.1101  0.6797  0.3016
  186SLPC   C2921417   3.094   0.979   7.588 -0.1598 -0.8606 -0.4990
  186SLPC   H9R21418   3.155   1.071   7.595  0.6262 -1.4665  0.9731
  186SLPC  C21021419   3.122   0.893   7.684  0.4235  0.0908  0.4254
  186SLPC  H10R21420   3.192   0.930   7.760  0.3475 -0.3151  0.6986
  186SLPC  C21121421   3.063   0.754   7.708 -0.4575 -0.4601 -0.3013
  186SLPC  H11R21422   3.031   0.706   7.612 -1.1626 -1.6461  0.5022
  186SLPC  H11S21423   2.972   0.778   7.767  0.6015  2.0733  0.4525
  186SLPC  C21221424   3.147   0.656   7.783 -0.1831 -0.3439  0.2400
  186SLPC  H12R21425   3.204   0.582   7.723 -1.1866 -1.3685  0.5087
  186SLPC  C21321426   3.162   0.632   7.916  0.2814  0.4125  0.6582
  186SLPC  H13R21427   3.245   0.569   7.952  0.3255  0.4092  0.5514
  186SLPC  C21421428   3.092   0.713   8.025 -0.0541  0.3256  0.1512
  186SLPC  H14R21429   3.021   0.641   8.071 -0.8760 -1.3246 -3.3010
  186SLPC  H14S21430   3.026   0.788   7.978 -0.1554  0.4308  0.4612
  186SLPC  C21521431   3.175   0.774   8.142  0.1147 -0.1462 -0.1036
  186SLPC  H15R21432   3.217   0.687   8.198  1.0635 -0.4317 -1.2185
  186SLPC  H15S21433   3.100   0.829   8.204  1.2366  0.8282  0.4426
  186SLPC  C21621434   3.291   0.873   8.096 -0.2645  0.6662  0.1399
  186SLPC  H16R21435   3.339   0.813   8.016 -1.7779 -0.9540  0.3895
  186SLPC  H16S21436   3.360   0.888   8.182 -0.5975  1.4261  0.2817
  186SLPC  C21721437   3.239   1.008   8.041  0.5673  0.1391  0.0055
  186SLPC  H17R21438   3.216   1.085   8.117 -1.2122 -0.4711  0.1371
  186SLPC  H17S21439   3.141   0.982   7.996 -0.8382  0.1808  2.8462
  186SLPC  C21821440   3.336   1.059   7.941  0.6823  0.6438  0.3875
  186SLPC  H18R21441   3.269   1.113   7.870 -1.9687 -0.9448  1.5139
  186SLPC  H18S21442   3.391   0.984   7.881  1.6690  1.0006  0.8215
  186SLPC  H18T21443   3.414   1.126   7.984  0.3108  0.8925  0.6896
  186SLPC   C3321444   3.341   0.977   6.731  0.5974  0.5720  0.1061
  186SLPC   H3X21445   3.239   0.964   6.773  0.8425 -3.6739 -0.2116
  186SLPC   H3Y21446   3.384   1.078   6.750  0.6197  0.2756  1.8049
  186SLPC   C3421447   3.454   0.882   6.794  0.6830  0.2187  0.3487
  186SLPC   H4X21448   3.547   0.928   6.755  0.5913 -0.5195 -0.7630
  186SLPC   H4Y21449   3.446   0.782   6.748  0.0804  0.8706 -1.0267
  186SLPC   C3521450   3.449   0.868   6.943  0.3173  0.1370 -0.5165
  186SLPC   H5X21451   3.526   0.796   6.978  0.5525  1.2339  1.3509
  186SLPC   H5Y21452   3.352   0.817   6.963  0.0419 -0.3561 -2.8171
  186SLPC   C3621453   3.440   0.994   7.028  0.1890  0.0833 -0.1152
  186SLPC   H6X21454   3.356   1.052   6.985 -0.4798 -0.3129  0.6349
  186SLPC   H6Y21455   3.536   1.050   7.021 -0.4834  1.2518 -0.1510
  186SLPC   C3721456   3.392   0.972   7.173  0.5438 -0.4235  0.3449
  186SLPC   H7X21457   3.301   0.909   7.166 -1.0879  1.9223 -0.8552
  186SLPC   H7Y21458   3.349   1.065   7.213  0.1442  0.3453 -1.7422
  186SLPC   C3821459   3.512   0.930   7.256 -0.3212 -0.0771  0.6976
  186SLPC   H8X21460   3.592   1.005   7.242 -1.7409  1.4957  0.8177
  186SLPC   H8Y21461   3.547   0.832   7.217 -0.4529  0.7081 -1.5223
  186SLPC   C3921462   3.467   0.909   7.398 -0.6873  0.2497 -0.5935
  186SLPC   H9X21463   3.381   0.839   7.386 -2.7377  2.7771 -1.5189
  186SLPC   H9Y21464   3.427   0.996   7.454  0.3856 -0.3988  1.2972
  186SLPC  C31021465   3.587   0.853   7.484  0.0458  0.5948  0.0854
  186SLPC  H10X21466   3.677   0.918   7.482  0.5006  0.1710 -4.2293
  186SLPC  H10Y21467   3.623   0.751   7.458 -0.7723  0.2504  0.2467
  186SLPC  C31121468   3.528   0.829   7.627  0.3060 -0.1763  0.1521
  186SLPC  H11X21469   3.434   0.770   7.623  1.7117 -2.5094 -2.9134
  186SLPC  H11Y21470   3.509   0.930   7.669  1.2595 -0.1522  0.5472
  186SLPC  C31221471   3.626   0.760   7.715  0.3554  0.0452 -0.9676
  186SLPC  H12X21472   3.714   0.824   7.735  0.6525 -1.0066  1.4126
  186SLPC  H12Y21473   3.654   0.674   7.651  2.0871  0.6847 -1.1062
  186SLPC  C31321474   3.567   0.702   7.844  0.4224  0.1920 -0.5310
  186SLPC  H13X21475   3.480   0.639   7.816 -0.6529  0.8788  1.1146
  186SLPC  H13Y21476   3.513   0.789   7.887  0.7336 -0.2053  0.7015
  186SLPC  C31421477   3.682   0.632   7.917 -0.1975 -0.2380  0.5709
  186SLPC  H14X21478   3.770   0.700   7.919  2.3169 -3.1158 -2.1315
  186SLPC  H14Y21479   3.714   0.545   7.856  0.2893  0.3909 -0.0922
  186SLPC  C31521480   3.658   0.580   8.055 -0.6616  0.0208 -0.4022
  186SLPC  H15X21481   3.718   0.489   8.076 -0.9073 -0.4827 -1.7918
  186SLPC  H15Y21482   3.557   0.533   8.049 -0.6629 -0.0038 -0.1999
  186SLPC  C31621483   3.668   0.678   8.171 -0.4091  0.1272  0.6370
  186SLPC  H16X21484   3.604   0.763   8.137 -0.4108  0.1066  0.5877
  186SLPC  H16Y21485   3.774   0.707   8.179  0.0263 -0.4862 -1.8474
  186SLPC  C31721486   3.621   0.633   8.314 -0.0097 -0.6975  0.2240
  186SLPC  H17X21487   3.510   0.635   8.312 -0.0714  2.5388  0.6289
  186SLPC  H17Y21488   3.645   0.717   8.383 -2.5025  1.1198 -0.9276
  186SLPC  C31821489   3.683   0.509   8.382  0.0096  0.4284  0.3229
  186SLPC  H18X21490   3.640   0.491   8.483  3.7966 -1.1151  1.8887
  186SLPC  H18Y21491   3.794   0.515   8.388 -0.0069  0.5615  0.4775
  186SLPC  H18Z21492   3.658   0.418   8.322  1.5269 -0.3684  0.8333
  187SLPC     N21493   2.973   4.869   6.170 -0.3391  0.3966  0.8430
  187SLPC   C1321494   2.983   4.717   6.187  0.1796 -0.2688 -0.0589
  187SLPC  H13A21495   2.912   4.672   6.254  1.1182 -1.3690  0.2242
  187SLPC  H13B21496   2.959   4.669   6.093  1.0450 -3.1008  1.0719
  187SLPC  H13C21497   3.082   4.689   6.219  0.3207  0.9839  0.6738
  187SLPC   C1421498   2.844   4.903   6.105  0.1833 -0.2978  0.7279
  187SLPC  H14A21499   2.823   4.843   6.018 -2.2960 -0.2769  1.2265
  187SLPC  H14B21500   2.768   4.876   6.177 -1.5392  0.2013 -0.8412
  187SLPC  H14C21501   2.833   5.008   6.082 -0.3952  0.0718  2.5190
  187SLPC   C1521502   3.067   4.905   6.066 -0.4244  0.0411  0.1048
  187SLPC  H15A21503   3.169   4.875   6.082 -0.8006 -1.1120  0.3826
  187SLPC  H15B21504   3.029   4.855   5.978  1.3605 -2.6382  0.7701
  187SLPC  H15C21505   3.058   5.010   6.040 -0.6637  0.3050  1.1791
  187SLPC   C1221506   2.991   4.944   6.297  0.8557  0.2533 -0.1125
  187SLPC  H12A21507   2.905   4.922   6.358  1.3019  1.1470  0.8726
  187SLPC  H12B21508   2.972   5.048   6.275 -0.4349  0.2068  0.6560
  187SLPC   C1121509   3.124   4.927   6.379  0.1864 -0.3501 -0.3423
  187SLPC  H11A21510   3.143   4.819   6.397 -1.5871 -0.9544 -1.8187
  187SLPC  H11B21511   3.104   4.969   6.480 -1.6875 -0.6451 -0.5562
  187SLPC     P21512   3.280   5.142   6.321 -0.1343 -0.0737  0.0224
  187SLPC   O1321513   3.411   5.152   6.253  0.1345 -0.3018 -0.0049
  187SLPC   O1421514   3.173   5.233   6.281 -0.1346 -0.0911  0.0314
  187SLPC   O1221515   3.232   4.986   6.310 -0.0446  0.4329 -0.9278
  187SLPC   O1121516   3.304   5.158   6.478 -0.1069 -0.2471  0.2599
  187SLPC    C121517   3.425   5.114   6.539  0.0519  0.0401  0.5053
  187SLPC    HA21518   3.475   5.032   6.482  0.5403  0.2254  0.6641
  187SLPC    HB21519   3.494   5.200   6.546 -0.2440  0.3469 -0.2081
  187SLPC    C221520   3.389   5.059   6.679 -0.4676 -1.0052  0.4713
  187SLPC    HS21521   3.297   5.000   6.664 -0.4984 -0.1861 -3.6245
  187SLPC   O2121522   3.370   5.176   6.765 -0.2806  0.3481  0.0973
  187SLPC   C2121523   3.268   5.159   6.853  0.0488  0.3750 -0.3794
  187SLPC   O2221524   3.212   5.049   6.868 -0.5727 -0.4853 -0.6896
  187SLPC   C2221525   3.254   5.286   6.933  0.1970 -0.3397 -0.2177
  187SLPC   H2R21526   3.347   5.345   6.929 -0.2028  0.3795  0.7048
  187SLPC   H2S21527   3.178   5.353   6.887  0.6870 -0.4850 -1.2513
  187SLPC    C321528   3.504   4.971   6.727 -0.9658 -0.3353  0.4862
  187SLPC    HX21529   3.599   5.029   6.720 -0.1150 -1.7354 -0.1361
  187SLPC    HY21530   3.518   4.885   6.658  1.0932 -0.0575  0.4968
  187SLPC   O3121531   3.478   4.929   6.861  0.3300 -0.1621  0.0421
  187SLPC   C3121532   3.417   4.813   6.873  0.9961 -0.0399  0.3152
  187SLPC   O3221533   3.411   4.724   6.794  0.0294 -0.8394 -0.0665
  187SLPC   C3221534   3.367   4.797   7.018  0.3194 -0.5252 -0.2722
  187SLPC   H2X21535   3.321   4.895   7.042  3.0479  0.5062  1.1971
  187SLPC   H2Y21536   3.456   4.791   7.085  0.5320  3.5491  0.0424
  187SLPC   C2321537   3.230   5.268   7.079 -0.4686  0.7928  0.3078
  187SLPC   H3R21538   3.160   5.182   7.086  1.3969 -0.7198  1.1631
  187SLPC   H3S21539   3.189   5.359   7.129  3.0922  1.9286  1.4333
  187SLPC   C2421540   3.365   5.237   7.159  0.3806  0.0255  0.2473
  187SLPC   H4R21541   3.446   5.305   7.126  0.3455 -1.0800 -2.4449
  187SLPC   H4S21542   3.395   5.139   7.115 -2.7606 -1.7705  1.7374
  187SLPC   C2521543   3.350   5.228   7.308 -0.0111  0.0998 -0.4152
  187SLPC   H5R21544   3.290   5.135   7.317  0.1372  0.0555  0.1584
  187SLPC   H5S21545   3.305   5.319   7.352  2.3743  0.8035  0.7347
  187SLPC   C2621546   3.481   5.199   7.380  0.1263 -0.0228 -0.2227
  187SLPC   H6R21547   3.539   5.294   7.382 -2.0654  1.4063  2.1563
  187SLPC   H6S21548   3.535   5.121   7.323 -1.8745 -0.9923 -0.8920
  187SLPC   C2721549   3.459   5.158   7.519 -0.3414  0.4298 -0.6195
  187SLPC   H7R21550   3.364   5.100   7.521  0.9200 -1.7427  0.9299
  187SLPC   H7S21551   3.430   5.243   7.585 -1.4014 -0.3538 -0.0501
  187SLPC   C2821552   3.572   5.070   7.577 -0.0474  0.1485  0.0199
  187SLPC   H8R21553   3.659   5.131   7.610  1.4496 -1.7129 -0.3190
  187SLPC   H8S21554   3.612   4.996   7.504 -0.1327  0.0959  0.0263
  187SLPC   C2921555   3.514   4.996   7.693 -0.3008  0.7106 -0.1306
  187SLPC   H9R21556   3.435   4.923   7.667 -0.2749  0.7644 -0.3545
  187SLPC  C21021557   3.543   5.012   7.824  0.9623 -0.3953  0.1129
  187SLPC  H10R21558   3.501   4.948   7.903  0.7039 -0.1698  0.1589
  187SLPC  C21121559   3.635   5.118   7.880 -0.3147 -0.5901  0.2009
  187SLPC  H11R21560   3.581   5.215   7.869 -0.3258 -0.7665 -1.4657
  187SLPC  H11S21561   3.727   5.119   7.818  0.4519 -2.6089  1.2345
  187SLPC  C21221562   3.673   5.101   8.032  0.3597  0.6901 -0.0965
  187SLPC  H12R21563   3.596   5.154   8.089  1.2552  2.3694 -0.3901
  187SLPC  C21321564   3.764   5.024   8.087 -0.1591 -0.1556  0.1892
  187SLPC  H13R21565   3.792   5.037   8.193 -1.0274  1.9748  0.2015
  187SLPC  C21421566   3.859   4.928   8.015 -0.0830  0.4048  0.5035
  187SLPC  H14R21567   3.904   4.860   8.090 -0.4045 -2.1184 -1.4489
  187SLPC  H14S21568   3.938   4.981   7.957  0.4101 -0.8796 -0.0570
  187SLPC  C21521569   3.800   4.823   7.916 -0.5617  0.5394 -0.1956
  187SLPC  H15R21570   3.746   4.861   7.826 -1.8798 -0.4333  0.1545
  187SLPC  H15S21571   3.715   4.770   7.965 -2.4102  0.7321 -2.9496
  187SLPC  C21621572   3.897   4.728   7.857 -0.5231 -0.5143 -0.8393
  187SLPC  H16R21573   3.831   4.659   7.801 -1.8547 -0.7800  0.9313
  187SLPC  H16S21574   3.939   4.668   7.941 -0.0685  1.6967  0.5941
  187SLPC  C21721575   4.016   4.782   7.769 -0.5376 -0.9180 -0.1170
  187SLPC  H17R21576   4.077   4.698   7.729 -1.4246 -1.5713 -0.1397
  187SLPC  H17S21577   4.073   4.848   7.837 -1.8880  0.3842 -0.1874
  187SLPC  C21821578   3.950   4.858   7.652  0.1861 -0.2550  0.0353
  187SLPC  H18R21579   4.019   4.902   7.577 -0.6905 -0.7487 -1.1047
  187SLPC  H18S21580   3.876   4.931   7.691  0.2428 -1.2017  2.0634
  187SLPC  H18T21581   3.896   4.779   7.595  0.3668  0.2096 -0.7884
  187SLPC   C3321582   3.264   4.683   7.016 -0.2659 -0.3494  0.6303
  187SLPC   H3X21583   3.313   4.585   7.035  0.8618 -0.1565 -1.0560
  187SLPC   H3Y21584   3.225   4.675   6.913  2.2541  1.4798 -0.5880
  187SLPC   C3421585   3.146   4.703   7.116  0.9452  0.7028 -0.3134
  187SLPC   H4X21586   3.075   4.780   7.078 -0.6819 -0.5260  0.0870
  187SLPC   H4Y21587   3.201   4.738   7.206  2.1032 -0.0374 -0.7113
  187SLPC   C3521588   3.075   4.575   7.144  0.3615  0.1840  0.3579
  187SLPC   H5X21589   3.142   4.499   7.191  1.9605  0.6901 -1.0205
  187SLPC   H5Y21590   3.033   4.525   7.054 -1.8894  0.6644  1.0769
  187SLPC   C3621591   2.951   4.604   7.241 -0.5592 -0.3464 -0.2449
  187SLPC   H6X21592   2.886   4.675   7.187  0.2447 -0.4698 -1.4321
  187SLPC   H6Y21593   2.986   4.653   7.334  1.4218 -3.5475  0.8723
  187SLPC   C3721594   2.873   4.491   7.282  0.1188  0.9563  0.2097
  187SLPC   H7X21595   2.794   4.455   7.212  0.2913  3.1462 -1.2037
  187SLPC   H7Y21596   2.940   4.402   7.277 -1.1057 -0.0803  1.3774
  187SLPC   C3821597   2.831   4.499   7.428  0.3809 -0.5704  0.0112
  187SLPC   H8X21598   2.752   4.422   7.437 -0.0707  0.0594  1.7582
  187SLPC   H8Y21599   2.786   4.599   7.449  0.3595 -0.8428  1.3141
  187SLPC   C3921600   2.946   4.465   7.516  0.6669 -0.2711  0.6348
  187SLPC   H9X21601   3.031   4.533   7.496 -0.8277  1.3010 -0.7206
  187SLPC   H9Y21602   2.975   4.358   7.506  0.8217 -0.4093  2.2517
  187SLPC  C31021603   2.897   4.474   7.660  0.5892 -0.2920  0.1917
  187SLPC  H10X21604   2.804   4.413   7.663 -0.5765  1.4664  1.3525
  187SLPC  H10Y21605   2.863   4.576   7.685 -2.1738 -0.0112 -3.8329
  187SLPC  C31121606   3.007   4.430   7.760  0.3417  0.7062 -0.2589
  187SLPC  H11X21607   3.092   4.501   7.753  0.9738 -0.1554 -1.8411
  187SLPC  H11Y21608   3.044   4.325   7.753 -0.0355  0.6108 -0.8785
  187SLPC  C31221609   2.964   4.446   7.908  0.3333 -0.4274 -0.1104
  187SLPC  H12X21610   2.889   4.368   7.931  0.6623 -0.7635 -0.1663
  187SLPC  H12Y21611   2.929   4.547   7.937 -0.4922  0.0034 -2.4108
  187SLPC  C31321612   3.073   4.427   8.009 -0.2708 -0.8147  0.1680
  187SLPC  H13X21613   3.165   4.463   7.957 -0.1939 -0.2836  0.6589
  187SLPC  H13Y21614   3.099   4.320   8.024  1.7687 -0.3405  0.3397
  187SLPC  C31421615   3.057   4.503   8.144 -0.5034 -0.2226 -0.2269
  187SLPC  H14X21616   3.031   4.605   8.109  1.0542 -0.3349 -1.8302
  187SLPC  H14Y21617   3.153   4.505   8.201  0.8833 -1.0692 -2.4255
  187SLPC  C31521618   2.951   4.438   8.234 -0.5875 -0.6971  0.6204
  187SLPC  H15X21619   2.987   4.339   8.270  0.4405 -1.5757 -2.5346
  187SLPC  H15Y21620   2.862   4.418   8.172 -2.5481 -1.4299  3.4762
  187SLPC  C31621621   2.913   4.533   8.353 -0.2130  0.5402  0.1187
  187SLPC  H16X21622   2.853   4.472   8.424  2.0145 -2.7545 -0.5906
  187SLPC  H16Y21623   2.852   4.616   8.312 -1.8779 -0.6965 -0.0156
  187SLPC  C31721624   3.041   4.579   8.435  0.1472  0.4433 -0.3217
  187SLPC  H17X21625   3.115   4.623   8.365 -1.2349  2.6368 -0.4894
  187SLPC  H17Y21626   3.084   4.495   8.494 -0.7344 -0.1710 -0.5189
  187SLPC  C31821627   2.995   4.683   8.540  0.3523 -0.6339 -0.1640
  187SLPC  H18X21628   2.921   4.640   8.610  0.7529 -0.1416  0.5717
  187SLPC  H18Y21629   2.964   4.779   8.494  1.5441 -0.4529 -0.6374
  187SLPC  H18Z21630   3.083   4.709   8.603  1.0232 -1.4037 -0.7484
  188SLPC     N21631   6.339   5.120   6.199 -0.0710 -0.0257 -0.0338
  188SLPC   C1321632   6.267   5.185   6.316 -0.0971  0.2327  0.5923
  188SLPC  H13A21633   6.161   5.182   6.299 -0.3885  1.5936  2.0046
  188SLPC  H13B21634   6.301   5.130   6.402  1.2440  1.3124  0.7940
  188SLPC  H13C21635   6.304   5.284   6.339 -0.2722  0.4121  0.1265
  188SLPC   C1421636   6.299   5.192   6.082 -0.4938  0.2791 -0.1568
  188SLPC  H14A21637   6.328   5.296   6.087  0.7877 -0.1271  2.5073
  188SLPC  H14B21638   6.322   5.145   5.988 -0.4950  1.1469 -0.6034
  188SLPC  H14C21639   6.192   5.204   6.091 -0.1759  1.7320  2.9859
  188SLPC   C1521640   6.293   4.979   6.188 -0.8375  0.1316 -0.3742
  188SLPC  H15A21641   6.340   4.936   6.276  2.0409  2.9763 -0.3382
  188SLPC  H15B21642   6.186   4.963   6.189 -0.6103 -1.7200  1.0888
  188SLPC  H15C21643   6.341   4.928   6.105 -0.0219 -0.3521  0.3718
  188SLPC   C1221644   6.488   5.115   6.231  0.0764  0.1409  0.2178
  188SLPC  H12A21645   6.532   5.209   6.202  2.5526 -1.3412 -1.1502
  188SLPC  H12B21646   6.547   5.055   6.162  1.9270  2.8172 -0.6723
  188SLPC   C1121647   6.528   5.088   6.377  0.3622  0.0840 -0.1207
  188SLPC  H11A21648   6.500   5.186   6.422 -1.6498  0.1935 -1.4695
  188SLPC  H11B21649   6.637   5.087   6.397  0.1949  0.5991  0.8738
  188SLPC     P21650   6.530   4.844   6.469  0.3180 -0.0153 -0.1967
  188SLPC   O1321651   6.425   4.737   6.476 -0.1843  0.2855 -0.2768
  188SLPC   O1421652   6.645   4.821   6.380 -0.0263  0.7644  0.2042
  188SLPC   O1221653   6.455   4.981   6.442  0.2425 -0.4333 -0.3444
  188SLPC   O1121654   6.582   4.861   6.612  0.2068  0.5219  0.0894
  188SLPC    C121655   6.663   4.757   6.679  0.1654  0.1750  0.7659
  188SLPC    HA21656   6.627   4.656   6.651 -1.0187  0.9151 -0.5220
  188SLPC    HB21657   6.768   4.753   6.641 -0.2266 -1.2192 -0.2704
  188SLPC    C221658   6.668   4.771   6.835 -0.2931  0.6693 -0.2507
  188SLPC    HS21659   6.742   4.695   6.870 -1.4098 -1.1377 -1.6150
  188SLPC   O2121660   6.534   4.751   6.877  0.6013 -0.1385 -0.0818
  188SLPC   C2121661   6.528   4.676   6.989  0.0185  0.2627 -0.3540
  188SLPC   O2221662   6.621   4.620   7.041 -0.4270 -0.2034  0.2131
  188SLPC   C2221663   6.388   4.662   7.029 -0.1449 -0.4419 -0.5390
  188SLPC   H2R21664   6.332   4.756   7.048 -1.0946 -1.0655 -0.1235
  188SLPC   H2S21665   6.333   4.596   6.958 -0.9830  0.7634 -1.0468
  188SLPC    C321666   6.715   4.911   6.866  0.2062 -0.7199 -0.5820
  188SLPC    HX21667   6.634   4.979   6.832  1.7197  2.6489  1.9037
  188SLPC    HY21668   6.808   4.937   6.812  1.5413 -0.5440  1.6588
  188SLPC   O3121669   6.732   4.925   7.008  0.5691 -0.4603  0.4794
  188SLPC   C3121670   6.834   4.860   7.059  0.3088  0.0143  0.1033
  188SLPC   O3221671   6.912   4.781   7.001  0.5422  0.1133  0.3244
  188SLPC   C3221672   6.853   4.888   7.208  0.3641  0.6101 -0.3770
  188SLPC   H2X21673   6.786   4.826   7.272 -0.0413  1.1957 -0.2339
  188SLPC   H2Y21674   6.832   4.994   7.232  1.5889  1.2436 -1.9841
  188SLPC   C2321675   6.377   4.606   7.178  0.2493  0.1013 -0.0133
  188SLPC   H3R21676   6.432   4.509   7.176 -0.0248 -0.0463 -0.5253
  188SLPC   H3S21677   6.271   4.587   7.205 -0.3581  1.0891 -1.5892
  188SLPC   C2421678   6.443   4.693   7.281  0.0568 -0.2668 -0.3438
  188SLPC   H4R21679   6.389   4.789   7.289 -0.3892 -0.5741  0.5027
  188SLPC   H4S21680   6.545   4.719   7.244 -0.0529  0.8203  0.1038
  188SLPC   C2521681   6.447   4.632   7.420  0.7862  0.6461  0.4803
  188SLPC   H5R21682   6.459   4.525   7.393  0.0628  0.9525 -1.1941
  188SLPC   H5S21683   6.349   4.636   7.472  0.6015 -2.6189  0.6145
  188SLPC   C2621684   6.574   4.665   7.500 -0.6324  0.6215  0.3250
  188SLPC   H6R21685   6.572   4.766   7.546 -2.1322  0.2048  1.2504
  188SLPC   H6S21686   6.660   4.646   7.434 -0.9412 -0.6740  0.2552
  188SLPC   C2721687   6.593   4.573   7.625 -0.1770  0.4530 -0.2204
  188SLPC   H7R21688   6.702   4.579   7.645  0.2154 -2.1388 -1.2479
  188SLPC   H7S21689   6.577   4.470   7.586 -2.3856  1.5227 -2.3581
  188SLPC   C2821690   6.495   4.602   7.739 -0.2248 -0.3803 -0.8084
  188SLPC   H8R21691   6.492   4.527   7.820 -1.3111 -0.8241 -1.2441
  188SLPC   H8S21692   6.395   4.626   7.695 -0.1054  3.2987  0.5545
  188SLPC   C2921693   6.539   4.742   7.801 -0.2238 -0.5267 -1.0466
  188SLPC   H9R21694   6.503   4.836   7.756  0.9790  1.7410  2.3590
  188SLPC  C21021695   6.595   4.772   7.920 -0.5676  0.1466  0.2729
  188SLPC  H10R21696   6.650   4.868   7.922 -3.5367  1.9989 -0.8637
  188SLPC  C21121697   6.637   4.674   8.027 -0.3865  0.9320  0.1357
  188SLPC  H11R21698   6.746   4.694   8.041 -0.3339  0.4343  0.4482
  188SLPC  H11S21699   6.642   4.572   7.983  1.2100  0.4079  1.4358
  188SLPC  C21221700   6.580   4.676   8.166  0.2349 -0.2341 -0.4017
  188SLPC  H12R21701   6.527   4.584   8.196  1.4546 -1.2588 -1.2473
  188SLPC  C21321702   6.567   4.778   8.245 -0.5001 -0.3531 -0.2518
  188SLPC  H13R21703   6.519   4.762   8.342 -0.3074  2.1287  0.3041
  188SLPC  C21421704   6.628   4.918   8.221  0.2765  0.0548 -0.3702
  188SLPC  H14R21705   6.551   4.986   8.178  1.2037  0.3395 -1.6717
  188SLPC  H14S21706   6.714   4.920   8.150 -1.3279 -0.2116 -2.4277
  188SLPC  C21521707   6.666   4.971   8.359  1.0526  0.2196 -0.3456
  188SLPC  H15R21708   6.579   4.990   8.427  0.6246  1.0369 -1.0964
  188SLPC  H15S21709   6.685   5.078   8.336 -1.8690  0.4607 -2.1554
  188SLPC  C21621710   6.786   4.904   8.423 -0.7408 -0.8280  0.7666
  188SLPC  H16R21711   6.870   4.940   8.359 -1.4983  3.6228  1.9414
  188SLPC  H16S21712   6.780   4.793   8.424  2.3468 -1.1145 -0.8456
  188SLPC  C21721713   6.806   4.951   8.570 -0.1135 -0.1940 -0.3439
  188SLPC  H17R21714   6.729   4.897   8.629  1.6283 -3.1502 -0.5774
  188SLPC  H17S21715   6.790   5.061   8.574  1.2114  0.0104 -0.3306
  188SLPC  C21821716   6.938   4.920   8.634 -0.7739  0.3698  0.4504
  188SLPC  H18R21717   6.970   4.815   8.650  0.8816  1.2217  3.3773
  188SLPC  H18S21718   6.943   4.955   8.739  0.6486 -0.7829  0.8005
  188SLPC  H18T21719   7.026   4.964   8.581  0.1807 -0.3502  1.4037
  188SLPC   C3321720   6.992   4.864   7.265 -0.1036  0.5722  0.2555
  188SLPC   H3X21721   7.063   4.932   7.212 -1.6802  1.2034 -1.1416
  188SLPC   H3Y21722   7.022   4.758   7.247 -0.2996  0.7240 -1.1245
  188SLPC   C3421723   7.008   4.880   7.417 -0.2234 -0.4012  0.1242
  188SLPC   H4X21724   7.118   4.878   7.435 -0.3635 -0.9663  0.9447
  188SLPC   H4Y21725   6.960   4.792   7.465 -3.3995  0.3991 -1.3593
  188SLPC   C3521726   6.952   5.008   7.482 -0.6250 -0.4553  0.7307
  188SLPC   H5X21727   6.847   5.024   7.449 -0.5720  0.7185  1.0743
  188SLPC   H5Y21728   7.010   5.093   7.441  1.4425 -1.6827  0.9477
  188SLPC   C3621729   6.946   5.015   7.632 -0.2030 -0.0145 -0.6853
  188SLPC   H6X21730   7.047   4.993   7.672 -0.4471 -0.9873 -0.5743
  188SLPC   H6Y21731   6.872   4.948   7.681  1.0163 -0.1347  1.0776
  188SLPC   C3721732   6.907   5.153   7.683  0.1153  0.4937 -0.4068
  188SLPC   H7X21733   6.807   5.193   7.655  0.1417  1.1133  0.3388
  188SLPC   H7Y21734   6.962   5.230   7.624  1.9639 -1.5267 -1.4480
  188SLPC   C3821735   6.916   5.170   7.830  0.3345  0.5532  0.2111
  188SLPC   H8X21736   7.022   5.163   7.861 -0.6930 -5.3221  3.9872
  188SLPC   H8Y21737   6.867   5.086   7.884  0.9853 -0.0533 -0.1267
  188SLPC   C3921738   6.852   5.296   7.884  0.2098  0.9491 -0.3178
  188SLPC   H9X21739   6.748   5.294   7.844  0.6350 -0.7701 -1.4463
  188SLPC   H9Y21740   6.911   5.372   7.828  1.5633 -0.8752 -1.4853
  188SLPC  C31021741   6.863   5.301   8.041 -0.6732 -0.5219  0.5577
  188SLPC  H10X21742   6.971   5.291   8.066 -0.4296  1.0495  0.2659
  188SLPC  H10Y21743   6.805   5.217   8.084 -0.0692 -1.2480 -0.0214
  188SLPC  C31121744   6.812   5.434   8.107  0.9157  0.5247 -0.2511
  188SLPC  H11X21745   6.702   5.445   8.095  1.0442  0.6883 -1.3472
  188SLPC  H11Y21746   6.855   5.525   8.060  0.1298  1.7054  1.2286
  188SLPC  C31221747   6.843   5.444   8.260 -0.1901  0.4903  0.6294
  188SLPC  H12X21748   6.793   5.536   8.298 -4.1192 -1.2786  0.2241
  188SLPC  H12Y21749   6.954   5.442   8.264  0.0166  1.6075 -2.1152
  188SLPC  C31321750   6.789   5.326   8.346 -0.3642  0.1150 -0.6145
  188SLPC  H13X21751   6.854   5.243   8.311  2.9579  1.2172  2.2872
  188SLPC  H13Y21752   6.682   5.303   8.332 -1.3413  2.1037  2.3844
  188SLPC  C31421753   6.819   5.361   8.500  0.6995  0.8540 -0.3504
  188SLPC  H14X21754   6.921   5.319   8.514  0.7341  1.6633  2.2177
  188SLPC  H14Y21755   6.745   5.299   8.554  3.2073 -1.2193  0.9347
  188SLPC  C31521756   6.815   5.507   8.550  0.1302  0.1227 -0.0851
  188SLPC  H15X21757   6.893   5.560   8.490  1.6251 -1.6583  0.1893
  188SLPC  H15Y21758   6.834   5.500   8.659  1.6467  0.1361 -0.3338
  188SLPC  C31621759   6.679   5.584   8.543 -0.1515  0.3074 -0.2846
  188SLPC  H16X21760   6.633   5.587   8.442  0.6833 -0.5161 -0.6891
  188SLPC  H16Y21761   6.694   5.693   8.561  0.3556  0.2484 -0.3559
  188SLPC  C31721762   6.573   5.523   8.641 -0.1282 -0.2480  0.0926
  188SLPC  H17X21763   6.617   5.531   8.743 -0.9619 -0.2299  0.4585
  188SLPC  H17Y21764   6.560   5.416   8.612 -1.1523 -0.1970  0.2977
  188SLPC  C31821765   6.437   5.581   8.629  0.2059  0.0333  1.0348
  188SLPC  H18X21766   6.358   5.550   8.700  0.9210 -1.2061  1.3224
  188SLPC  H18Y21767   6.405   5.557   8.525 -0.4472 -1.2164  1.5132
  188SLPC  H18Z21768   6.425   5.691   8.637 -1.0984 -0.1490  1.7685
  189SLPC     N21769   0.159   5.047   6.253 -0.2888  0.1161 -0.0389
  189SLPC   C1321770   0.086   4.969   6.363 -0.0367 -0.2461 -0.2850
  189SLPC  H13A21771   0.153   4.890   6.396  1.0066  0.9074  0.4397
  189SLPC  H13B21772   0.063   5.030   6.449 -1.1654  0.1595 -0.8620
  189SLPC  H13C21773  -0.002   4.919   6.327 -0.5059 -0.4089  1.0221
  189SLPC   C1421774   0.073   5.164   6.208  0.2336  0.3146 -0.1877
  189SLPC  H14A21775   0.128   5.220   6.135  1.0726 -0.3045 -0.0367
  189SLPC  H14B21776  -0.023   5.118   6.189  1.7237 -3.2713  0.3097
  189SLPC  H14C21777   0.054   5.233   6.289 -1.9844 -0.1769 -0.2098
  189SLPC   C1521778   0.161   4.963   6.131 -0.1596  0.5897  0.0760
  189SLPC  H15A21779   0.252   4.989   6.079 -0.2789  1.0355  0.0868
  189SLPC  H15B21780   0.161   4.858   6.156 -0.9270  0.3394 -0.9376
  189SLPC  H15C21781   0.070   4.984   6.078 -1.3755  0.8309  2.1583
  189SLPC   C1221782   0.298   5.082   6.295 -0.4673 -0.2152 -0.5116
  189SLPC  H12A21783   0.359   5.105   6.209  0.0281 -1.0464 -0.3954
  189SLPC  H12B21784   0.335   4.988   6.335 -0.5471 -0.3205 -0.6858
  189SLPC   C1121785   0.327   5.190   6.403 -0.6031  0.3318 -0.5229
  189SLPC  H11A21786   0.428   5.190   6.450 -1.8115  0.7602  2.2840
  189SLPC  H11B21787   0.262   5.158   6.487  1.4071  0.1053  1.0354
  189SLPC     P21788   0.376   5.413   6.291 -0.1734  0.0034 -0.3955
  189SLPC   O1321789   0.482   5.338   6.218 -0.0308 -0.3064 -0.0614
  189SLPC   O1421790   0.288   5.502   6.215  0.5163 -0.1458  0.3610
  189SLPC   O1221791   0.283   5.315   6.367  0.6738 -0.0889  0.5981
  189SLPC   O1121792   0.454   5.486   6.399  0.0237  0.2255  0.1222
  189SLPC    C121793   0.414   5.600   6.470  0.5235 -1.0532 -0.0115
  189SLPC    HA21794   0.489   5.675   6.436  1.7451 -1.8574  0.8606
  189SLPC    HB21795   0.309   5.629   6.447  0.1911 -1.8973  0.3993
  189SLPC    C221796   0.431   5.591   6.626  0.6619  0.0588 -0.4964
  189SLPC    HS21797   0.538   5.566   6.639  0.2224 -1.2206  1.2257
  189SLPC   O2121798   0.341   5.489   6.678 -0.4516  0.0440 -0.0952
  189SLPC   C2121799   0.372   5.369   6.708 -1.0662  0.4416  0.2842
  189SLPC   O2221800   0.488   5.322   6.708 -0.0500  0.6821  0.2356
  189SLPC   C2221801   0.248   5.289   6.748  0.6631  0.7027 -0.2188
  189SLPC   H2R21802   0.162   5.325   6.688 -0.0182  1.7866  1.3500
  189SLPC   H2S21803   0.261   5.182   6.720 -0.2350  1.1799 -2.6691
  189SLPC    C321804   0.404   5.721   6.701 -0.0337  0.5061  0.4283
  189SLPC    HX21805   0.306   5.719   6.754  0.3920 -2.4403  1.3377
  189SLPC    HY21806   0.393   5.794   6.619  0.8186 -0.2299 -0.3609
  189SLPC   O3121807   0.517   5.746   6.787  0.0301  0.5306  0.1799
  189SLPC   C3121808   0.542   5.878   6.812 -0.1368 -0.1610  0.3604
  189SLPC   O3221809   0.475   5.970   6.776 -0.2469 -0.1421 -0.0697
  189SLPC   C3221810   0.670   5.882   6.890 -1.0770  1.0956 -0.0451
  189SLPC   H2X21811   0.734   5.799   6.853 -1.4330  0.9979 -0.4444
  189SLPC   H2Y21812   0.637   5.871   6.996  0.5946  1.1091  0.5034
  189SLPC   C2321813   0.209   5.317   6.895 -0.2744 -0.3368 -0.4422
  189SLPC   H3R21814   0.182   5.421   6.921 -1.1877 -1.3446  3.1346
  189SLPC   H3S21815   0.294   5.295   6.963 -2.3471 -1.6365  1.8702
  189SLPC   C2421816   0.091   5.232   6.936 -0.1448  0.3532 -0.7320
  189SLPC   H4R21817   0.124   5.127   6.920  0.4237  0.5473 -0.8564
  189SLPC   H4S21818  -0.001   5.257   6.878 -0.1683  1.9417 -0.0471
  189SLPC   C2521819   0.054   5.228   7.083  0.1622  0.3634  0.4493
  189SLPC   H5R21820   0.149   5.205   7.136  0.0397 -1.0746  0.0792
  189SLPC   H5S21821  -0.007   5.137   7.100  1.1379 -0.1063  1.5469
  189SLPC   C2621822  -0.001   5.357   7.140  0.6338 -0.8281  1.1645
  189SLPC   H6R21823  -0.109   5.370   7.119  1.0525 -0.5481 -0.9933
  189SLPC   H6S21824   0.049   5.445   7.093  3.3952 -2.3460  1.0230
  189SLPC   C2721825   0.018   5.362   7.292 -0.2963 -0.1187 -0.3417
  189SLPC   H7R21826   0.126   5.352   7.315 -0.1827  0.9074 -0.3916
  189SLPC   H7S21827  -0.038   5.280   7.342  1.5046  0.6481  3.2864
  189SLPC   C2821828  -0.011   5.501   7.342  0.7396  0.0844  0.1570
  189SLPC   H8R21829  -0.118   5.525   7.324  0.3401  1.1717  3.2829
  189SLPC   H8S21830   0.049   5.577   7.287  1.3889  0.2160  1.0114
  189SLPC   C2921831   0.032   5.528   7.492 -0.1988 -0.5050  0.4877
  189SLPC   H9R21832   0.139   5.556   7.497 -0.1376 -0.1071 -1.8818
  189SLPC  C21021833  -0.046   5.520   7.602  0.4023 -0.3513  0.0033
  189SLPC  H10R21834   0.000   5.551   7.697  0.4501 -1.6299  0.4128
  189SLPC  C21121835  -0.192   5.490   7.608  0.1253 -0.0699 -0.1808
  189SLPC  H11R21836  -0.226   5.505   7.713 -0.4126  1.6981 -0.5756
  189SLPC  H11S21837  -0.207   5.381   7.587 -1.3881  0.1317 -0.2993
  189SLPC  C21221838  -0.287   5.555   7.511 -0.1003  0.1616 -0.1970
  189SLPC  H12R21839  -0.301   5.506   7.414 -0.2500  1.8125 -1.0410
  189SLPC  C21321840  -0.375   5.655   7.535 -0.7417 -0.1355 -0.5717
  189SLPC  H13R21841  -0.443   5.675   7.451  0.1892 -0.1330 -1.3523
  189SLPC  C21421842  -0.397   5.731   7.661 -0.1799  0.0058 -0.9474
  189SLPC  H14R21843  -0.382   5.839   7.641  3.0938 -0.0857  0.3649
  189SLPC  H14S21844  -0.327   5.700   7.742 -2.5206 -3.1290  0.1102
  189SLPC  C21521845  -0.525   5.708   7.733  0.2113 -0.2159 -0.0002
  189SLPC  H15R21846  -0.547   5.599   7.732  0.0296 -0.1980  0.9726
  189SLPC  H15S21847  -0.614   5.765   7.698 -0.1966  0.3121  1.7564
  189SLPC  C21621848  -0.526   5.748   7.885 -0.9479  0.3871  0.6429
  189SLPC  H16R21849  -0.452   5.681   7.934 -1.7628  0.1998  1.6433
  189SLPC  H16S21850  -0.618   5.706   7.933 -0.4089 -1.3227  0.2756
  189SLPC  C21721851  -0.473   5.892   7.922  0.3034 -0.5090 -0.8822
  189SLPC  H17R21852  -0.556   5.961   7.894  1.0187  0.7952  0.0931
  189SLPC  H17S21853  -0.380   5.909   7.865  0.5178 -0.1702 -0.4440
  189SLPC  C21821854  -0.448   5.918   8.072  0.1992 -0.3236 -0.5039
  189SLPC  H18R21855  -0.541   5.888   8.126 -0.0894 -1.9844 -1.8566
  189SLPC  H18S21856  -0.418   6.023   8.090 -0.3158 -0.5448  1.9966
  189SLPC  H18T21857  -0.358   5.863   8.104  1.2561  1.2864 -0.5863
  189SLPC   C3321858   0.741   6.016   6.856  0.3372  0.3813  1.0937
  189SLPC   H3X21859   0.670   6.100   6.869 -0.1068  0.0806  0.6519
  189SLPC   H3Y21860   0.781   6.031   6.753 -0.7264  0.5186  0.6878
  189SLPC   C3421861   0.854   6.062   6.956  0.5924 -0.3999  0.8854
  189SLPC   H4X21862   0.942   5.994   6.952  0.5838 -0.3981  0.6215
  189SLPC   H4Y21863   0.819   6.048   7.060 -0.5605  0.0412  0.5739
  189SLPC   C3521864   0.895   6.210   6.928 -0.3814 -0.1208 -0.0245
  189SLPC   H5X21865   0.801   6.269   6.926  0.0107  0.5691  1.0528
  189SLPC   H5Y21866   0.947   6.226   6.831  1.0246  0.9635  0.8790
  189SLPC   C3621867   0.978   6.261   7.047  0.3439 -0.2094 -0.5392
  189SLPC   H6X21868   1.045   6.344   7.015  1.0735 -0.6588 -0.2089
  189SLPC   H6Y21869   1.050   6.186   7.086 -0.4070 -1.1395 -0.9258
  189SLPC   C3721870   0.898   6.286   7.180 -0.0572  0.5418 -0.1770
  189SLPC   H7X21871   0.832   6.199   7.201  0.8787 -0.2502 -0.4184
  189SLPC   H7Y21872   0.842   6.381   7.169 -0.5774  0.2997  0.3521
  189SLPC   C3821873   0.996   6.301   7.297 -0.2556  0.1809  0.2523
  189SLPC   H8X21874   1.058   6.391   7.276 -0.6145  0.3138 -0.2557
  189SLPC   H8Y21875   1.069   6.217   7.297 -0.5151 -0.0613 -0.9494
  189SLPC   C3921876   0.919   6.308   7.430  0.3163 -0.2850  0.7106
  189SLPC   H9X21877   0.880   6.206   7.450 -0.1561 -0.7342 -2.1501
  189SLPC   H9Y21878   0.828   6.371   7.425  0.4661 -0.1201 -0.0749
  189SLPC  C31021879   0.993   6.355   7.554 -0.4622  0.1903  0.4387
  189SLPC  H10X21880   1.006   6.464   7.539 -0.6811  0.2870  0.9299
  189SLPC  H10Y21881   1.088   6.298   7.557 -0.4003  0.1568 -1.1379
  189SLPC  C31121882   0.903   6.321   7.675 -0.1485  0.5324 -0.1706
  189SLPC  H11X21883   0.889   6.212   7.689  0.1301  0.6032  0.7235
  189SLPC  H11Y21884   0.799   6.356   7.657 -0.6144 -1.7684 -2.5199
  189SLPC  C31221885   0.952   6.387   7.800  0.0923 -0.3184  0.1010
  189SLPC  H12X21886   1.063   6.395   7.799  0.2343 -2.0132 -0.5968
  189SLPC  H12Y21887   0.941   6.322   7.889  1.5184 -0.7655 -0.0266
  189SLPC  C31321888   0.908   6.533   7.824 -0.7487 -0.1048  0.2953
  189SLPC  H13X21889   0.808   6.537   7.872 -0.3308 -0.1863  1.1813
  189SLPC  H13Y21890   0.897   6.575   7.721 -0.2428 -0.4914  0.0777
  189SLPC  C31421891   1.002   6.614   7.917  0.1505 -0.5689 -0.2248
  189SLPC  H14X21892   0.970   6.720   7.927  3.3695  0.7235 -1.8643
  189SLPC  H14Y21893   1.098   6.634   7.864  0.4303 -1.5432 -0.1059
  189SLPC  C31521894   1.027   6.554   8.059 -0.3746  0.6679  0.1204
  189SLPC  H15X21895   1.080   6.625   8.126  1.0717  1.4931 -1.8249
  189SLPC  H15Y21896   1.089   6.465   8.034 -0.7053  0.0813  1.2803
  189SLPC  C31621897   0.904   6.498   8.129  0.1868 -1.0458 -0.0968
  189SLPC  H16X21898   0.861   6.408   8.078 -3.1930 -0.6155  1.7178
  189SLPC  H16Y21899   0.842   6.590   8.128  0.9919 -0.4699 -2.1858
  189SLPC  C31721900   0.909   6.458   8.278 -0.3753  1.0093  0.1194
  189SLPC  H17X21901   0.967   6.536   8.331 -0.1250  0.7029  0.2976
  189SLPC  H17Y21902   0.970   6.369   8.305  1.3491  1.4601 -1.9868
  189SLPC  C31821903   0.771   6.416   8.328  0.1929 -0.0696 -0.3230
  189SLPC  H18X21904   0.782   6.399   8.437  2.5979 -2.1087 -0.7894
  189SLPC  H18Y21905   0.735   6.320   8.285 -2.1870 -0.3002  1.8974
  189SLPC  H18Z21906   0.700   6.495   8.295 -0.0978 -0.5128 -0.7702
  190SLPC     N21907   1.189   1.188   6.007  0.0947  0.1637 -0.2268
  190SLPC   C1321908   1.135   1.147   5.877  0.6618  0.3195 -0.2153
  190SLPC  H13A21909   1.131   1.039   5.868 -0.5881  0.3466 -0.0822
  190SLPC  H13B21910   1.033   1.171   5.853  0.2492 -1.1392 -0.0384
  190SLPC  H13C21911   1.197   1.196   5.803  0.4987  1.2877  0.2737
  190SLPC   C1421912   1.197   1.337   6.023 -0.2925 -0.0300 -0.3527
  190SLPC  H14A21913   1.239   1.382   5.935 -1.1472 -0.2333 -0.8790
  190SLPC  H14B21914   1.101   1.376   6.053 -0.8154 -1.1348 -0.5667
  190SLPC  H14C21915   1.258   1.372   6.105 -0.4790 -1.0326  0.2348
  190SLPC   C1521916   1.327   1.131   6.025  0.4807 -0.1465  0.0284
  190SLPC  H15A21917   1.388   1.168   5.944 -0.5493 -1.4662 -1.4049
  190SLPC  H15B21918   1.353   1.169   6.123 -2.2567  1.3853  0.2469
  190SLPC  H15C21919   1.332   1.023   6.016 -0.2841 -0.3452  1.6986
  190SLPC   C1221920   1.120   1.135   6.127 -0.0123  0.1012 -0.5385
  190SLPC  H12A21921   1.188   1.138   6.211  0.3369  0.1066 -0.8189
  190SLPC  H12B21922   1.095   1.031   6.114  0.3948 -0.2462  1.2018
  190SLPC   C1121923   0.990   1.206   6.169 -0.4462  0.3900  0.5139
  190SLPC  H11A21924   0.926   1.216   6.079  0.4629  0.0975 -0.1741
  190SLPC  H11B21925   1.014   1.310   6.201  0.2138  0.5469 -0.4613
  190SLPC     P21926   0.891   0.982   6.261 -0.0189  0.0047  0.1896
  190SLPC   O1321927   0.778   0.990   6.164  0.0068 -0.4362 -0.1397
  190SLPC   O1421928   1.009   0.899   6.230 -0.3289  0.0625 -0.1340
  190SLPC   O1221929   0.935   1.133   6.273 -0.4817 -0.3175 -0.8184
  190SLPC   O1121930   0.836   0.951   6.403 -0.4017  0.4753  0.0729
  190SLPC    C121931   0.899   1.004   6.516  0.2737 -0.7965  0.0390
  190SLPC    HA21932   0.977   1.078   6.488  1.2073 -1.1938  1.4632
  190SLPC    HB21933   0.825   1.047   6.587  0.0156  1.9214 -1.7172
  190SLPC    C221934   0.994   0.904   6.598 -0.0144  0.0907  0.0869
  190SLPC    HS21935   1.028   0.830   6.522 -0.4168  2.0551 -2.1421
  190SLPC   O2121936   0.912   0.845   6.698  0.0347  0.5392  0.0804
  190SLPC   C2121937   0.974   0.743   6.755  0.0182 -0.5730  0.0220
  190SLPC   O2221938   1.083   0.698   6.718 -0.3457  0.6707 -0.1674
  190SLPC   C2221939   0.891   0.701   6.877 -0.2472  0.1031  0.5839
  190SLPC   H2R21940   0.874   0.799   6.928 -1.5938  0.9770 -1.4293
  190SLPC   H2S21941   0.793   0.658   6.848 -0.2195  0.6278 -0.3208
  190SLPC    C321942   1.116   0.979   6.652 -0.3800  0.4723  0.0021
  190SLPC    HX21943   1.169   1.021   6.563  0.3192  1.6922  0.9473
  190SLPC    HY21944   1.196   0.911   6.687 -1.1772 -2.1847 -2.8998
  190SLPC   O3121945   1.077   1.089   6.746  0.0089  0.6152  0.7440
  190SLPC   C3121946   1.082   1.056   6.871  0.0052  0.3381  0.2499
  190SLPC   O3221947   1.125   0.954   6.924  0.2446  0.0924 -0.5963
  190SLPC   C3221948   1.010   1.162   6.953 -0.3807 -0.3154  0.1554
  190SLPC   H2X21949   0.904   1.148   6.923 -0.9174  0.2508  1.6602
  190SLPC   H2Y21950   1.050   1.258   6.915 -1.9666 -0.3189 -1.6243
  190SLPC   C2321951   0.971   0.616   6.983  0.4147 -0.4487  0.1041
  190SLPC   H3R21952   1.035   0.692   7.031 -0.1199 -0.5377  0.9853
  190SLPC   H3S21953   1.032   0.541   6.928  0.5137  1.0936 -1.9897
  190SLPC   C2421954   0.870   0.554   7.076 -0.2229 -0.8271  0.2782
  190SLPC   H4R21955   0.803   0.488   7.017  0.5623  1.7441 -3.8683
  190SLPC   H4S21956   0.801   0.630   7.119  2.0729  1.6128 -0.0798
  190SLPC   C2521957   0.940   0.477   7.188 -0.9478  0.3548 -0.0519
  190SLPC   H5R21958   1.018   0.542   7.232 -1.1660 -1.3115  3.1115
  190SLPC   H5S21959   0.988   0.390   7.138 -1.6902  0.6342 -1.2968
  190SLPC   C2621960   0.844   0.440   7.305 -0.8707 -0.3291 -0.2988
  190SLPC   H6R21961   0.789   0.527   7.345  0.1032  0.4454 -0.6117
  190SLPC   H6S21962   0.909   0.420   7.393 -1.1274 -0.2003 -0.0802
  190SLPC   C2721963   0.745   0.327   7.283  0.2719 -0.0063 -0.0093
  190SLPC   H7R21964   0.808   0.237   7.266  0.0060  0.2162 -2.5911
  190SLPC   H7S21965   0.688   0.343   7.189 -1.3728  0.3793  1.0169
  190SLPC   C2821966   0.657   0.292   7.396 -0.0140  0.4352 -0.2469
  190SLPC   H8R21967   0.716   0.288   7.490 -0.6736  0.1016  0.1695
  190SLPC   H8S21968   0.618   0.188   7.388 -0.3893  0.7166 -3.1723
  190SLPC   C2921969   0.535   0.378   7.412 -0.0361  0.6613 -0.6052
  190SLPC   H9R21970   0.483   0.394   7.317 -0.7438  0.5444 -0.2430
  190SLPC  C21021971   0.494   0.449   7.517  0.3782  0.6640 -0.3628
  190SLPC  H10R21972   0.402   0.509   7.509 -0.3589 -0.6178 -2.8995
  190SLPC  C21121973   0.549   0.436   7.662 -0.3518 -0.9542  1.0668
  190SLPC  H11R21974   0.547   0.534   7.714  1.9292  0.0333 -0.5656
  190SLPC  H11S21975   0.655   0.403   7.664 -1.1487 -3.7485  2.8039
  190SLPC  C21221976   0.467   0.337   7.742 -0.1059 -0.3285  0.8003
  190SLPC  H12R21977   0.454   0.237   7.698  0.5479  0.3774 -1.0748
  190SLPC  C21321978   0.392   0.367   7.852 -0.5048 -0.7438  0.2564
  190SLPC  H13R21979   0.328   0.290   7.897 -1.1806  0.5680  1.5957
  190SLPC  C21421980   0.394   0.508   7.912  0.0799 -0.3563  0.9668
  190SLPC  H14R21981   0.352   0.574   7.833 -1.3344 -0.5386  1.5220
  190SLPC  H14S21982   0.495   0.550   7.928  0.3377  0.4041 -2.0168
  190SLPC  C21521983   0.311   0.512   8.045  0.4809 -0.1591  0.0912
  190SLPC  H15R21984   0.318   0.611   8.095 -1.0672  0.6096 -1.1351
  190SLPC  H15S21985   0.347   0.432   8.113 -0.9710 -1.8015 -0.9805
  190SLPC  C21621986   0.158   0.495   8.019  0.1550  0.3066 -0.1762
  190SLPC  H16R21987   0.127   0.404   7.963 -0.1250 -0.9156  1.8694
  190SLPC  H16S21988   0.124   0.581   7.957 -4.8029 -0.2514  1.3257
  190SLPC  C21721989   0.083   0.497   8.152 -0.4650  0.4467 -0.0611
  190SLPC  H17R21990   0.107   0.590   8.209 -0.0634 -0.6422  1.6058
  190SLPC  H17S21991   0.122   0.414   8.215  2.1727 -0.2772 -2.4505
  190SLPC  C21821992  -0.070   0.493   8.124 -0.3276  0.1392  0.1318
  190SLPC  H18R21993  -0.120   0.483   8.222  1.8752 -1.2135  1.2112
  190SLPC  H18S21994  -0.089   0.404   8.060 -0.8707 -0.0729  0.5805
  190SLPC  H18T21995  -0.084   0.583   8.061  1.7233  0.0499 -0.5288
  190SLPC   C3321996   1.024   1.137   7.112  0.4777 -0.1916 -0.4533
  190SLPC   H3X21997   0.995   1.224   7.175  2.1857 -1.4418  2.2331
  190SLPC   H3Y21998   1.133   1.120   7.127  0.8738  1.4066 -1.3455
  190SLPC   C3421999   0.944   1.016   7.162  0.2318 -0.2464  0.5853
  190SLPC   H4X22000   0.998   0.930   7.118 -0.9263 -0.8666  0.3398
  190SLPC   H4Y22001   0.844   1.016   7.114  1.2949 -1.0645 -1.7734
  190SLPC   C3522002   0.950   1.004   7.307  0.5778  0.4576 -0.1854
  190SLPC   H5X22003   0.874   1.072   7.350  0.9656  0.9161 -0.2154
  190SLPC   H5Y22004   1.054   1.029   7.339  0.1356  0.2212  1.5052
  190SLPC   C3622005   0.905   0.871   7.357 -0.3354  0.6614 -0.0540
  190SLPC   H6X22006   0.955   0.793   7.296 -0.3311  0.5418  0.1005
  190SLPC   H6Y22007   0.798   0.879   7.331 -1.3930  0.5418  3.6660
  190SLPC   C3722008   0.924   0.854   7.508 -0.6758 -0.1372  0.0341
  190SLPC   H7X22009   0.872   0.935   7.562 -0.8211  0.2157 -0.6168
  190SLPC   H7Y22010   1.032   0.844   7.533 -0.7703 -0.8043  0.2052
  190SLPC   C3822011   0.879   0.720   7.571  0.6267  0.0181  0.0650
  190SLPC   H8X22012   0.957   0.653   7.530  1.1698 -0.8565  2.3584
  190SLPC   H8Y22013   0.787   0.692   7.515  0.5245 -0.0192  0.2522
  190SLPC   C3922014   0.869   0.706   7.728 -0.3403  0.3318 -0.2729
  190SLPC   H9X22015   0.970   0.695   7.772 -1.5694  0.3380  2.7934
  190SLPC   H9Y22016   0.815   0.613   7.755  0.5302 -1.1515 -3.2376
  190SLPC  C31022017   0.798   0.824   7.796 -0.8321  0.1264 -0.5430
  190SLPC  H10X22018   0.703   0.844   7.742 -1.3818 -0.2950  0.2437
  190SLPC  H10Y22019   0.860   0.915   7.785  0.9748 -0.9062  0.5466
  190SLPC  C31122020   0.749   0.811   7.945  0.0342 -0.4454  0.5067
  190SLPC  H11X22021   0.850   0.777   7.977 -0.6680 -0.3807  2.9473
  190SLPC  H11Y22022   0.666   0.739   7.962 -1.5192  1.0809 -0.3044
  190SLPC  C31222023   0.729   0.949   8.007  0.2077  0.2744 -0.4038
  190SLPC  H12X22024   0.650   1.000   7.948  1.0190 -0.1461 -1.9183
  190SLPC  H12Y22025   0.829   0.998   8.003  0.4189 -0.0409  0.7660
  190SLPC  C31322026   0.705   0.942   8.161  0.1176 -0.5032  0.0769
  190SLPC  H13X22027   0.800   0.908   8.208  0.8158  1.4572  0.1646
  190SLPC  H13Y22028   0.624   0.867   8.172  0.0192 -0.5464 -0.8837
  190SLPC  C31422029   0.663   1.082   8.216  0.0537 -0.2720  1.2289
  190SLPC  H14X22030   0.553   1.092   8.201  0.1296  0.4968  1.1672
  190SLPC  H14Y22031   0.710   1.163   8.156  0.2570  1.2877  3.3989
  190SLPC  C31522032   0.702   1.104   8.364 -0.1576  0.1113  0.6585
  190SLPC  H15X22033   0.654   1.197   8.400 -0.4509  0.5259 -0.7457
  190SLPC  H15Y22034   0.811   1.123   8.366 -0.1874  0.5296 -0.6460
  190SLPC  C31622035   0.649   0.985   8.461  0.0812 -0.1453 -0.7443
  190SLPC  H16X22036   0.696   0.891   8.423  1.2229  0.1332 -0.0865
  190SLPC  H16Y22037   0.541   0.961   8.457  0.1571 -1.3101  2.2024
  190SLPC  C31722038   0.685   1.010   8.602  0.0897 -0.2187 -0.1165
  190SLPC  H17X22039   0.633   1.097   8.648 -0.0190 -1.4467  2.2016
  190SLPC  H17Y22040   0.790   1.041   8.616  0.3382 -1.3453  0.6006
  190SLPC  C31822041   0.658   0.892   8.700 -0.1949 -0.2027  0.2814
  190SLPC  H18X22042   0.706   0.802   8.656 -2.5169 -1.1992 -0.3565
  190SLPC  H18Y22043   0.553   0.866   8.726  0.9688 -2.0198  3.8046
  190SLPC  H18Z22044   0.699   0.919   8.799 -1.1181  2.1597  0.0900
  191SLPC     N22045   5.287   1.084   5.750 -0.1246 -0.1570 -0.2238
  191SLPC   C1322046   5.210   0.960   5.744  0.1965  0.4584  0.1858
  191SLPC  H13A22047   5.253   0.876   5.691 -0.1810 -0.6822  1.6131
  191SLPC  H13B22048   5.194   0.929   5.846  2.2948 -0.1681  0.3783
  191SLPC  H13C22049   5.114   0.975   5.697  0.8097  0.1339 -1.2355
  191SLPC   C1422050   5.206   1.183   5.832  0.0799 -0.0389  0.4176
  191SLPC  H14A22051   5.161   1.138   5.919 -2.0536 -0.2913 -0.7263
  191SLPC  H14B22052   5.271   1.265   5.860 -0.5383  0.9305 -0.8609
  191SLPC  H14C22053   5.131   1.232   5.771 -1.1762 -0.7600  1.3251
  191SLPC   C1522054   5.303   1.145   5.613  0.4840  0.0095  0.1084
  191SLPC  H15A22055   5.207   1.168   5.568  1.1188  0.3181 -1.1436
  191SLPC  H15B22056   5.349   1.243   5.615 -1.4261  1.0889 -2.3930
  191SLPC  H15C22057   5.350   1.071   5.550  1.1820  0.6271 -0.1168
  191SLPC   C1222058   5.426   1.071   5.813  0.8233  0.5427 -0.1115
  191SLPC  H12A22059   5.471   0.989   5.759  0.7916  0.7277 -0.4233
  191SLPC  H12B22060   5.409   1.028   5.911 -2.3842 -0.2690 -0.9232
  191SLPC   C1122061   5.530   1.190   5.821  0.6007 -0.5961  0.0146
  191SLPC  H11A22062   5.530   1.211   5.712 -0.0363 -1.3901 -0.1412
  191SLPC  H11B22063   5.637   1.165   5.842  0.3714  0.8408  3.8040
  191SLPC     P22064   5.489   1.299   6.050 -0.3987 -0.1404  0.4245
  191SLPC   O1322065   5.630   1.304   6.098  0.5233 -0.5282 -0.1205
  191SLPC   O1422066   5.397   1.406   6.101  0.4861  0.1645  0.2463
  191SLPC   O1222067   5.485   1.307   5.893  0.0894 -0.5573 -0.0439
  191SLPC   O1122068   5.436   1.150   6.078 -0.0648 -0.1059 -0.2504
  191SLPC    C122069   5.517   1.039   6.120  0.4146 -0.0797  0.6320
  191SLPC    HA22070   5.500   0.951   6.054  1.5744  0.5533 -0.5712
  191SLPC    HB22071   5.625   1.056   6.102 -0.2585  3.6644 -0.7041
  191SLPC    C222072   5.498   1.002   6.272 -0.3339 -0.2858  0.5139
  191SLPC    HS22073   5.579   0.930   6.298  0.1919  0.5508  1.2693
  191SLPC   O2122074   5.363   0.956   6.288  0.0245  0.2832  0.2934
  191SLPC   C2122075   5.353   0.859   6.381 -0.0137 -0.2121  0.1493
  191SLPC   O2222076   5.449   0.811   6.443  0.0315 -0.5008 -0.2398
  191SLPC   C2222077   5.206   0.816   6.390 -0.6843  0.3543  1.0107
  191SLPC   H2R22078   5.167   0.811   6.286  0.0207  0.4487  0.7378
  191SLPC   H2S22079   5.203   0.711   6.428  0.8786  0.3377  1.1678
  191SLPC    C322080   5.526   1.125   6.367  0.4739  0.2201 -0.4383
  191SLPC    HX22081   5.437   1.192   6.361 -0.6636 -1.1860  0.0653
  191SLPC    HY22082   5.613   1.173   6.319 -0.4522  0.5160 -1.8701
  191SLPC   O3122083   5.561   1.074   6.497  0.6010  0.2335  0.2084
  191SLPC   C3122084   5.645   1.151   6.568  0.7277  0.7767 -0.1981
  191SLPC   O3222085   5.704   1.250   6.528 -0.4646 -0.7053 -0.6193
  191SLPC   C3222086   5.671   1.079   6.701  0.1603 -0.9609 -0.5479
  191SLPC   H2X22087   5.764   1.020   6.684  0.0914 -0.9857 -0.8455
  191SLPC   H2Y22088   5.581   1.019   6.722 -0.2190 -0.0119  0.6607
  191SLPC   C2322089   5.135   0.911   6.485 -0.3643 -0.0042 -0.0889
  191SLPC   H3R22090   5.028   0.914   6.454  0.0390  2.1062 -1.5180
  191SLPC   H3S22091   5.182   1.010   6.466  0.7527 -1.0218 -3.0277
  191SLPC   C2422092   5.164   0.860   6.628 -0.1170 -0.6444 -0.1116
  191SLPC   H4R22093   5.272   0.832   6.630 -0.0994 -1.2235 -3.2906
  191SLPC   H4S22094   5.106   0.765   6.634 -2.4820  0.8180  1.9594
  191SLPC   C2522095   5.134   0.951   6.738 -0.0622  0.3230  0.5853
  191SLPC   H5R22096   5.024   0.952   6.753 -0.2723 -0.2355 -0.7428
  191SLPC   H5S22097   5.175   1.051   6.713  0.3884 -0.5650 -2.7837
  191SLPC   C2622098   5.198   0.909   6.872 -0.6762  0.1732  0.4997
  191SLPC   H6R22099   5.174   0.803   6.892  1.2185 -0.8547 -2.1372
  191SLPC   H6S22100   5.155   0.975   6.951  1.9042  2.5479  0.0468
  191SLPC   C2722101   5.353   0.928   6.864  0.9212 -0.7633 -0.3070
  191SLPC   H7R22102   5.376   1.016   6.801  1.4638 -1.6326 -1.3490
  191SLPC   H7S22103   5.400   0.844   6.810  0.1362 -0.2006 -1.9338
  191SLPC   C2822104   5.430   0.918   6.996 -0.4125  0.4504 -0.9328
  191SLPC   H8R22105   5.535   0.936   6.964 -0.5121  1.4469 -0.7244
  191SLPC   H8S22106   5.411   0.818   7.039 -0.1676  0.9242  0.3295
  191SLPC   C2922107   5.399   1.043   7.083  0.2032  0.4397  0.5668
  191SLPC   H9R22108   5.434   1.136   7.035  3.7384 -0.6197  0.7587
  191SLPC  C21022109   5.334   1.046   7.200  0.4953  0.1444  0.0858
  191SLPC  H10R22110   5.323   1.146   7.245  0.3950  0.4812 -0.6789
  191SLPC  C21122111   5.279   0.932   7.276  0.3727 -0.7423  0.4177
  191SLPC  H11R22112   5.211   0.881   7.204  0.6226 -1.5647  0.7453
  191SLPC  H11S22113   5.198   0.970   7.342 -2.6137 -1.8933 -2.2813
  191SLPC  C21222114   5.376   0.834   7.344 -0.0019 -0.8836  0.8620
  191SLPC  H12R22115   5.424   0.759   7.280  1.6963  0.0867  0.9293
  191SLPC  C21322116   5.422   0.827   7.473  0.1546  0.2477 -0.1163
  191SLPC  H13R22117   5.489   0.745   7.501  0.6101  0.5549 -0.2836
  191SLPC  C21422118   5.382   0.928   7.575  0.0709 -0.2920 -0.3928
  191SLPC  H14R22119   5.274   0.954   7.580  0.5211  1.4466  1.4383
  191SLPC  H14S22120   5.448   1.013   7.547  1.2828 -0.6951  1.1189
  191SLPC  C21522121   5.405   0.888   7.720  0.2134 -0.2794  0.9516
  191SLPC  H15R22122   5.508   0.849   7.731  0.5633  0.0311 -0.9453
  191SLPC  H15S22123   5.342   0.799   7.741  1.2566 -0.1889  5.5982
  191SLPC  C21622124   5.354   0.992   7.825 -0.0681 -0.0757 -0.1414
  191SLPC  H16R22125   5.246   0.997   7.797 -0.1872 -0.2377  0.2886
  191SLPC  H16S22126   5.392   1.096   7.818  2.0238 -0.7912 -0.3129
  191SLPC  C21722127   5.383   0.939   7.957 -0.6936  0.0805 -0.1474
  191SLPC  H17R22128   5.492   0.921   7.970 -0.6762  0.1860 -0.1470
  191SLPC  H17S22129   5.332   0.840   7.958 -2.4509  0.9505  0.2222
  191SLPC  C21822130   5.336   1.034   8.074  0.5130  0.3390 -0.0414
  191SLPC  H18R22131   5.227   1.055   8.069  1.1112  4.2710  0.1081
  191SLPC  H18S22132   5.385   1.132   8.056 -0.7216  0.3822 -4.2800
  191SLPC  H18T22133   5.347   0.985   8.173 -1.3714 -2.6808 -1.1589
  191SLPC   C3322134   5.697   1.187   6.807 -0.8339 -0.7443  0.4202
  191SLPC   H3X22135   5.601   1.224   6.849 -0.1100  0.6014  0.9483
  191SLPC   H3Y22136   5.753   1.273   6.766 -1.2352 -0.8051 -0.2663
  191SLPC   C3422137   5.774   1.138   6.927 -0.2272 -0.6280 -0.3443
  191SLPC   H4X22138   5.879   1.153   6.893  0.1420 -0.3482  0.8599
  191SLPC   H4Y22139   5.753   1.032   6.950 -3.8254  0.0752  0.3392
  191SLPC   C3522140   5.742   1.216   7.054  0.1245 -0.0928 -0.3638
  191SLPC   H5X22141   5.637   1.199   7.085  0.2562  0.8383  0.6522
  191SLPC   H5Y22142   5.753   1.325   7.034 -0.7671 -0.1606 -1.3109
  191SLPC   C3622143   5.814   1.163   7.183 -0.2338  0.1249 -0.3773
  191SLPC   H6X22144   5.916   1.205   7.184 -0.0103 -0.3771  1.1848
  191SLPC   H6Y22145   5.824   1.052   7.190 -0.6580  0.1774  1.9882
  191SLPC   C3722146   5.750   1.210   7.311  0.2639 -0.3782 -0.0883
  191SLPC   H7X22147   5.648   1.165   7.319  0.3510 -0.6852 -0.6271
  191SLPC   H7Y22148   5.737   1.320   7.312 -1.7229 -0.5758  0.2287
  191SLPC   C3822149   5.822   1.147   7.434  0.1240  0.0856  0.1975
  191SLPC   H8X22150   5.927   1.173   7.461 -0.1186  0.2201  1.0210
  191SLPC   H8Y22151   5.829   1.038   7.412  0.5885  0.3081 -0.8272
  191SLPC   C3922152   5.732   1.188   7.554 -0.5002  0.0269  0.4000
  191SLPC   H9X22153   5.626   1.156   7.556 -0.8299  1.1203  2.4054
  191SLPC   H9Y22154   5.735   1.299   7.553  1.7695  0.0215  1.3805
  191SLPC  C31022155   5.804   1.128   7.683 -0.3778 -0.3074  0.1645
  191SLPC  H10X22156   5.895   1.179   7.722 -0.2830 -1.3471  1.3696
  191SLPC  H10Y22157   5.833   1.022   7.668 -2.4208 -0.9299  0.2705
  191SLPC  C31122158   5.696   1.117   7.796  0.6714 -0.6967 -0.4477
  191SLPC  H11X22159   5.731   1.054   7.881 -0.9668 -0.2968  0.5738
  191SLPC  H11Y22160   5.611   1.066   7.746  0.6112 -1.0578  0.0146
  191SLPC  C31222161   5.658   1.257   7.853  0.3005  0.0481  0.2280
  191SLPC  H12X22162   5.599   1.226   7.941  1.7402  1.2276  1.6766
  191SLPC  H12Y22163   5.593   1.310   7.780  0.7566  0.2466 -0.0410
  191SLPC  C31322164   5.772   1.346   7.898 -0.0993 -0.3396 -0.0339
  191SLPC  H13X22165   5.822   1.381   7.805  0.3183 -1.0777 -0.1016
  191SLPC  H13Y22166   5.840   1.278   7.954  0.7214  1.2435  0.9432
  191SLPC  C31422167   5.735   1.459   7.990 -0.1090 -0.5365 -0.4879
  191SLPC  H14X22168   5.664   1.418   8.065  0.2963 -2.2635 -0.9875
  191SLPC  H14Y22169   5.673   1.536   7.940  1.2890  1.2932  0.4547
  191SLPC  C31522170   5.864   1.535   8.046  0.3533  0.3602 -0.1174
  191SLPC  H15X22171   5.912   1.581   7.957  0.8488  1.3030  0.6258
  191SLPC  H15Y22172   5.943   1.474   8.093 -0.3174  1.6826  2.9264
  191SLPC  C31622173   5.815   1.645   8.140 -0.2456 -0.6238 -0.7842
  191SLPC  H16X22174   5.763   1.608   8.231 -0.7038 -0.6618 -1.0575
  191SLPC  H16Y22175   5.737   1.702   8.085 -1.6847 -0.9922  0.8252
  191SLPC  C31722176   5.934   1.723   8.193  0.4510  0.3166 -0.4327
  191SLPC  H17X22177   5.993   1.777   8.115  1.4114 -1.5994 -1.0888
  191SLPC  H17Y22178   6.009   1.649   8.226  1.5193  1.9035  0.7864
  191SLPC  C31822179   5.897   1.823   8.304  0.1132  0.5316 -0.0689
  191SLPC  H18X22180   5.842   1.762   8.379  0.6433 -0.1798 -0.2491
  191SLPC  H18Y22181   5.831   1.907   8.275 -0.6663 -0.3004 -0.7790
  191SLPC  H18Z22182   5.988   1.868   8.347  0.7065 -1.1296  0.5029
  192SLPC     N22183   6.431   2.108   5.990 -0.0621 -0.1611  0.1345
  192SLPC   C1322184   6.382   1.962   5.989  0.0237 -0.2682  0.0859
  192SLPC  H13A22185   6.371   1.936   5.884 -0.9492 -0.0964  0.1383
  192SLPC  H13B22186   6.464   1.907   6.034 -0.0421 -1.2427 -0.9301
  192SLPC  H13C22187   6.289   1.954   6.043 -0.9784  1.4769 -1.2794
  192SLPC   C1422188   6.304   2.192   5.975 -0.6265  0.0457 -0.7806
  192SLPC  H14A22189   6.234   2.155   5.902 -1.9211 -0.1522  0.5246
  192SLPC  H14B22190   6.254   2.189   6.070 -0.3720 -0.1914 -0.6547
  192SLPC  H14C22191   6.335   2.294   5.956 -1.1743  0.3746  0.0883
  192SLPC   C1522192   6.523   2.125   5.871  0.0530 -0.4714 -0.8373
  192SLPC  H15A22193   6.562   2.226   5.871 -0.0549 -0.3757  1.4927
  192SLPC  H15B22194   6.607   2.058   5.870  0.2939 -0.2401  0.7265
  192SLPC  H15C22195   6.461   2.127   5.783 -1.7174  0.2052  0.3665
  192SLPC   C1222196   6.507   2.145   6.112 -0.0302 -0.4518 -0.5036
  192SLPC  H12A22197   6.546   2.246   6.107  0.2671 -0.3807  1.7852
  192SLPC  H12B22198   6.591   2.080   6.131  2.4320  2.7277  0.4295
  192SLPC   C1122199   6.433   2.135   6.246  0.4308  0.3481 -0.6416
  192SLPC  H11A22200   6.515   2.131   6.321  1.0782 -0.3029 -1.3740
  192SLPC  H11B22201   6.383   2.040   6.271  1.0777 -0.3027 -1.7719
  192SLPC     P22202   6.412   2.379   6.320 -0.2176 -0.3187 -0.2669
  192SLPC   O1322203   6.529   2.414   6.238  0.4651 -0.2255 -0.4315
  192SLPC   O1422204   6.313   2.488   6.322  0.0741 -0.5246 -0.3565
  192SLPC   O1222205   6.337   2.243   6.265 -0.0310  0.3388  0.1839
  192SLPC   O1122206   6.456   2.354   6.468  0.0266  0.2524 -0.5618
  192SLPC    C122207   6.349   2.351   6.571 -0.1154 -0.5724 -0.0583
  192SLPC    HA22208   6.252   2.309   6.536  0.3475 -1.3218 -0.4425
  192SLPC    HB22209   6.384   2.277   6.645 -1.1052  0.3908  1.4319
  192SLPC    C222210   6.319   2.485   6.638  0.7308  0.0554  0.2551
  192SLPC    HS22211   6.299   2.554   6.553  0.0534 -2.5389 -1.8225
  192SLPC   O2122212   6.439   2.525   6.713  0.0409  0.0244  0.4371
  192SLPC   C2122213   6.463   2.648   6.745  0.2453  0.7243 -0.0300
  192SLPC   O2222214   6.402   2.749   6.713  0.6407 -0.0536  0.2720
  192SLPC   C2222215   6.579   2.639   6.844  0.1372  0.3853  0.6965
  192SLPC   H2R22216   6.643   2.552   6.818 -0.2684 -0.8342  3.4068
  192SLPC   H2S22217   6.636   2.734   6.836  1.0481 -0.0863  1.3923
  192SLPC    C322218   6.203   2.461   6.732 -0.3757 -0.1084  0.2317
  192SLPC    HX22219   6.223   2.371   6.794  2.6745  0.4742  0.2369
  192SLPC    HY22220   6.122   2.435   6.660  0.6721 -4.5892  0.3819
  192SLPC   O3122221   6.169   2.566   6.822  0.1153 -0.3635  0.3760
  192SLPC   C3122222   6.077   2.663   6.781  0.3178  0.4907 -0.2608
  192SLPC   O3222223   6.007   2.652   6.680  0.4205  0.0194  0.0620
  192SLPC   C3222224   6.040   2.755   6.891 -0.7056 -0.8207 -0.5690
  192SLPC   H2X22225   6.007   2.713   6.988 -0.4721  2.1171  0.8569
  192SLPC   H2Y22226   5.947   2.805   6.857 -1.8152 -1.2872  1.6469
  192SLPC   C2322227   6.531   2.607   6.990  0.1099  0.0725  0.2932
  192SLPC   H3R22228   6.485   2.700   7.029  0.9551  0.1992  1.0281
  192SLPC   H3S22229   6.628   2.606   7.044  1.3143  2.0700 -1.6596
  192SLPC   C2422230   6.450   2.480   7.006 -0.3967 -0.4221 -0.1994
  192SLPC   H4R22231   6.468   2.416   6.918  3.8579  0.0674  0.1140
  192SLPC   H4S22232   6.343   2.509   7.019  0.0289  1.8394 -1.2082
  192SLPC   C2522233   6.508   2.401   7.136 -0.3548 -0.0669  0.6453
  192SLPC   H5R22234   6.619   2.410   7.132 -0.2742 -1.3058 -0.4598
  192SLPC   H5S22235   6.471   2.297   7.131 -0.8473 -0.0651  2.9260
  192SLPC   C2622236   6.442   2.463   7.257  0.6645  0.0644  0.1303
  192SLPC   H6R22237   6.334   2.440   7.249  0.9977 -1.1325 -1.6548
  192SLPC   H6S22238   6.470   2.570   7.265 -0.4968  0.4062 -0.2094
  192SLPC   C2722239   6.487   2.388   7.381  0.1146  0.2974  0.0258
  192SLPC   H7R22240   6.596   2.410   7.384 -0.2572  2.3963  0.3707
  192SLPC   H7S22241   6.464   2.280   7.378 -3.6493  0.9670 -0.3573
  192SLPC   C2822242   6.446   2.459   7.507 -0.0774  0.1971 -0.4888
  192SLPC   H8R22243   6.336   2.453   7.500  0.0108 -0.8445 -1.2562
  192SLPC   H8S22244   6.467   2.568   7.509  0.4255  0.0970  0.7521
  192SLPC   C2922245   6.484   2.393   7.634 -0.1867  0.1205 -0.0696
  192SLPC   H9R22246   6.504   2.286   7.623  0.4572  0.1464  0.6824
  192SLPC  C21022247   6.489   2.446   7.758 -0.8048 -0.2939  0.7751
  192SLPC  H10R22248   6.513   2.375   7.839 -1.7159 -1.4780  0.0480
  192SLPC  C21122249   6.456   2.592   7.789  0.4191  0.6060  0.1443
  192SLPC  H11R22250   6.345   2.596   7.803  0.1533  0.5911 -1.7571
  192SLPC  H11S22251   6.472   2.657   7.701 -1.7791  1.1486  0.0836
  192SLPC  C21222252   6.538   2.645   7.905  0.1876 -0.5630 -0.0320
  192SLPC  H12R22253   6.645   2.664   7.893  0.0692  0.9039  0.9466
  192SLPC  C21322254   6.493   2.658   8.029  1.1540 -0.9105  0.0384
  192SLPC  H13R22255   6.547   2.706   8.111 -1.5568  2.4736  0.0809
  192SLPC  C21422256   6.352   2.627   8.077 -0.1027 -0.3761  0.4540
  192SLPC  H14R22257   6.279   2.655   7.998 -1.3465  0.3060  1.7813
  192SLPC  H14S22258   6.318   2.689   8.163  0.3564  2.9054 -1.5172
  192SLPC  C21522259   6.339   2.479   8.118  0.6717 -0.2102  0.0515
  192SLPC  H15R22260   6.400   2.460   8.209  1.3914 -0.3565 -0.4574
  192SLPC  H15S22261   6.391   2.429   8.034  1.1227  3.2688 -1.9244
  192SLPC  C21622262   6.193   2.434   8.145 -0.5989  0.5694 -0.2675
  192SLPC  H16R22263   6.135   2.467   8.056  1.2200  2.4842 -0.8309
  192SLPC  H16S22264   6.144   2.479   8.235 -0.0107 -0.6946  0.7141
  192SLPC  C21722265   6.172   2.284   8.162 -0.0040 -0.1999 -0.7275
  192SLPC  H17R22266   6.226   2.271   8.259  1.8027  2.4857 -1.2714
  192SLPC  H17S22267   6.069   2.261   8.196  0.3931 -0.0356  0.6906
  192SLPC  C21822268   6.228   2.186   8.063  0.3822 -0.0829  0.2823
  192SLPC  H18R22269   6.182   2.199   7.963 -1.5759  1.3425  1.3023
  192SLPC  H18S22270   6.215   2.080   8.095  2.1673 -0.1180  0.9812
  192SLPC  H18T22271   6.337   2.204   8.055  0.4896 -1.4870 -2.4831
  192SLPC   C3322272   6.152   2.867   6.898 -0.2054 -0.3593  0.3180
  192SLPC   H3X22273   6.181   2.892   6.794 -1.9255  1.5145  0.2184
  192SLPC   H3Y22274   6.243   2.826   6.947 -0.5738 -1.7289 -0.0939
  192SLPC   C3422275   6.100   2.994   6.975 -0.5160 -0.7136 -0.0982
  192SLPC   H4X22276   6.012   3.051   6.940 -0.3171  1.4115  2.5281
  192SLPC   H4Y22277   6.183   3.068   6.974  0.1478 -1.4270  0.3869
  192SLPC   C3522278   6.066   2.972   7.121 -0.1975  1.1821  0.9405
  192SLPC   H5X22279   6.146   2.911   7.169 -0.1736  0.7626  0.3676
  192SLPC   H5Y22280   5.973   2.912   7.112  0.7494 -0.4492  1.6643
  192SLPC   C3622281   6.050   3.093   7.213  0.0375 -0.0044  0.7124
  192SLPC   H6X22282   5.962   3.152   7.180 -0.0197 -0.3866  0.1728
  192SLPC   H6Y22283   6.140   3.159   7.219  0.4089 -0.3909 -0.4115
  192SLPC   C3722284   6.019   3.065   7.356  0.5921  0.6830 -0.1146
  192SLPC   H7X22285   6.084   2.985   7.396 -0.0773  1.1574  2.0722
  192SLPC   H7Y22286   5.917   3.025   7.371  1.1352 -0.2983  1.0887
  192SLPC   C3822287   6.037   3.168   7.462  0.7750  0.3591 -0.2916
  192SLPC   H8X22288   5.978   3.257   7.429 -1.2352  0.0399  2.1543
  192SLPC   H8Y22289   6.146   3.190   7.468  1.0999 -0.2288 -2.9441
  192SLPC   C3922290   5.994   3.127   7.604 -0.4162  1.1332 -0.0696
  192SLPC   H9X22291   6.062   3.049   7.644 -2.1028 -0.5006 -0.2631
  192SLPC   H9Y22292   5.894   3.079   7.598  0.0895  0.1972 -2.0293
  192SLPC  C31022293   6.013   3.240   7.707  0.2347  0.6074  0.3950
  192SLPC  H10X22294   5.950   3.329   7.688 -2.7287 -1.0947  1.5296
  192SLPC  H10Y22295   6.118   3.272   7.693  0.4669 -0.2507  0.0868
  192SLPC  C31122296   6.000   3.184   7.852 -0.1737 -0.7843  0.0965
  192SLPC  H11X22297   6.082   3.111   7.866  3.5629  2.5120 -2.2888
  192SLPC  H11Y22298   5.897   3.146   7.869 -0.6309  0.2599 -0.2348
  192SLPC  C31222299   6.024   3.298   7.952  0.6758  0.6198 -0.7775
  192SLPC  H12X22300   5.941   3.370   7.935 -1.3484 -1.9015 -2.2408
  192SLPC  H12Y22301   6.124   3.346   7.939  0.8242  0.7406  0.6650
  192SLPC  C31322302   5.982   3.243   8.091 -0.0514  0.6291  0.1019
  192SLPC  H13X22303   6.048   3.165   8.135  1.2941  1.0107 -1.1766
  192SLPC  H13Y22304   5.881   3.200   8.075 -0.2088 -0.1619  2.7443
  192SLPC  C31422305   5.966   3.355   8.194 -0.4431 -0.1421  0.6602
  192SLPC  H14X22306   5.909   3.441   8.151  1.2128  1.5249  1.6256
  192SLPC  H14Y22307   6.066   3.394   8.222 -0.0686 -0.6239  0.0195
  192SLPC  C31522308   5.901   3.322   8.319  0.2144  0.6246  0.3876
  192SLPC  H15X22309   5.902   3.211   8.323  2.6173  0.5900  0.1541
  192SLPC  H15Y22310   5.795   3.355   8.307 -0.1771 -0.5272  0.5139
  192SLPC  C31622311   5.960   3.381   8.442 -0.9460 -0.0467 -0.8694
  192SLPC  H16X22312   6.008   3.480   8.427 -0.1223 -0.4243 -0.7580
  192SLPC  H16Y22313   6.052   3.325   8.470 -0.9009  0.2771 -0.3375
  192SLPC  C31722314   5.875   3.374   8.569 -0.3821 -0.7092 -0.8407
  192SLPC  H17X22315   5.799   3.455   8.573  3.9481  3.7880  2.0403
  192SLPC  H17Y22316   5.934   3.413   8.654  0.1361 -6.7088  2.0452
  192SLPC  C31822317   5.811   3.248   8.604 -0.1541 -0.2146  0.2657
  192SLPC  H18X22318   5.882   3.183   8.659 -0.5166  0.4901  1.5982
  192SLPC  H18Y22319   5.781   3.184   8.518  1.0351  0.0066 -0.3397
  192SLPC  H18Z22320   5.726   3.263   8.674 -0.0160 -3.0561  1.1428
  193SOD    SOD22321   4.854   6.045   0.127 -0.4698 -0.2349 -0.2439
  194SOD    SOD22322   5.192   4.073  15.896 -0.3377 -0.0557 -0.1921
  195SOD    SOD22323   0.401   5.050   3.384 -0.0559 -0.0277 -0.6208
  196SOD    SOD22324   3.638   6.100  13.568 -0.1302  0.1879 -0.2585
  197SOD    SOD22325   0.254   4.233   5.852  0.5557 -0.4718 -0.5676
  198SOD    SOD22326   3.170   4.310   3.789 -0.6224  0.0161  0.0369
  199SOD    SOD22327   1.309   3.802   4.070 -0.3884 -0.0085 -0.3586
  200SOD    SOD22328   5.338   0.274  10.691 -0.8532  0.6078  0.6068
  201SOD    SOD22329   5.810   0.441  12.377  0.3437 -0.1444  0.6481
  202SOD    SOD22330   6.723   5.557   1.038  0.1425 -0.1114  0.1347
  203SOD    SOD22331   6.805   0.763   4.421  0.6795 -0.5517 -0.3077
  204SOD    SOD22332   1.135   3.491  12.008 -0.8686  0.1548 -0.0831
  205SOD    SOD22333   2.005   2.622  16.166 -0.0703  0.4926 -0.2455
  206SOD    SOD22334   5.641   6.823   3.496  0.6217  0.1359 -0.3946
  207SOD    SOD22335   1.522   5.154  13.628 -0.1062  0.1958 -0.1296
  208SOD    SOD22336   3.703   1.061   3.212 -0.1347 -0.3253 -0.2264
  209SOD    SOD22337   5.206   2.993  14.043  0.0350  0.5958  0.0889
  210SOD    SOD22338   4.636   0.120  15.397 -0.0572  0.3791 -0.2109
  211SOD    SOD22339   0.271   1.425   6.005  0.0296 -0.1679 -0.0390
  212SOD    SOD22340   2.556   5.133  13.053  0.2600 -0.0404  0.2414
  213SOD    SOD22341   4.815   3.132   3.970  0.5129  0.3137 -0.1608
  214SOD    SOD22342   2.408   3.386  14.336  0.1456  0.4699 -0.0186
  215SOD    SOD22343   0.478   1.346   0.652 -0.3169  0.3509  0.2380
  216SOD    SOD22344   3.529   3.698   0.982 -0.6896  0.2825  0.0280
  217SOD    SOD22345   0.332   5.102  11.795 -0.0568 -0.3634  0.1413
  218SOD    SOD22346   2.814   5.985  14.629  0.5641  0.3932  0.0020
  219SOD    SOD22347   0.325   2.284  13.074  0.2352  0.1229 -0.0847
  220SOD    SOD22348   6.233   5.664  15.406  0.4481  0.2681  0.6868
  221SOD    SOD22349   2.215   4.508   1.505  0.2994 -0.1335  0.3484
  222SOD    SOD22350   1.220   3.392   1.724  0.3318  0.1946  0.1742
  223SOD    SOD22351   4.965   4.998  11.556 -0.1561  0.0934  0.6512
  224SOD    SOD22352   2.285   6.318   3.586 -0.3438  0.1932  0.1576
  225SOD    SOD22353   4.954   6.576  16.897 -0.3714  0.2924 -0.1348
  226SOD    SOD22354   2.566   1.812   4.745 -0.0955 -0.4126 -0.0392
  227SOD    SOD22355   0.461   1.812   2.399  0.3888  0.6676 -0.1074
  228SOD    SOD22356   1.377   5.622  10.464  0.0356 -0.4108  0.0481
  229SOD    SOD22357   5.372   1.117   4.651 -0.5299 -0.2443 -0.0889
  230SOD    SOD22358   2.892   2.984  12.758 -0.0789  0.1044 -0.1530
  231SOD    SOD22359   1.745   6.401   5.506 -0.2754 -0.3797  0.0697
  232SOD    SOD22360   6.723   4.033   3.341  0.1226  0.0119 -0.4247
  233SOD    SOD22361   6.548   5.285  12.190 -0.2640  0.1492 -0.2514
  234SOD    SOD22362   3.107   1.965  12.881 -0.4225 -0.1747  0.2475
  235SOD    SOD22363   1.510   2.707   5.571  0.1297  0.5572 -0.3844
  236SOD    SOD22364   2.255   5.532  10.601  0.0891  0.0882 -0.7451
  237SOD    SOD22365   0.920   1.564  13.959  0.2197  0.3118  0.2983
  238SOD    SOD22366   4.207   1.832  11.956 -0.3702  0.4381  0.2033
  239SOD    SOD22367   3.764   5.589   6.191 -0.1093 -0.1186  0.1450
  240SOD    SOD22368   5.084   5.869  14.715 -0.3301 -0.1926 -0.4120
  241SOD    SOD22369   3.164   2.329   1.370  0.4628  0.0923  0.5794
  242SOD    SOD22370   3.680   2.849  15.722  0.1055 -0.0538 -0.6068
  243SOD    SOD22371   6.193   3.731  11.227  0.1361  0.0313 -0.2514
  244SOD    SOD22372   1.695   2.487  11.494  0.3514  0.0441 -0.0431
  245SOD    SOD22373   2.684   5.456   6.084 -0.1080  0.1356  0.2956
  246SOD    SOD22374   1.351   4.128   2.377 -0.4076  0.1117  0.2283
  247SOD    SOD22375   3.224   4.195   4.804 -0.3017  0.0095  0.1342
  248SOD    SOD22376   0.419   3.010  14.121 -0.0612 -0.3468  0.0243
  249SOD    SOD22377   4.104   4.025  11.257  0.4875 -0.1074 -0.0211
  250SOD    SOD22378   6.605   1.025   2.127 -0.0942 -0.0958  0.1798
  251SOD    SOD22379   0.731   5.801   4.550  0.3775  0.4437  0.4578
  252SOD    SOD22380   0.267   5.776   2.527  0.3306 -0.6173 -0.0096
  253SOD    SOD22381   0.863   5.860   0.351  0.1222 -0.5500 -0.3978
  254SOD    SOD22382   4.343   0.669   6.206  0.1829  0.0480 -0.2801
  255SOD    SOD22383   4.820   2.527  12.137 -0.2419  0.2078 -0.0969
  256SOD    SOD22384   2.435   4.482  17.168  0.2890 -0.2529  0.0485
  257SOD    SOD22385   5.491   4.086  13.371  0.5088 -0.1950  0.3883
  258SOD    SOD22386   3.693   3.097   4.501 -0.1213  0.0349 -0.3281
  259SOD    SOD22387   3.557   0.993  11.051  0.4768 -0.4888 -0.1663
  260SOD    SOD22388   2.628   3.438   4.901 -0.3146 -0.0427 -0.3037
  261SOD    SOD22389   5.863   5.338   6.292  0.4128  0.2884  0.2878
  262SOD    SOD22390   5.409   6.585   1.613  0.1139  0.4469 -0.2152
  263SOD    SOD22391   4.451   4.097   0.453 -0.6808  0.3593  0.0763
  264SOD    SOD22392   4.271   1.656   4.390 -0.1163  0.4297 -0.0001
  265SOD    SOD22393   2.795   0.706  16.230 -0.1881  0.2816 -0.0340
  266CLA    CLA22394   2.386   4.532   2.721 -0.0405 -0.1781  0.0515
  267CLA    CLA22395   5.912   3.089  16.779 -0.2674 -0.1242  0.7526
  268CLA    CLA22396   5.399   3.307   0.532 -0.4855  0.1655 -0.0654
  269CLA    CLA22397   1.983   2.365  17.050 -0.2092  0.0683  0.3557
  270CLA    CLA22398   0.941   0.484  15.629  0.2269  0.3323  0.3715
  271CLA    CLA22399   0.498   1.782   1.103  0.0593 -0.4345 -0.3527
  272CLA    CLA22400   5.282   6.348   3.127  0.2492  0.2712 -0.0807
  273CLA    CLA22401   2.801   5.033   3.650  0.0448 -0.0355  0.2655
  274CLA    CLA22402   0.104   6.101  15.308  0.4519  0.0347  0.1087
  275CLA    CLA22403   0.867   5.232   2.797 -0.4480 -0.0778  0.0764
  276CLA    CLA22404   4.677   0.216   3.370 -0.0291 -0.0924 -0.2001
  277CLA    CLA22405   5.797   1.155   2.048  0.1764  0.0571  0.1990
  278CLA    CLA22406   4.450   3.649  11.742  0.0990  0.0458 -0.0534
  279CLA    CLA22407   3.236   5.027  15.448 -0.0590 -0.2420 -0.4693
  280CLA    CLA22408   1.715   0.556  13.937  0.2609 -0.1305  0.1367
  281CLA    CLA22409   6.257   2.453  14.093 -0.3975  0.0553  0.4541
  282CLA    CLA22410   6.093   0.056  12.474 -0.0735 -0.1632 -0.1840
  283CLA    CLA22411   3.548   4.843  12.434 -0.1790 -0.1204  0.2231
  284CLA    CLA22412   2.985   4.053   3.412 -0.1924 -0.5077 -0.4473
  285CLA    CLA22413   4.908   2.227  11.697 -0.2493  0.0537  0.0280
  286CLA    CLA22414   3.559   2.811   1.635  0.4817 -0.3099  0.1487
  287CLA    CLA22415   6.389   1.489  16.431  0.0388 -0.0955  0.3202
  288CLA    CLA22416   5.601   3.995  15.140 -0.0879 -0.0407 -0.1212
  289CLA    CLA22417   3.492   3.202  16.513 -0.3080  0.0623 -0.0991
  290CLA    CLA22418   6.596   4.112   3.779 -0.2803  0.0685 -0.1948
  291CLA    CLA22419   3.811   6.228  16.376  0.2766 -0.1304 -0.3611
  292CLA    CLA22420   6.819   0.854   2.804  0.1828  0.1818 -0.1863
  293CLA    CLA22421   3.525   1.509  15.967 -0.0812 -0.2503 -0.3988
  294CLA    CLA22422   2.168   4.926   1.840 -0.1414  0.0471  0.0612
  295CLA    CLA22423   5.853   1.913   0.416 -0.0605  0.0229 -0.1005
  296CLA    CLA22424   5.027   6.210  12.146  0.0294 -0.3951 -0.2588
  297CLA    CLA22425   1.671   3.259   4.124  0.1727  0.4062 -0.2553
  298CLA    CLA22426   1.355   4.323   1.565 -0.2466 -0.0557 -0.4040
  299CLA    CLA22427   1.367   2.017   4.068  0.0957 -0.1746 -0.3711
  300CLA    CLA22428   4.747   5.365   2.080 -0.1758  0.2328  0.2351
  301CLA    CLA22429   2.083   2.495  13.520 -0.0267  0.2507 -0.2091
  302CLA    CLA22430   4.175   3.085  14.247 -0.1101 -0.0607  0.0700
  303CLA    CLA22431   2.793   0.382  11.877  0.0721 -0.0082  0.2269
  304CLA    CLA22432   6.362   2.847   4.774  0.0441 -0.0596  0.6102
  305CLA    CLA22433   2.530   2.102  15.262 -0.0248  0.1809 -0.2156
  306CLA    CLA22434   4.905   6.156   0.610  0.1777 -0.2654  0.1908
  307CLA    CLA22435   2.089   1.504   2.747 -0.1317  0.2577  0.4181
  308CLA    CLA22436   2.954   4.320   2.022 -0.3358 -0.5327 -0.5094
  309CLA    CLA22437   2.068   0.500  13.343 -0.1383  0.0052  0.1982
  310CLA    CLA22438   1.604   4.262  16.047  0.1223  0.2192  0.1225
  311CLA    CLA22439   3.193   0.893  11.292  0.3382 -0.2612  0.1184
  312CLA    CLA22440   0.322   1.192   4.665  0.0128 -0.2866  0.0478
  313CLA    CLA22441   3.912   1.692   3.151  0.0349 -0.1828 -0.0614
  314CLA    CLA22442   3.114   5.721  14.084  0.0854 -0.2487  0.3347
  315CLA    CLA22443   0.069   5.897  16.922  0.2901 -0.2134  0.5472
  316CLA    CLA22444   0.097   1.939   0.338 -0.1169  0.0786  0.2382
  317CLA    CLA22445   1.115   2.976   5.812  0.0871 -0.1270  0.0981
  318CLA    CLA22446   1.139   4.013  14.557 -0.0996 -0.3611 -0.0193
  319TIP3   OH222447   5.511   5.723   5.081  0.4011 -0.1573 -0.4429
  319TIP3    H122448   5.596   5.707   5.040 -0.2403 -1.3274 -1.3998
  319TIP3    H222449   5.448   5.692   5.016 -0.8268  1.9909 -0.3340
  320TIP3   OH222450   5.919   0.985  15.898  0.0077 -0.0424 -0.2436
  320TIP3    H122451   5.898   1.070  15.937  2.9440  0.7133 -0.0388
  320TIP3    H222452   5.921   0.924  15.971  1.7266  0.5913  0.2999
  321TIP3   OH222453   6.749   3.072  12.423 -0.7152  0.1455  0.2041
  321TIP3    H122454   6.837   3.109  12.421 -0.9204  0.6540  0.4160
  321TIP3    H222455   6.691   3.147  12.405 -1.2358  0.2562  2.1388
  322TIP3   OH222456   5.890   1.758  11.369  0.0747  0.1528 -0.4539
  322TIP3    H122457   5.934   1.782  11.451  0.8293 -1.3034 -0.4062
  322TIP3    H222458   5.799   1.746  11.394  0.3384 -0.4974  0.2400
  323TIP3   OH222459   3.548   5.487  16.807  0.1601  0.5332  0.0628
  323TIP3    H122460   3.537   5.480  16.902 -0.6007  0.2010 -0.0422
  323TIP3    H222461   3.483   5.551  16.780 -0.8665 -0.6692 -0.4437
  324TIP3   OH222462   1.759   5.836  16.320  0.5730  0.4670  0.2170
  324TIP3    H122463   1.796   5.765  16.267  0.5177  0.7741 -0.2330
  324TIP3    H222464   1.748   5.797  16.407  1.3471  0.1757  0.1941
  325TIP3   OH222465   3.228   4.657  11.720  0.0599  0.4881 -0.5175
  325TIP3    H122466   3.250   4.718  11.790 -0.3720  1.9735 -1.6137
  325TIP3    H222467   3.179   4.710  11.657  1.0414 -0.6052 -2.2922
  326TIP3   OH222468   0.744   3.739  12.052 -0.4093  0.8697  0.4197
  326TIP3    H122469   0.767   3.665  12.108 -1.3860  0.1513 -0.1054
  326TIP3    H222470   0.741   3.814  12.112 -1.0468  0.1922  1.2658
  327TIP3   OH222471   0.988   0.262   3.058  0.0297  0.1484 -0.0650
  327TIP3    H122472   1.042   0.264   3.137 -1.3360 -1.1286  0.9476
  327TIP3    H222473   1.043   0.218   2.993  1.0657  0.9634  0.2203
  328TIP3   OH222474   3.401   5.390   2.472  0.2050  0.5013 -0.6151
  328TIP3    H122475   3.451   5.322   2.427  0.5029  1.2222 -1.4000
  328TIP3    H222476   3.457   5.417   2.545 -0.5806 -1.1719  0.6835
  329TIP3   OH222477   6.348   5.644  11.986  0.1611  0.0607 -0.2413
  329TIP3    H122478   6.383   5.727  11.953  0.1398  0.2239  0.1470
  329TIP3    H222479   6.301   5.607  11.911  0.5120  0.2090 -0.5342
  330TIP3   OH222480   4.214   0.620  14.917 -0.3286 -0.4612 -0.5440
  330TIP3    H122481   4.206   0.528  14.893  1.6034 -0.8420  0.1072
  330TIP3    H222482   4.227   0.666  14.834  1.3844 -1.1468 -0.6900
  331TIP3   OH222483   3.161   0.160   2.877  0.7175 -0.2551 -0.0459
  331TIP3    H122484   3.209   0.089   2.919  1.8053  0.4896  0.0156
  331TIP3    H222485   3.206   0.240   2.907  1.5293  0.3194 -2.5524
  332TIP3   OH222486   5.492   1.213  12.961 -0.5181  0.2507  0.5513
  332TIP3    H122487   5.549   1.249  12.893  0.3968  0.1165  1.2216
  332TIP3    H222488   5.552   1.190  13.032 -1.6439  2.1204  2.1780
  333TIP3   OH222489   0.894   5.609   4.208 -0.1546 -0.3568  0.5387
  333TIP3    H122490   0.928   5.573   4.126 -0.7495  1.1223 -0.3864
  333TIP3    H222491   0.955   5.578   4.275  1.1447 -0.4426 -0.6426
  334TIP3   OH222492   6.374   4.096  12.383  0.3421 -0.2937  0.1764
  334TIP3    H122493   6.288   4.090  12.424 -0.8126  0.9696 -1.8743
  334TIP3    H222494   6.364   4.050  12.299  0.8830  1.8771 -1.1771
  335TIP3   OH222495   1.723   5.867  12.249  0.0801  0.2078  0.2359
  335TIP3    H122496   1.635   5.830  12.242 -0.6177  1.4835  1.5818
  335TIP3    H222497   1.745   5.859  12.342  0.0138  2.7569  0.5541
  336TIP3   OH222498   6.742   1.107   5.847  0.1242 -0.3599  0.1439
  336TIP3    H122499   6.731   1.200   5.865 -1.4215 -0.2502 -1.1705
  336TIP3    H222500   6.796   1.075   5.920  1.0103  1.6110  0.4193
  337TIP3   OH222501   5.287   4.937  11.578  0.9582 -0.3152 -0.8870
  337TIP3    H122502   5.229   4.960  11.506  0.6213 -0.1772 -0.5741
  337TIP3    H222503   5.361   4.997  11.569  0.1761  0.7797 -0.1913
  338TIP3   OH222504   5.863   2.590   2.823 -0.1827 -0.1335 -0.4272
  338TIP3    H122505   5.901   2.668   2.782  0.5718  0.2328  0.9262
  338TIP3    H222506   5.926   2.564   2.890 -0.2405 -2.1386 -1.0642
  339TIP3   OH222507   5.129   5.021  14.981  0.2117  0.3350 -0.0185
  339TIP3    H122508   5.152   4.934  14.948  0.5994  1.2785 -2.4091
  339TIP3    H222509   5.213   5.068  14.984  0.0765  0.5199  1.7070
  340TIP3   OH222510   2.830   1.443   2.163  0.2131 -0.2173  0.0188
  340TIP3    H122511   2.768   1.386   2.117 -1.3470 -0.2102  1.9959
  340TIP3    H222512   2.777   1.516   2.194  1.6309  0.8339  0.0680
  341TIP3   OH222513   5.607   2.621   2.568 -0.3543 -0.1646  0.2473
  341TIP3    H122514   5.576   2.532   2.550  3.0932 -1.6470  0.9657
  341TIP3    H222515   5.579   2.638   2.658  0.1427 -1.1279  0.6052
  342TIP3   OH222516   4.325   0.007   5.199 -0.0928 -0.7271 -0.2842
  342TIP3    H122517   4.238   0.045   5.213  0.9238  1.1487  1.3967
  342TIP3    H222518   4.345   0.027   5.108 -0.3080  1.3679  0.0760
  343TIP3   OH222519   4.950   2.702   1.434 -0.3690 -0.1984 -0.1625
  343TIP3    H122520   4.902   2.715   1.515 -1.2676 -0.4508 -0.6346
  343TIP3    H222521   5.042   2.719   1.456 -0.7051  0.5558  0.7016
  344TIP3   OH222522   4.614   2.987   6.003  0.1248 -0.6463 -0.3277
  344TIP3    H122523   4.536   2.996   5.949 -1.1329  2.3467  1.7132
  344TIP3    H222524   4.600   2.907   6.052 -1.1077 -0.7673 -0.8417
  345TIP3   OH222525   3.417   4.642   6.448  0.1299 -0.4992  0.3545
  345TIP3    H122526   3.349   4.667   6.510  0.0041 -1.0701  0.4532
  345TIP3    H222527   3.465   4.572   6.492  1.4489  0.5988  0.7116
  346TIP3   OH222528   4.560   2.180   5.348 -0.2119  0.5343  0.1933
  346TIP3    H122529   4.581   2.253   5.406  1.8007 -1.4024  2.1254
  346TIP3    H222530   4.514   2.117   5.403  1.3004 -1.1504 -0.3357
  347TIP3   OH222531   2.721   2.851  15.048  0.1081  0.2210  0.5143
  347TIP3    H122532   2.630   2.823  15.056  0.0602  0.0873 -0.3878
  347TIP3    H222533   2.718   2.946  15.056 -0.3749  0.4047 -1.3975
  348TIP3   OH222534   0.066   5.514   5.035  0.2359 -0.1375 -0.3554
  348TIP3    H122535  -0.025   5.526   5.061  0.8015  0.6189  1.4115
  348TIP3    H222536   0.114   5.586   5.077  1.7148 -0.7596 -0.8797
  349TIP3   OH222537   0.352   3.282  16.621  0.4149  0.4035  0.0565
  349TIP3    H122538   0.357   3.233  16.703 -0.2607 -1.1297 -0.7690
  349TIP3    H222539   0.413   3.354  16.632  1.4836 -0.6426  1.3360
  350TIP3   OH222540   2.969   6.493  11.323 -0.0640 -0.1732  0.0097
  350TIP3    H122541   3.011   6.555  11.264  0.2805  0.0853  0.5141
  350TIP3    H222542   3.039   6.434  11.350 -0.1601 -0.1376  0.3487
  351TIP3   OH222543   4.304   1.806   6.203  0.3964 -0.4700  0.2302
  351TIP3    H122544   4.387   1.852   6.215 -0.7257  1.1636  2.6252
  351TIP3    H222545   4.270   1.794   6.292 -1.1400 -2.6829 -0.5610
  352TIP3   OH222546   2.573   5.897  12.676 -0.1532  0.3316  0.7264
  352TIP3    H122547   2.518   5.823  12.652  1.7955 -1.3482  1.1166
  352TIP3    H222548   2.602   5.933  12.592 -1.0010  0.5841  0.5357
  353TIP3   OH222549   1.483   5.959   1.809  0.2839 -0.2354  0.1616
  353TIP3    H122550   1.544   5.898   1.768  0.1353 -0.8628  0.8479
  353TIP3    H222551   1.472   6.029   1.745  1.1896 -0.4555 -0.2468
  354TIP3   OH222552   1.490   0.940   1.985 -0.0920  0.1895 -0.1569
  354TIP3    H122553   1.568   0.976   1.944  0.2355  1.0816  1.2074
  354TIP3    H222554   1.419   0.997   1.955  0.3616  1.7962  1.6420
  355TIP3   OH222555   3.803   4.500   1.959  0.1257  0.7304  0.0086
  355TIP3    H122556   3.709   4.490   1.940 -0.4439  2.8859  1.3000
  355TIP3    H222557   3.844   4.496   1.873 -1.1019 -0.4999 -0.5710
  356TIP3   OH222558   6.100   4.535  17.040 -0.3613  0.0874 -0.2377
  356TIP3    H122559   6.192   4.511  17.038 -0.2960  0.1855  1.1182
  356TIP3    H222560   6.079   4.558  16.949  0.8314 -0.3245 -0.6268
  357TIP3   OH222561   5.496   6.704  13.192  0.1397 -0.6801  0.3592
  357TIP3    H122562   5.550   6.757  13.134 -1.7094  0.0885 -0.7751
  357TIP3    H222563   5.493   6.618  13.149 -1.3084 -0.0864 -0.8572
  358TIP3   OH222564   1.296   1.221   0.151  0.3708 -0.1289  0.3736
  358TIP3    H122565   1.206   1.205   0.179 -0.0213  1.0356 -0.1197
  358TIP3    H222566   1.289   1.236   0.057  1.2198 -0.9393  0.1728
  359TIP3   OH222567   1.859   4.528   5.953 -0.4626 -0.3662  0.0228
  359TIP3    H122568   1.850   4.532   6.048 -0.4501 -0.1449  0.0158
  359TIP3    H222569   1.770   4.513   5.921 -0.6891  0.9582 -0.0022
  360TIP3   OH222570   2.605   6.412  16.950 -0.0551 -0.0664 -0.2079
  360TIP3    H122571   2.516   6.378  16.960  0.1504 -0.8516 -0.9785
  360TIP3    H222572   2.653   6.342  16.907  1.3856 -0.3364  1.7060
  361TIP3   OH222573   0.484   2.317  15.066  0.3484  0.5233 -0.6039
  361TIP3    H122574   0.501   2.411  15.070  1.1775  0.3598  0.0771
  361TIP3    H222575   0.392   2.307  15.091  1.0808  0.9143  2.6321
  362TIP3   OH222576   4.163   3.945  14.993 -0.0335  0.0507 -0.4624
  362TIP3    H122577   4.156   4.040  14.980 -3.3120  0.2437  1.5592
  362TIP3    H222578   4.083   3.910  14.953  0.7063 -1.7894 -0.4105
  363TIP3   OH222579   6.242   0.504  12.797 -0.1476  0.0762  0.1844
  363TIP3    H122580   6.244   0.598  12.778  1.3076 -0.2259 -1.4004
  363TIP3    H222581   6.334   0.477  12.793 -0.5592 -1.4413  0.4748
  364TIP3   OH222582   6.193   0.196  15.693  0.4761 -0.0295  0.0489
  364TIP3    H122583   6.155   0.273  15.734 -0.5044 -0.4743 -0.0048
  364TIP3    H222584   6.179   0.126  15.757  1.1675 -0.2202  0.0073
  365TIP3   OH222585   5.601   6.811   2.676 -0.1119  0.3702  0.0737
  365TIP3    H122586   5.553   6.750   2.732 -2.9310  2.2573 -0.0778
  365TIP3    H222587   5.648   6.868   2.737  1.3659 -0.9587  0.2486
  366TIP3   OH222588   2.929   4.417   1.633  0.0827  0.5359  0.2080
  366TIP3    H122589   2.858   4.359   1.661 -0.2520  0.5758 -0.5329
  366TIP3    H222590   2.886   4.481   1.576  0.6176  0.9186  0.2334
  367TIP3   OH222591   3.563   5.433   0.715 -0.1494  0.3480 -0.6752
  367TIP3    H122592   3.543   5.345   0.682  0.0741  0.1761 -0.3631
  367TIP3    H222593   3.626   5.418   0.786 -1.5603  0.6198  0.6790
  368TIP3   OH222594   1.060   4.655  15.726 -0.5520 -0.1627  0.2943
  368TIP3    H122595   1.079   4.714  15.652  0.7720 -0.5390  0.3061
  368TIP3    H222596   1.013   4.582  15.687 -0.7806  0.1323  0.0090
  369TIP3   OH222597   1.122   1.399   0.503 -0.5772 -0.2945  0.7516
  369TIP3    H122598   1.099   1.406   0.596 -2.6136 -0.5525  0.3033
  369TIP3    H222599   1.116   1.489   0.470 -2.5025 -0.5356  0.3297
  370TIP3   OH222600   2.905   1.270   5.996 -0.1750  0.4672  0.2911
  370TIP3    H122601   2.858   1.350   6.020  1.7792  1.8546 -0.1592
  370TIP3    H222602   2.971   1.260   6.064  0.0614 -0.3666 -0.0482
  371TIP3   OH222603   6.502   4.895  10.512 -0.1615 -0.0359  0.4400
  371TIP3    H122604   6.445   4.950  10.459 -0.5452  0.6255  1.5002
  371TIP3    H222605   6.585   4.894  10.465 -0.0759  1.6318  0.4904
  372TIP3   OH222606   3.039   1.830   0.989  0.5160 -0.2903 -0.5483
  372TIP3    H122607   3.001   1.747   0.960 -1.0871  0.1117  0.2867
  372TIP3    H222608   3.064   1.814   1.080  0.2830  0.1171 -0.4130
  373TIP3   OH222609   3.677   5.504  12.470 -0.3990 -0.1188  0.0348
  373TIP3    H122610   3.588   5.503  12.505 -0.2161 -1.1112  0.5067
  373TIP3    H222611   3.665   5.518  12.376 -1.0129  0.4750  0.1952
  374TIP3   OH222612   2.498   1.369  13.768 -0.1314 -0.7288 -0.1456
  374TIP3    H122613   2.519   1.378  13.861  1.8384 -1.5380 -0.4510
  374TIP3    H222614   2.531   1.283  13.744  0.0604 -0.2517 -1.7483
  375TIP3   OH222615   4.421   6.050   3.288  0.0566  0.1952  0.7553
  375TIP3    H122616   4.475   6.129   3.295 -1.7293  1.3521  2.2906
  375TIP3    H222617   4.393   6.047   3.197  0.4760  1.0892  0.5906
  376TIP3   OH222618   1.918   3.810   3.202  0.3220 -0.1673  0.0949
  376TIP3    H122619   1.917   3.837   3.110  0.8035  0.1002  0.1656
  376TIP3    H222620   2.008   3.782   3.218  0.1046 -0.7386  0.3357
  377TIP3   OH222621   4.027   3.412  15.602  0.3827 -0.1725 -0.5293
  377TIP3    H122622   4.073   3.496  15.601  0.9801 -0.4988 -0.8102
  377TIP3    H222623   4.096   3.346  15.597 -0.1019 -0.6748 -0.7472
  378TIP3   OH222624   3.294   3.688   0.972  0.0963 -0.3808 -0.4608
  378TIP3    H122625   3.256   3.711   0.887 -0.0024 -0.5825 -0.4699
  378TIP3    H222626   3.262   3.600   0.990 -0.0741 -0.2482 -0.1039
  379TIP3   OH222627   0.070   6.645  13.547 -0.6493 -0.7504 -0.3273
  379TIP3    H122628   0.107   6.600  13.624  0.3478 -0.8279 -0.8383
  379TIP3    H222629   0.088   6.738  13.562  0.3708 -0.8480 -0.8901
  380TIP3   OH222630   3.317   1.297   1.385  0.2755 -0.6046 -0.5013
  380TIP3    H122631   3.367   1.328   1.310  0.0607 -0.5209 -0.6091
  380TIP3    H222632   3.373   1.315   1.460  0.7858 -1.3076 -0.6973
  381TIP3   OH222633   4.581   5.027  16.298  0.2378 -0.0055  0.0393
  381TIP3    H122634   4.572   5.084  16.374  0.8532 -0.5099  0.4992
  381TIP3    H222635   4.674   5.030  16.276  0.4325 -1.3935  0.5327
  382TIP3   OH222636   0.468   1.332   2.670  0.3820  1.1302  0.2296
  382TIP3    H122637   0.411   1.256   2.668 -0.0562  1.4791 -0.7142
  382TIP3    H222638   0.542   1.304   2.725  0.3482 -0.0515 -0.2902
  383TIP3   OH222639   1.795   5.477  11.770 -0.4278 -0.4545  0.4102
  383TIP3    H122640   1.727   5.496  11.835 -0.0551  2.4395  0.1186
  383TIP3    H222641   1.759   5.510  11.688  0.5078 -0.7834 -0.1487
  384TIP3   OH222642   3.035   0.238   5.586 -0.4791 -0.6050  0.6964
  384TIP3    H122643   2.993   0.172   5.532  0.3477 -0.2208 -0.4601
  384TIP3    H222644   3.011   0.215   5.676  0.7402 -3.1673  0.4483
  385TIP3   OH222645   0.296   1.456  14.852 -0.7779 -0.3299  0.2029
  385TIP3    H122646   0.352   1.522  14.811 -1.7779  0.2292 -0.3078
  385TIP3    H222647   0.329   1.372  14.819 -0.8039  0.0464 -0.8154
  386TIP3   OH222648   5.881   6.353  11.712  0.0841  0.6464 -0.1402
  386TIP3    H122649   5.840   6.432  11.747 -0.9413 -0.6582  1.7629
  386TIP3    H222650   5.808   6.293  11.698  0.9033 -0.1689 -1.0826
  387TIP3   OH222651   6.200   2.984   0.660  0.1425  0.7018  0.1613
  387TIP3    H122652   6.216   2.945   0.573 -0.1548  2.6626 -0.8372
  387TIP3    H222653   6.175   3.075   0.641 -0.7852  0.9447  2.2808
  388TIP3   OH222654   5.176   6.561  16.863  0.5720  0.5463  0.2948
  388TIP3    H122655   5.229   6.506  16.920  1.0603  1.5135  0.8024
  388TIP3    H222656   5.229   6.572  16.784  1.4171  1.9643  1.0198
  389TIP3   OH222657   1.705   0.374  15.636  0.4473 -0.3084 -0.3737
  389TIP3    H122658   1.697   0.469  15.647  1.9088 -0.0310 -1.4477
  389TIP3    H222659   1.662   0.338  15.713 -2.6257  1.1121 -1.2740
  390TIP3   OH222660   6.190   5.149   1.486  0.3830  0.4226 -0.5621
  390TIP3    H122661   6.233   5.090   1.424  0.2046  0.9909 -1.2356
  390TIP3    H222662   6.219   5.117   1.572  1.0096 -0.0849 -0.9443
  391TIP3   OH222663   6.416   4.177  15.440  0.1957  0.0779 -0.3690
  391TIP3    H122664   6.421   4.169  15.345 -0.1419 -0.8910 -0.3173
  391TIP3    H222665   6.370   4.259  15.455  0.2170  0.2172 -1.0387
  392TIP3   OH222666   6.575   0.186   3.724 -0.0796  0.1787  0.4483
  392TIP3    H122667   6.664   0.222   3.731  1.6935 -3.1582 -2.1303
  392TIP3    H222668   6.533   0.241   3.657 -0.1865  1.9522  1.8752
  393TIP3   OH222669   6.058   0.602  11.476 -0.0128 -0.7456 -0.1073
  393TIP3    H122670   6.015   0.649  11.405 -0.2917 -2.3223 -1.0234
  393TIP3    H222671   5.999   0.610  11.550 -0.3117 -0.1212 -0.4114
  394TIP3   OH222672   0.923   6.085   3.269 -0.4107  0.2860  0.3137
  394TIP3    H122673   0.883   6.170   3.253 -2.0236 -0.1891  1.5371
  394TIP3    H222674   0.992   6.102   3.333 -0.8580  0.6474  0.7026
  395TIP3   OH222675   3.446   0.277   6.018 -0.1640  0.7810  0.5754
  395TIP3    H122676   3.436   0.193   6.064  0.0813  1.2665  1.5412
  395TIP3    H222677   3.471   0.339   6.086  0.5438  1.4652 -0.2850
  396TIP3   OH222678   3.451   3.789   0.363  0.1674 -0.3775  0.5588
  396TIP3    H122679   3.405   3.748   0.436 -1.2250 -0.9048 -0.5733
  396TIP3    H222680   3.419   3.879   0.362  0.2541 -0.3452  0.6413
  397TIP3   OH222681   2.695   5.206  11.943 -0.1147 -0.3443  0.1015
  397TIP3    H122682   2.770   5.210  11.884 -0.1762 -0.2431  0.0287
  397TIP3    H222683   2.732   5.212  12.031 -0.1278  1.1493  0.0443
  398TIP3   OH222684   5.523   5.742  10.970  0.0988  0.1367 -0.4176
  398TIP3    H122685   5.612   5.778  10.979  0.8859 -1.1839 -2.2117
  398TIP3    H222686   5.481   5.799  10.906  0.2490 -0.2312 -0.8484
  399TIP3   OH222687   0.173   1.908  16.881  0.1024  0.0229  0.4847
  399TIP3    H122688   0.086   1.875  16.903  0.5257 -2.9561 -1.6754
  399TIP3    H222689   0.233   1.838  16.905  1.6883  1.1185 -0.0827
  400TIP3   OH222690   0.982   6.663   4.595  0.4243  0.0591  0.5416
  400TIP3    H122691   0.946   6.631   4.512  2.7460 -1.9222  0.2014
  400TIP3    H222692   1.027   6.744   4.571 -0.4004  0.4329  0.2267
  401TIP3   OH222693   5.655   2.444   0.749 -0.1381 -0.1045  0.5458
  401TIP3    H122694   5.698   2.370   0.706  0.3112 -0.4049  1.4980
  401TIP3    H222695   5.592   2.476   0.683  1.1855  0.0481 -0.6876
  402TIP3   OH222696   4.614   2.634  14.559 -1.0159  0.4232  0.2994
  402TIP3    H122697   4.633   2.541  14.552 -0.4745  0.3052  2.5819
  402TIP3    H222698   4.521   2.639  14.578 -0.8988  0.2884  0.9273
  403TIP3   OH222699   0.486   0.055   4.194  0.7110 -0.1160 -0.4178
  403TIP3    H122700   0.468   0.149   4.191 -0.0412 -0.2227  0.3488
  403TIP3    H222701   0.403   0.015   4.221  1.7263 -0.7648  1.9673
  404TIP3   OH222702   6.581   1.339  15.673  0.9556  0.0237 -0.0281
  404TIP3    H122703   6.514   1.280  15.638 -0.9544  1.9846  0.1552
  404TIP3    H222704   6.622   1.290  15.744 -0.3219 -1.1934 -0.1001
  405TIP3   OH222705   2.009   6.764  12.202  0.2046  0.3159  0.3889
  405TIP3    H122706   2.099   6.758  12.233  0.3870 -0.5135 -0.2691
  405TIP3    H222707   2.015   6.750  12.107 -0.7129 -0.8261  0.4736
  406TIP3   OH222708   6.110   3.555   3.970  0.0284  0.4533  0.0001
  406TIP3    H122709   6.138   3.466   3.990 -1.2741 -0.2279 -1.0708
  406TIP3    H222710   6.186   3.595   3.927 -0.2658 -1.0840 -2.1172
  407TIP3   OH222711   0.895   4.052   3.641 -0.2531  0.3726  0.4434
  407TIP3    H122712   0.827   4.009   3.589  0.7849  2.0480 -2.4878
  407TIP3    H222713   0.846   4.110   3.700 -1.4168  0.6134 -0.7159
  408TIP3   OH222714   0.391   5.933  16.470 -0.0110  0.2681 -0.1698
  408TIP3    H122715   0.388   6.020  16.508 -0.0125  1.2571 -2.3020
  408TIP3    H222716   0.473   5.931  16.420 -0.8352 -0.2904 -1.5614
  409TIP3   OH222717   4.149   3.125  12.710 -0.5282  0.0806 -0.4319
  409TIP3    H122718   4.152   3.154  12.801 -0.0911 -1.1185 -0.0445
  409TIP3    H222719   4.240   3.125  12.682 -0.5791 -0.3718 -0.5982
  410TIP3   OH222720   5.522   2.108   3.405  0.4287  0.1734  0.3110
  410TIP3    H122721   5.514   2.014   3.394 -0.5796  0.3748 -0.8426
  410TIP3    H222722   5.472   2.127   3.485  1.0206 -0.3065  0.8064
  411TIP3   OH222723   6.794   6.666   3.927  0.1052 -0.3142  0.2377
  411TIP3    H122724   6.855   6.599   3.958  0.2903 -1.7835 -2.8849
  411TIP3    H222725   6.722   6.616   3.887 -0.1380  1.3211 -1.5149
  412TIP3   OH222726   4.249   4.172  13.719 -0.4702 -0.1749  0.9339
  412TIP3    H122727   4.188   4.187  13.791  0.1860  0.4050  1.3760
  412TIP3    H222728   4.276   4.260  13.692 -0.9046 -0.3656 -0.2008
  413TIP3   OH222729   0.777   0.246   5.101  0.3126  0.2131 -0.5914
  413TIP3    H122730   0.688   0.213   5.095  0.4307 -0.5847  1.1855
  413TIP3    H222731   0.832   0.175   5.069  0.4171 -0.3977  0.8320
  414TIP3   OH222732   3.471   3.620  13.805  0.2388 -0.8794  0.0347
  414TIP3    H122733   3.533   3.603  13.734 -0.6014  0.2489 -1.0125
  414TIP3    H222734   3.526   3.649  13.878  1.0346 -0.8398 -0.5643
  415TIP3   OH222735   5.881   2.098  16.624  0.0801  0.0636  0.1408
  415TIP3    H122736   5.937   2.030  16.663 -0.6921  0.1865  1.5278
  415TIP3    H222737   5.923   2.180  16.648  0.2967  0.1199 -0.4126
  416TIP3   OH222738   4.654   0.519   4.993 -0.1393  0.3198  0.2563
  416TIP3    H122739   4.679   0.429   4.971  0.3520  0.3188  0.7842
  416TIP3    H222740   4.590   0.510   5.064  0.5300  0.3993  0.8845
  417TIP3   OH222741   4.960   6.118   2.154 -0.1506 -0.2867 -0.2383
  417TIP3    H122742   4.874   6.079   2.172  0.1074 -0.3871  0.8759
  417TIP3    H222743   5.020   6.069   2.211  0.7465 -0.6143 -1.4359
  418TIP3   OH222744   0.642   2.958  15.917 -0.0142 -0.1638 -0.3417
  418TIP3    H122745   0.663   2.868  15.890  0.7271  0.2095 -1.0352
  418TIP3    H222746   0.653   2.957  16.012 -0.7088 -0.9809 -0.2511
  419TIP3   OH222747   4.779   4.129   2.340 -0.1287 -0.0475  0.6345
  419TIP3    H122748   4.768   4.164   2.252  2.1025 -0.8369 -0.0193
  419TIP3    H222749   4.867   4.155   2.365  0.2598 -2.0975  1.5597
  420TIP3   OH222750   5.119   4.674   6.417  0.0473 -0.2065 -0.0500
  420TIP3    H122751   5.057   4.746   6.431  2.6496  2.1814  0.2096
  420TIP3    H222752   5.187   4.712   6.362  0.7612 -3.0340 -1.2476
  421TIP3   OH222753   0.783   0.209  14.015 -0.6060 -0.0293 -0.2157
  421TIP3    H122754   0.802   0.170  14.100  1.7076 -0.8256 -1.0282
  421TIP3    H222755   0.858   0.267  13.998 -0.0938 -1.2378 -2.4615
  422TIP3   OH222756   3.770   6.039   2.750 -0.5486  0.2548 -0.2767
  422TIP3    H122757   3.796   6.074   2.835 -0.4887  1.0454 -0.6139
  422TIP3    H222758   3.706   5.970   2.771  0.5558 -0.5833  0.4724
  423TIP3   OH222759   1.150   2.153  15.869 -0.1345 -0.6156  0.2376
  423TIP3    H122760   1.057   2.171  15.857  0.1463  0.6497 -0.2049
  423TIP3    H222761   1.193   2.203  15.799  0.9165 -0.6349  0.8485
  424TIP3   OH222762   6.548   0.129   1.864 -0.1843 -0.1352 -0.0372
  424TIP3    H122763   6.612   0.074   1.910  0.0398  0.3487  0.2521
  424TIP3    H222764   6.567   0.218   1.896 -1.1216 -0.0036  0.1938
  425TIP3   OH222765   0.536   5.953  11.643 -0.3832  0.4694  0.0385
  425TIP3    H122766   0.630   5.970  11.636  0.0199 -1.7154 -0.5010
  425TIP3    H222767   0.498   6.038  11.665  2.0001  0.9106  3.1866
  426TIP3   OH222768   3.661   6.052   2.381 -0.0611  0.5123  0.4751
  426TIP3    H122769   3.711   6.131   2.363  0.4393  0.0488 -0.2131
  426TIP3    H222770   3.727   5.983   2.392 -0.4740  0.2602  1.4361
  427TIP3   OH222771   5.837   3.082   0.443 -0.7238  0.5109  0.3235
  427TIP3    H122772   5.796   3.053   0.362  0.5856 -0.5322  0.0081
  427TIP3    H222773   5.913   3.133   0.415 -0.0912 -0.0998  0.8780
  428TIP3   OH222774   4.043   0.811   5.047  0.3340 -0.0625  0.5391
  428TIP3    H122775   4.032   0.899   5.081 -0.0178 -0.6121  1.9085
  428TIP3    H222776   4.110   0.819   4.979  0.6870  1.1523  1.0188
  429TIP3   OH222777   0.831   0.816  16.853  0.3911  0.1456 -0.3349
  429TIP3    H122778   0.775   0.886  16.889  1.5214  0.9066 -0.0001
  429TIP3    H222779   0.818   0.822  16.758 -0.3527  0.0725 -0.2489
  430TIP3   OH222780   6.567   5.931  14.775  0.6794 -0.4988  0.6654
  430TIP3    H122781   6.564   6.019  14.736 -1.6360 -0.7110  0.2498
  430TIP3    H222782   6.613   5.878  14.710 -1.1884 -0.3669 -0.8380
  431TIP3   OH222783   2.208   6.441   5.753  0.0896 -0.1347  0.0920
  431TIP3    H122784   2.293   6.478   5.776  0.4957 -0.2149 -1.1827
  431TIP3    H222785   2.226   6.384   5.679 -0.8258 -1.4527  0.8355
  432TIP3   OH222786   3.197   5.557   0.454 -0.1557 -0.4492  0.2997
  432TIP3    H122787   3.198   5.598   0.540 -2.2449 -0.2039  0.2492
  432TIP3    H222788   3.121   5.499   0.456  0.7745 -1.7808 -0.7965
  433TIP3   OH222789   2.514   0.359   2.971 -0.0060  0.0298  0.3333
  433TIP3    H122790   2.453   0.413   3.020 -1.4023 -0.1440 -1.1366
  433TIP3    H222791   2.565   0.420   2.918 -0.5403  0.0325 -0.1896
  434TIP3   OH222792   4.220   5.581  15.869  0.3041 -0.3702  0.0295
  434TIP3    H122793   4.170   5.548  15.945  0.6555 -0.3101  0.2885
  434TIP3    H222794   4.290   5.517  15.858 -0.3287 -0.9207 -0.8715
  435TIP3   OH222795   1.846   3.258   1.814 -0.3963 -0.4308  0.5494
  435TIP3    H122796   1.837   3.274   1.720 -1.5373  1.1807  0.8948
  435TIP3    H222797   1.894   3.175   1.820  0.9486  0.1488 -1.4383
  436TIP3   OH222798   5.694   6.000   3.942 -0.1314  0.1941 -0.4077
  436TIP3    H122799   5.610   5.956   3.950  0.1074 -0.0249  1.2183
  436TIP3    H222800   5.734   5.962   3.863 -1.7002  0.6233 -1.4665
  437TIP3   OH222801   1.007   5.713   2.047  0.1036  0.5501 -0.4347
  437TIP3    H122802   1.056   5.787   2.011  2.4487  0.3433  2.0060
  437TIP3    H222803   1.045   5.636   2.004  1.3255  0.4568  0.7673
  438TIP3   OH222804   1.775   6.419   4.747  0.1868 -0.3418 -0.4173
  438TIP3    H122805   1.863   6.424   4.783 -0.0165 -0.3804  0.1136
  438TIP3    H222806   1.770   6.489   4.682  1.3079 -1.7032 -2.0534
  439TIP3   OH222807   3.027   6.308  11.935  0.3726  0.1974 -0.3627
  439TIP3    H122808   3.107   6.357  11.919  0.5918 -0.2227 -0.5354
  439TIP3    H222809   2.958   6.375  11.936  0.6451  0.4830 -0.7951
  440TIP3   OH222810   6.614   3.803   5.569  0.4194 -0.0478 -0.3150
  440TIP3    H122811   6.624   3.803   5.664  2.9970 -0.7295 -0.5293
  440TIP3    H222812   6.592   3.713   5.548  0.9780 -0.1572 -0.4437
  441TIP3   OH222813   2.742   4.815  13.428  0.4470  0.2254 -0.3515
  441TIP3    H122814   2.816   4.795  13.485  0.6495  0.5420 -0.5015
  441TIP3    H222815   2.779   4.816  13.340  0.3844  0.9458 -0.3802
  442TIP3   OH222816   3.616   5.001   6.152  0.0646  0.5545 -0.1293
  442TIP3    H122817   3.602   4.921   6.203  2.5159  0.7007  0.9058
  442TIP3    H222818   3.545   5.059   6.178 -0.8174 -0.6748  0.3324
  443TIP3   OH222819   2.084   3.452   0.582 -0.5222 -0.5076 -0.4896
  443TIP3    H122820   1.994   3.454   0.548 -0.4855  0.0663 -0.5681
  443TIP3    H222821   2.126   3.529   0.542  0.0770 -0.9166 -0.6559
  444TIP3   OH222822   3.406   0.707  13.155 -0.2805  0.1807 -0.0176
  444TIP3    H122823   3.384   0.623  13.115  0.7591 -0.3998  0.5871
  444TIP3    H222824   3.322   0.750  13.169 -0.9489 -1.3559  0.9459
  445TIP3   OH222825   4.643   1.753  11.350  0.1085  0.7829 -0.6885
  445TIP3    H122826   4.657   1.776  11.258  0.7882  0.5544 -0.6494
  445TIP3    H222827   4.642   1.837  11.396 -3.2556  1.1737 -1.2421
  446TIP3   OH222828   5.571   2.339  15.797 -0.1993 -0.1324 -0.1999
  446TIP3    H122829   5.496   2.335  15.857  0.1609 -1.6792  0.1952
  446TIP3    H222830   5.548   2.280  15.726 -0.7669  1.9291 -1.8367
  447TIP3   OH222831   5.996   6.776   2.457  0.6822 -0.3687  0.0515
  447TIP3    H122832   5.906   6.748   2.445  1.3089 -1.9222 -1.5800
  447TIP3    H222833   6.033   6.711   2.517  1.3323 -1.3017 -1.2967
  448TIP3   OH222834   0.604   3.371   1.907 -0.8552 -0.2892 -0.6857
  448TIP3    H122835   0.565   3.328   1.832  0.0029 -1.5035 -0.4575
  448TIP3    H222836   0.551   3.343   1.981  0.1561 -1.6331 -0.4294
  449TIP3   OH222837   2.896   2.834   3.063 -0.3052 -0.4932 -0.0320
  449TIP3    H122838   2.804   2.810   3.074 -0.0797 -0.9274  1.0448
  449TIP3    H222839   2.940   2.751   3.046 -0.0400 -0.3483 -0.0476
  450TIP3   OH222840   2.821   5.913  14.417 -0.2662 -0.0942 -0.4462
  450TIP3    H122841   2.764   5.866  14.357  0.8605 -1.1683 -0.7297
  450TIP3    H222842   2.894   5.853  14.432 -0.0136  0.5722  1.1825
  451TIP3   OH222843   0.665   3.698  13.585  0.2753 -0.2190  0.5062
  451TIP3    H122844   0.651   3.682  13.492  2.0847  0.5399  0.0403
  451TIP3    H222845   0.662   3.793  13.593  0.4519 -0.2661  1.1555
  452TIP3   OH222846   4.992   6.486   1.592  0.1709 -0.1362  0.1104
  452TIP3    H122847   5.077   6.442   1.596  0.9058  1.2394  0.1286
  452TIP3    H222848   4.971   6.506   1.683  0.2210  0.2537  0.0369
  453TIP3   OH222849   0.409   2.592  11.686  0.0462 -0.3589 -0.2302
  453TIP3    H122850   0.402   2.662  11.752 -1.1004  0.6002 -1.3180
  453TIP3    H222851   0.489   2.612  11.638  1.0071 -1.1835  0.9475
  454TIP3   OH222852   5.713   3.064   4.145  0.0475 -0.0135  0.0161
  454TIP3    H122853   5.735   3.141   4.092  1.7070 -0.0289  0.6449
  454TIP3    H222854   5.732   3.090   4.235 -1.1412 -0.5623  0.4440
  455TIP3   OH222855   0.966   5.153  11.974 -0.7550  0.1700 -0.7311
  455TIP3    H122856   1.000   5.135  12.062 -2.8222 -0.1100  0.0565
  455TIP3    H222857   1.016   5.094  11.917 -0.6810 -1.0349  0.5189
  456TIP3   OH222858   4.815   1.563   1.513  0.1460 -0.3704  0.4922
  456TIP3    H122859   4.785   1.572   1.422 -1.0388  1.7785  1.0214
  456TIP3    H222860   4.900   1.607   1.515  1.0526 -2.0138  0.0882
  457TIP3   OH222861   5.383   5.351  13.111  0.0166 -0.3346 -0.0632
  457TIP3    H122862   5.478   5.355  13.109 -0.0083 -0.1105 -0.8973
  457TIP3    H222863   5.360   5.370  13.203  0.7518 -0.0590  0.0662
  458TIP3   OH222864   0.297   1.970   3.210 -0.0517  0.6078  0.2812
  458TIP3    H122865   0.356   1.976   3.136 -0.3605  1.0282  0.0600
  458TIP3    H222866   0.232   2.039   3.194 -0.0769  0.7534  0.9764
  459TIP3   OH222867   4.920   0.001   3.282 -0.6432  0.3693 -0.8637
  459TIP3    H122868   4.955  -0.012   3.370 -1.0194 -0.3529 -0.8145
  459TIP3    H222869   4.880   0.088   3.286  2.3755  1.8944 -1.3685
  460TIP3   OH222870   1.002   1.558  16.207  0.0863  0.5403  0.6121
  460TIP3    H122871   1.026   1.474  16.246 -0.0855  0.0951 -0.2196
  460TIP3    H222872   0.911   1.547  16.179  0.4405  0.5558 -0.6310
  461TIP3   OH222873   0.909   3.779  12.666 -0.0728 -0.7004  0.1734
  461TIP3    H122874   0.978   3.845  12.658  0.3122 -0.7969  2.3049
  461TIP3    H222875   0.827   3.828  12.656  0.2505 -0.3409 -0.8155
  462TIP3   OH222876   1.535   3.804  11.216 -0.0924 -0.6112  0.0998
  462TIP3    H122877   1.538   3.894  11.183  2.1318 -1.4963 -2.5424
  462TIP3    H222878   1.444   3.777  11.204 -0.5358  0.8988 -0.1776
  463TIP3   OH222879   1.922   0.754   6.721  0.1789 -0.0340 -0.2976
  463TIP3    H122880   1.965   0.780   6.802 -2.9778 -0.3877  1.6631
  463TIP3    H222881   1.976   0.683   6.687  0.4779 -1.3761  2.6991
  464TIP3   OH222882   4.039   4.546   4.705 -0.0865  0.1738 -0.4083
  464TIP3    H122883   4.000   4.587   4.782 -0.1858 -0.8909  0.1182
  464TIP3    H222884   3.982   4.472   4.686 -0.1682  0.5227 -1.6254
  465TIP3   OH222885   5.540   3.683   1.307  0.1053 -0.2349  1.1642
  465TIP3    H122886   5.554   3.670   1.214  0.1287 -0.2506  1.1700
  465TIP3    H222887   5.448   3.710   1.314 -0.2184 -1.3083  1.2463
  466TIP3   OH222888   5.720   3.406  16.339  0.4930 -0.1465 -0.4377
  466TIP3    H122889   5.625   3.392  16.336  0.4079 -0.0555  1.2381
  466TIP3    H222890   5.751   3.346  16.407  1.8790 -1.3021 -2.0038
  467TIP3   OH222891   4.824   6.509   4.090  0.4481  0.9479  0.2307
  467TIP3    H122892   4.869   6.540   4.169  0.8088  0.3367  0.2708
  467TIP3    H222893   4.732   6.531   4.105  0.1462 -1.1353  1.8216
  468TIP3   OH222894   5.901   1.153   6.113 -0.0434 -0.7256  0.0488
  468TIP3    H122895   5.818   1.185   6.080 -0.8322 -1.4058  1.2733
  468TIP3    H222896   5.880   1.117   6.200  1.5555 -0.7296  0.4740
  469TIP3   OH222897   1.578   0.770  13.318  0.0174 -0.1718 -0.1492
  469TIP3    H122898   1.526   0.711  13.263 -0.6746 -1.3713  1.7063
  469TIP3    H222899   1.640   0.713  13.363  1.9576  1.0538 -1.1542
  470TIP3   OH222900   3.793   1.122   3.651  0.4283  0.4013  0.0524
  470TIP3    H122901   3.731   1.193   3.660  1.1919  1.2093 -0.8188
  470TIP3    H222902   3.797   1.081   3.737 -1.8284 -0.1363 -0.0480
  471TIP3   OH222903   5.994   4.132   2.307  0.2713 -0.8083  0.0592
  471TIP3    H122904   5.906   4.094   2.313  0.1166 -0.3273  0.9983
  471TIP3    H222905   6.026   4.132   2.398  0.3336  1.1343  0.0745
  472TIP3   OH222906   3.149   0.517   2.334 -0.0298  0.4022 -0.5936
  472TIP3    H122907   3.110   0.454   2.273 -0.5494 -0.1049  0.2386
  472TIP3    H222908   3.199   0.577   2.279  2.1813 -1.8970 -1.2652
  473TIP3   OH222909   3.087   4.062  10.411  0.4585 -0.3297 -0.2645
  473TIP3    H122910   3.169   4.102  10.439 -0.5022  2.1824 -0.7505
  473TIP3    H222911   3.021   4.100  10.469 -0.3246 -3.0264  0.7589
  474TIP3   OH222912   3.486   1.315   1.583 -0.0097 -0.1174 -0.1379
  474TIP3    H122913   3.406   1.317   1.636 -0.4441 -0.3833 -0.7732
  474TIP3    H222914   3.534   1.394   1.609 -0.2058 -0.2522  0.6619
  475TIP3   OH222915   3.645   2.461   1.664 -0.1882 -0.1068 -0.3632
  475TIP3    H122916   3.624   2.422   1.749  2.0795  0.2916  0.4592
  475TIP3    H222917   3.629   2.555   1.677 -0.7959 -0.1527 -0.7256
  476TIP3   OH222918   4.060   4.606  11.620  0.4542 -0.9805  0.1613
  476TIP3    H122919   4.051   4.512  11.603  1.7115 -1.1278  0.1751
  476TIP3    H222920   4.154   4.619  11.634  0.4564  0.4448 -0.8534
  477TIP3   OH222921   6.129   6.801   4.463 -0.5366  0.0265  0.3858
  477TIP3    H122922   6.184   6.724   4.478 -0.5740  0.1365  1.1406
  477TIP3    H222923   6.056   6.790   4.523 -1.9031 -0.6326 -1.3237
  478TIP3   OH222924   3.217   3.590  14.649  0.7832  0.1385 -0.1828
  478TIP3    H122925   3.288   3.638  14.690  1.5780 -2.1458  1.2868
  478TIP3    H222926   3.259   3.516  14.606 -0.6745 -1.5198  1.0975
  479TIP3   OH222927   0.653   3.215  13.851 -0.0378 -0.3437 -0.4371
  479TIP3    H122928   0.723   3.153  13.833 -0.9845 -1.9250  0.9704
  479TIP3    H222929   0.580   3.186  13.795  0.4428  1.4952 -2.1634
  480TIP3   OH222930   2.674   5.452   6.323 -0.9962 -0.2629  0.2230
  480TIP3    H122931   2.660   5.542   6.352  0.8430 -0.5012  2.0504
  480TIP3    H222932   2.619   5.399   6.380 -0.9470 -0.4106  0.1349
  481TIP3   OH222933   2.252   0.908  15.258  0.2363 -0.1424 -0.1675
  481TIP3    H122934   2.343   0.922  15.230 -0.1097 -0.8043 -1.7320
  481TIP3    H222935   2.232   0.984  15.312  1.4149  0.4992 -0.5828
  482TIP3   OH222936   4.018   5.902  13.420 -0.0788 -0.2092  0.1949
  482TIP3    H122937   4.076   5.972  13.451 -0.2371 -0.0867  0.2168
  482TIP3    H222938   4.001   5.924  13.329  1.0397 -1.0062 -0.2351
  483TIP3   OH222939   1.709   5.039  15.611 -0.8220  0.4307 -0.0970
  483TIP3    H122940   1.672   5.120  15.647  2.5354  3.0354 -1.8410
  483TIP3    H222941   1.804   5.054  15.614  0.0068 -3.7966  0.0384
  484TIP3   OH222942   1.967   4.107   4.062 -0.7301  0.3416 -0.4076
  484TIP3    H122943   2.003   4.173   4.002  1.4567 -2.5694 -2.5612
  484TIP3    H222944   1.909   4.055   4.008 -1.2364 -0.4357  0.8488
  485TIP3   OH222945   0.220   1.108  13.783  0.0723  0.9421  0.2425
  485TIP3    H122946   0.258   1.051  13.716  0.7325  0.6605  0.8375
  485TIP3    H222947   0.212   1.193  13.741  0.8973  0.8812 -0.0700
  486TIP3   OH222948   3.073   6.746  14.694 -0.4018  0.3230  0.0051
  486TIP3    H122949   3.103   6.754  14.603  0.7008 -1.4410  0.1542
  486TIP3    H222950   3.152   6.760  14.746 -1.0689  1.5499  0.7441
  487TIP3   OH222951   5.631   2.157   4.129  0.4093 -0.0650  0.1199
  487TIP3    H122952   5.707   2.200   4.089  1.3776 -2.2399 -0.5044
  487TIP3    H222953   5.568   2.150   4.057  0.1616  0.4638  0.2783
  488TIP3   OH222954   1.175   5.429   2.132  0.2151  0.4305  0.0361
  488TIP3    H122955   1.124   5.387   2.202  0.9878  1.4779  1.2578
  488TIP3    H222956   1.147   5.383   2.053 -1.7111  0.1274  0.8170
  489TIP3   OH222957   1.751   2.377   3.249 -0.2635 -0.7632  0.0759
  489TIP3    H122958   1.741   2.471   3.263 -3.0247 -0.5458 -2.4241
  489TIP3    H222959   1.831   2.368   3.197 -0.1009  0.2132  0.1416
  490TIP3   OH222960   5.831   0.505   1.364  0.1206 -0.6754  0.1080
  490TIP3    H122961   5.830   0.580   1.422 -2.3576  0.7452 -1.5793
  490TIP3    H222962   5.763   0.447   1.397  0.4546 -1.0824  0.0909
  491TIP3   OH222963   1.978   1.138  14.277 -0.4045 -0.1793 -0.0973
  491TIP3    H122964   1.931   1.143  14.360 -2.1285 -1.9217 -0.8813
  491TIP3    H222965   1.936   1.203  14.222 -1.2377 -1.0148 -0.4716
  492TIP3   OH222966   3.258   0.279  13.190 -0.0448  0.7622 -0.2888
  492TIP3    H122967   3.328   0.250  13.248 -0.3289  1.4595  0.4319
  492TIP3    H222968   3.293   0.268  13.102  1.8546  3.1445  0.0632
  493TIP3   OH222969   5.676   6.664   3.078 -0.7161  0.1758 -0.1469
  493TIP3    H122970   5.700   6.640   2.988 -0.0106  0.5248 -0.0588
  493TIP3    H222971   5.585   6.691   3.072 -0.9548 -0.6731 -0.5948
  494TIP3   OH222972   2.388   6.135  16.724  0.2538  0.2422  0.1820
  494TIP3    H122973   2.393   6.091  16.640 -1.2666  1.3366 -0.5285
  494TIP3    H222974   2.473   6.119  16.765  1.1349 -0.0599 -1.6761
  495TIP3   OH222975   5.987   4.547  11.872 -0.5603  0.0354 -0.4357
  495TIP3    H122976   5.964   4.592  11.953  0.0199 -1.7784  0.7953
  495TIP3    H222977   5.903   4.530  11.829 -0.9563  0.0122  0.3367
  496TIP3   OH222978   1.692   0.742  16.248 -0.5679 -0.2028  0.4752
  496TIP3    H122979   1.625   0.730  16.181  1.0213  0.3021 -1.2730
  496TIP3    H222980   1.702   0.837  16.255 -0.7908 -0.2429  1.5542
  497TIP3   OH222981   6.802   0.264  16.902  0.5409 -0.3610  0.2113
  497TIP3    H122982   6.840   0.186  16.942  3.0113  0.9407  0.5949
  497TIP3    H222983   6.857   0.336  16.934 -1.0514  1.4220 -0.9024
  498TIP3   OH222984   3.615   3.885   3.454  0.1762  0.7148 -0.0498
  498TIP3    H122985   3.694   3.935   3.438 -0.7697  2.0972 -0.5924
  498TIP3    H222986   3.549   3.950   3.480 -0.7544 -0.3987  0.4872
  499TIP3   OH222987   6.234   1.867   4.302 -0.2936 -0.1215  0.2653
  499TIP3    H122988   6.308   1.927   4.291  0.4836 -0.9015  1.1002
  499TIP3    H222989   6.227   1.822   4.218  1.0094 -0.9413  0.5755
  500TIP3   OH222990   2.206   1.318   2.961 -0.1590  0.2980  0.9429
  500TIP3    H122991   2.151   1.380   2.913 -0.8502 -0.0186  1.3186
  500TIP3    H222992   2.259   1.374   3.018  0.2795  0.6392  0.2268
  501TIP3   OH222993   3.368   0.105   3.454 -0.0707 -0.4333  0.2836
  501TIP3    H122994   3.371   0.021   3.500 -0.2651  1.5363  4.3629
  501TIP3    H222995   3.301   0.156   3.500  0.4724  2.2135 -1.5744
  502TIP3   OH222996   2.883   2.297   2.085  0.2902 -0.5612 -0.0781
  502TIP3    H122997   2.856   2.356   2.155  0.0946 -1.9213  1.0470
  502TIP3    H222998   2.810   2.297   2.023  0.8581  1.3815 -0.8136
  503TIP3   OH222999   4.077   2.672  11.617 -0.2615 -0.2642  0.0339
  503TIP3    H123000   4.018   2.629  11.556  2.9792 -0.4372 -3.3095
  503TIP3    H223001   4.082   2.762  11.586  0.1828  0.1025  1.1162
  504TIP3   OH223002   5.839   1.141  11.052 -0.1291  0.2427 -0.3990
  504TIP3    H123003   5.781   1.141  11.128 -1.1936  0.3415 -1.1818
  504TIP3    H223004   5.779   1.150  10.977  0.9186  0.4940 -1.2202
  505TIP3   OH223005   3.311   2.996   0.068  0.3081 -0.4780  0.4256
  505TIP3    H123006   3.276   2.984  -0.020  0.3030  0.4022  0.3009
  505TIP3    H223007   3.234   2.996   0.125  0.3366 -1.4224  0.4910
  506TIP3   OH223008   5.536   0.338   4.858  0.1753  0.2756 -0.0579
  506TIP3    H123009   5.612   0.328   4.916  1.3809 -0.7065 -1.7491
  506TIP3    H223010   5.504   0.249   4.844 -0.5063  0.5660 -0.3797
  507TIP3   OH223011   4.731   4.522   4.768 -0.1295  0.3007  0.2735
  507TIP3    H123012   4.701   4.604   4.807 -2.8225 -0.1525 -0.6883
  507TIP3    H223013   4.685   4.516   4.684  1.1521 -1.5012 -0.3814
  508TIP3   OH223014   6.401   4.544  12.201  0.5965  0.3052  0.1383
  508TIP3    H123015   6.332   4.479  12.212 -0.0186  0.9452  0.1035
  508TIP3    H223016   6.405   4.591  12.284 -0.0904  1.2982 -0.3623
  509TIP3   OH223017   6.487   5.281   3.230  0.0124  0.1650  0.0368
  509TIP3    H123018   6.517   5.334   3.304 -0.2684 -0.1438  0.3797
  509TIP3    H223019   6.563   5.272   3.174  0.2872  0.2259  0.3979
  510TIP3   OH223020   3.242   6.695   5.529  0.2560 -0.1502 -0.1783
  510TIP3    H123021   3.285   6.777   5.554  0.6111 -0.9506  2.1132
  510TIP3    H223022   3.241   6.643   5.610 -1.2524 -1.8425 -1.2075
  511TIP3   OH223023   5.507   1.872  14.970 -0.0571 -0.2697  0.1935
  511TIP3    H123024   5.582   1.828  14.929  0.5605  1.8282 -1.0768
  511TIP3    H223025   5.535   1.963  14.978 -2.3082  0.4820  0.1227
  512TIP3   OH223026   6.358   3.595  12.396 -0.6380 -0.7529  0.2861
  512TIP3    H123027   6.339   3.537  12.322 -1.3194 -0.0125 -0.1371
  512TIP3    H223028   6.429   3.552  12.443 -0.5855 -1.5200 -0.4780
  513TIP3   OH223029   6.372   1.039   5.963  0.4094 -0.9514  0.2695
  513TIP3    H123030   6.467   1.041   5.978  0.8073 -0.1941 -1.9528
  513TIP3    H223031   6.343   1.129   5.978  0.2280 -0.9571 -0.0311
  514TIP3   OH223032   5.829   5.841   2.062  0.4884  0.0629 -0.2502
  514TIP3    H123033   5.799   5.847   1.971  0.7655 -0.7645 -0.4050
  514TIP3    H223034   5.870   5.926   2.079  0.7223  0.1128 -1.0092
  515TIP3   OH223035   1.063   3.034   1.782 -0.3120  0.1464 -0.0876
  515TIP3    H123036   1.057   3.117   1.735 -2.1390 -1.0056 -2.0523
  515TIP3    H223037   0.990   3.036   1.844 -1.1496 -0.4821 -1.0316
  516TIP3   OH223038   6.443   2.256   0.486  0.0603 -0.7419 -0.3913
  516TIP3    H123039   6.467   2.287   0.399  1.8483 -2.7230 -0.6910
  516TIP3    H223040   6.350   2.274   0.494 -0.0784 -0.2882 -2.6063
  517TIP3   OH223041   3.696   0.627   5.595 -0.1125  0.7517 -0.5699
  517TIP3    H123042   3.723   0.622   5.504 -0.8894 -0.2115 -0.7566
  517TIP3    H223043   3.776   0.650   5.642  0.1391  2.0222 -1.5616
  518TIP3   OH223044   1.754   2.453   4.756  0.0958  0.0463 -0.0923
  518TIP3    H123045   1.779   2.502   4.835 -0.0279 -0.8181  0.5034
  518TIP3    H223046   1.837   2.423   4.719  0.2919  1.9580 -1.3310
  519TIP3   OH223047   3.786   1.827  14.633 -0.0681  0.1516 -0.2394
  519TIP3    H123048   3.704   1.855  14.674 -1.5295  1.2067 -3.5196
  519TIP3    H223049   3.758   1.781  14.553  2.5282  0.2950 -1.3222
  520TIP3   OH223050   3.679   0.945  10.847  0.0945 -0.8353  0.1417
  520TIP3    H123051   3.681   1.016  10.782  1.4787  1.0837  2.1639
  520TIP3    H223052   3.639   0.872  10.800  0.2534  0.6990 -2.6065
  521TIP3   OH223053   3.589   0.074  15.822  0.2221 -0.1431  0.3265
  521TIP3    H123054   3.651   0.056  15.892  1.5741 -1.1630 -1.0757
  521TIP3    H223055   3.599   0.001  15.761 -0.9024  0.7046 -0.9353
  522TIP3   OH223056   4.983   3.264   1.213  0.1547  0.2060  0.4938
  522TIP3    H123057   5.060   3.321   1.215 -0.0992  0.5232  1.4929
  522TIP3    H223058   4.986   3.217   1.297 -1.0023  0.5770  0.7572
  523TIP3   OH223059   4.457   0.745  17.143 -0.3809 -0.2057  0.9262
  523TIP3    H123060   4.508   0.699  17.210  0.0582 -2.0055 -0.5441
  523TIP3    H223061   4.493   0.833  17.142  1.2076 -0.8063  1.4579
  524TIP3   OH223062   0.667   6.014   0.016 -0.1404 -0.1818 -0.4229
  524TIP3    H123063   0.669   5.984  -0.075 -1.4334  0.3601 -0.6577
  524TIP3    H223064   0.754   6.051   0.031  0.0655 -0.2195 -1.4543
  525TIP3   OH223065   3.826   2.123  11.395 -0.2328 -0.4138 -0.3448
  525TIP3    H123066   3.853   2.165  11.313 -2.2806 -1.0800 -1.4369
  525TIP3    H223067   3.739   2.089  11.376 -0.0626 -2.0953  1.6012
  526TIP3   OH223068   4.920   1.276   4.079 -0.5327  0.2141 -0.1116
  526TIP3    H123069   5.005   1.263   4.122 -0.4618 -1.6658 -0.7265
  526TIP3    H223070   4.918   1.208   4.011 -2.8994 -0.3301  0.4429
  527TIP3   OH223071   0.519   2.049   0.936  0.0123  0.1546  0.5234
  527TIP3    H123072   0.597   2.069   0.987 -0.6073  0.2842  1.4461
  527TIP3    H223073   0.468   1.991   0.992  0.2586 -1.4045 -0.7896
  528TIP3   OH223074   5.819   3.633   0.911  0.1448 -0.2715  0.1998
  528TIP3    H123075   5.889   3.625   0.976 -0.1214 -1.6049  0.3458
  528TIP3    H223076   5.835   3.562   0.849  0.5616  1.1543 -1.3975
  529TIP3   OH223077   3.734   4.675  12.120  0.0839 -0.2064 -0.4717
  529TIP3    H123078   3.650   4.672  12.165  1.0536  0.0873  1.4497
  529TIP3    H223079   3.751   4.584  12.095  1.5112 -1.3066  3.7562
  530TIP3   OH223080   0.552   3.465  16.492  0.5101 -0.1747  0.8345
  530TIP3    H123081   0.474   3.492  16.443  1.8872  2.0023 -0.3375
  530TIP3    H223082   0.552   3.522  16.569 -0.0891 -1.5814  1.9209
  531TIP3   OH223083   4.513   6.337  13.566  0.5601  0.0543 -0.0983
  531TIP3    H123084   4.448   6.354  13.498 -0.1430  0.6078  0.6891
  531TIP3    H223085   4.589   6.303  13.519 -0.5186 -1.2303 -0.9775
  532TIP3   OH223086   4.191   1.401  11.280  0.3135 -0.1965 -0.5767
  532TIP3    H123087   4.160   1.490  11.293 -2.7350 -1.1277 -0.6333
  532TIP3    H223088   4.209   1.396  11.186  2.1458  0.7670 -0.3140
  533TIP3   OH223089   6.536   1.632   5.242 -0.1061 -0.0064  0.2179
  533TIP3    H123090   6.557   1.619   5.149  1.8118 -1.6446  0.8158
  533TIP3    H223091   6.564   1.551   5.284 -0.5539  0.8714  2.3021
  534TIP3   OH223092   6.682   1.124  12.907 -0.1651  0.0496 -0.0438
  534TIP3    H123093   6.762   1.171  12.929 -0.7454  0.3021  1.7109
  534TIP3    H223094   6.710   1.057  12.844  1.3223  0.4668  0.1375
  535TIP3   OH223095   2.431   2.924   2.625  0.2607 -0.1306  0.0616
  535TIP3    H123096   2.499   2.961   2.567 -1.3376  0.9932 -1.1802
  535TIP3    H223097   2.442   2.971   2.707  1.4312 -0.4758  0.1199
  536TIP3   OH223098   4.595   3.207  16.941 -0.0654  0.0348  0.1762
  536TIP3    H123099   4.567   3.119  16.966 -0.3348  0.1441  0.2656
  536TIP3    H223100   4.538   3.230  16.867 -1.4895  0.9819  1.5100
  537TIP3   OH223101   6.321   4.189   6.342 -0.0957 -0.3782  0.1459
  537TIP3    H123102   6.229   4.164   6.331 -0.1240  0.0043 -0.5348
  537TIP3    H223103   6.355   4.128   6.407 -0.6928 -0.8673  0.0068
  538TIP3   OH223104   1.836   4.356  11.580 -0.1829  0.3070 -0.6361
  538TIP3    H123105   1.747   4.389  11.588  0.2864  1.8009 -1.2601
  538TIP3    H223106   1.826   4.269  11.542 -1.3507  0.6303 -1.1121
  539TIP3   OH223107   3.617   5.443  17.105  0.1931  0.3842  0.3837
  539TIP3    H123108   3.690   5.505  17.099  1.0592 -0.6017  0.5026
  539TIP3    H223109   3.655   5.358  17.081 -1.1615  0.0205 -0.6098
  540TIP3   OH223110   3.916   6.348   1.719  0.2863 -0.3266  0.7490
  540TIP3    H123111   3.981   6.278   1.716  0.4003 -0.1823 -0.2597
  540TIP3    H223112   3.936   6.403   1.644 -0.0063  0.6185  1.3463
  541TIP3   OH223113   2.374   6.599   5.157  0.6047  0.8342  0.6142
  541TIP3    H123114   2.299   6.542   5.141 -0.3554  2.0234  0.6289
  541TIP3    H223115   2.397   6.584   5.248  1.7985 -1.1102  0.0310
  542TIP3   OH223116   2.464   2.471   6.009  0.6714  0.4247 -0.6940
  542TIP3    H123117   2.427   2.398   6.058  0.2917  0.5417 -0.7964
  542TIP3    H223118   2.436   2.455   5.918  1.1787  0.3257 -0.8324
  543TIP3   OH223119   2.513   3.174  14.448 -0.1901  0.9080  0.6688
  543TIP3    H123120   2.582   3.158  14.514  1.4277  1.8958 -0.7084
  543TIP3    H223121   2.530   3.108  14.380 -1.2823  0.4882  0.7903
  544TIP3   OH223122   6.722   2.552   4.692  0.0349 -0.3969 -0.0177
  544TIP3    H123123   6.660   2.617   4.660  0.8139  0.2254 -0.3050
  544TIP3    H223124   6.806   2.599   4.697  0.7454 -1.5296 -0.7990
  545TIP3   OH223125   2.574   6.712  14.874  0.1713  0.0855 -0.0356
  545TIP3    H123126   2.548   6.686  14.785 -0.0646  1.3232 -0.3416
  545TIP3    H223127   2.653   6.765  14.862 -0.0022  0.4670  0.4815
  546TIP3   OH223128   2.668   6.273  12.101 -0.1638 -0.4430 -0.2585
  546TIP3    H123129   2.589   6.241  12.145 -0.5168 -0.0890 -0.6282
  546TIP3    H223130   2.720   6.195  12.085 -0.7718 -0.7666 -0.6761
  547TIP3   OH223131   5.401   1.143  12.629  0.2520  0.1266 -0.8065
  547TIP3    H123132   5.317   1.103  12.648  0.5217 -1.4846 -2.6461
  547TIP3    H223133   5.428   1.184  12.711 -1.2742 -1.2649  0.4482
  548TIP3   OH223134   4.280   1.506  13.426  0.0576 -0.0132  0.5478
  548TIP3    H123135   4.299   1.519  13.519 -0.4887  0.1493  0.6419
  548TIP3    H223136   4.190   1.537  13.415  0.7670  1.8192 -0.4371
  549TIP3   OH223137   0.571   2.230  12.505 -0.2587 -0.4318  0.6551
  549TIP3    H123138   0.525   2.314  12.501  0.9057  0.2191  0.2914
  549TIP3    H223139   0.530   2.177  12.437  0.6198  0.7313 -0.8496
  550TIP3   OH223140   2.078   1.838  11.274 -0.1209 -0.1058  0.2919
  550TIP3    H123141   2.079   1.823  11.368 -0.4213 -2.9194 -0.0577
  550TIP3    H223142   2.014   1.775  11.240  1.1808 -0.3709 -1.9241
  551TIP3   OH223143   3.891   3.471  11.427  0.0725 -0.2606  0.1340
  551TIP3    H123144   3.897   3.388  11.381  0.8527 -0.1154 -0.0394
  551TIP3    H223145   3.980   3.490  11.455  0.1043  1.0142 -0.7158
  552TIP3   OH223146   1.132   5.897  16.405  0.0833 -0.1441 -0.0068
  552TIP3    H123147   1.199   5.935  16.462  1.1512 -1.0092 -0.6552
  552TIP3    H223148   1.056   5.885  16.462  0.7142  0.1719  0.9231
  553TIP3   OH223149   5.276   5.654  16.082 -0.0535  0.1364  0.2775
  553TIP3    H123150   5.304   5.743  16.059  1.0950 -0.3857 -0.4283
  553TIP3    H223151   5.196   5.641  16.032 -0.3505  0.8517  0.5506
  554TIP3   OH223152   1.933   3.768  15.453  0.1526  0.0132  0.2617
  554TIP3    H123153   1.925   3.824  15.531  1.3198  1.7099 -0.7686
  554TIP3    H223154   1.878   3.692  15.473  1.4898 -0.3118  3.3264
  555TIP3   OH223155   5.530   0.807   2.176 -0.2186 -0.6069  0.5871
  555TIP3    H123156   5.550   0.867   2.105  1.4394 -0.7884  0.8498
  555TIP3    H223157   5.481   0.736   2.135 -2.0507  0.7991  0.2423
  556TIP3   OH223158   5.525   1.070  11.775  0.8184 -0.1319  0.3940
  556TIP3    H123159   5.585   1.132  11.816  0.3607 -0.4298  1.5557
  556TIP3    H223160   5.478   1.030  11.848 -0.4350 -0.2788 -0.4636
  557TIP3   OH223161   0.537   0.438   0.544 -0.4750  0.2984 -0.5151
  557TIP3    H123162   0.516   0.532   0.547 -0.2766  0.3151  2.3706
  557TIP3    H223163   0.607   0.432   0.478 -1.0873  2.0105 -1.3992
  558TIP3   OH223164   5.531   6.014   0.777  0.2022 -0.3386  0.7119
  558TIP3    H123165   5.481   6.089   0.807 -0.5149 -0.9777  1.1534
  558TIP3    H223166   5.479   5.938   0.802  0.2314 -0.9591 -0.9676
  559TIP3   OH223167   0.709   5.321   4.789  0.2582 -0.2707  0.1176
  559TIP3    H123168   0.679   5.238   4.824 -1.3949  0.4981  0.6145
  559TIP3    H223169   0.804   5.313   4.786  0.1442 -2.0508  0.4229
  560TIP3   OH223170   0.793   0.908   2.680 -0.3982  0.2442  0.3231
  560TIP3    H123171   0.791   0.990   2.729 -1.0030  0.9962 -0.8974
  560TIP3    H223172   0.752   0.930   2.595 -1.3526 -1.5072  0.2792
  561TIP3   OH223173   5.600   5.151  15.514  0.1990  0.6057  0.2147
  561TIP3    H123174   5.651   5.211  15.568  0.8268  2.2974 -2.0916
  561TIP3    H223175   5.654   5.072  15.509  0.7210  0.8977  1.0106
  562TIP3   OH223176   2.389   5.488  10.784  0.0011  0.0496 -0.2501
  562TIP3    H123177   2.428   5.407  10.751 -0.8077  0.1658 -1.5555
  562TIP3    H223178   2.445   5.513  10.858  0.0467 -1.8850  0.4296
  563TIP3   OH223179   0.825   2.144   5.428 -0.3043 -0.1784 -0.0963
  563TIP3    H123180   0.858   2.086   5.496  0.0011  0.9861  0.7884
  563TIP3    H223181   0.903   2.174   5.381 -0.2248  1.1359  0.8147
  564TIP3   OH223182   6.257   5.400  11.834 -0.4767  0.2320 -0.2884
  564TIP3    H123183   6.172   5.387  11.876 -0.7049  0.2263 -0.7468
  564TIP3    H223184   6.310   5.327  11.866 -1.3182 -1.0515 -1.7037
  565TIP3   OH223185   0.672   6.594  13.800  0.1269 -0.2812  0.8540
  565TIP3    H123186   0.625   6.519  13.839 -1.8081  1.1421  1.4253
  565TIP3    H223187   0.611   6.629  13.736  1.2537  0.4748  0.1802
  566TIP3   OH223188   2.959   6.750  13.886  0.0308 -0.4071  0.3119
  566TIP3    H123189   2.929   6.820  13.829  1.8497 -1.5618 -2.2666
  566TIP3    H223190   3.039   6.785  13.926 -1.1567  0.3425  2.2124
  567TIP3   OH223191   1.133   6.743  13.628 -0.1414 -0.1212  0.2149
  567TIP3    H123192   1.115   6.686  13.703 -0.3932 -0.0390  0.2203
  567TIP3    H223193   1.046   6.772  13.599  0.0175  1.0101  0.8034
  568TIP3   OH223194   1.754   1.470   6.351 -0.0228  0.1354  0.5437
  568TIP3    H123195   1.779   1.562   6.364  1.4732  0.1666 -2.0309
  568TIP3    H223196   1.680   1.473   6.290  2.5228 -0.3658 -2.8201
  569TIP3   OH223197   2.585   5.331   1.689 -0.4353 -0.1712  0.2939
  569TIP3    H123198   2.597   5.423   1.714  1.5015  0.9511 -3.9154
  569TIP3    H223199   2.502   5.329   1.643  0.3299 -0.0687 -1.1422
  570TIP3   OH223200   5.694   5.252  17.107 -0.0563 -0.7011  0.0365
  570TIP3    H123201   5.602   5.236  17.088 -0.3330 -0.7783  1.3631
  570TIP3    H223202   5.714   5.195  17.182  0.6457  0.4644  0.7636
  571TIP3   OH223203   1.616   5.563  10.435  0.1045 -0.2467  0.6376
  571TIP3    H123204   1.669   5.633  10.473 -0.2268  0.3232  0.0746
  571TIP3    H223205   1.649   5.483  10.475  1.2084  0.1222  0.4946
  572TIP3   OH223206   2.741   6.690  13.697  0.2561 -0.0040  0.5856
  572TIP3    H123207   2.818   6.690  13.753 -1.0439  0.0828  2.4320
  572TIP3    H223208   2.770   6.735  13.617  2.7930 -2.1581  0.1644
  573TIP3   OH223209   4.516   6.232   3.785  0.4002  0.3088  0.1828
  573TIP3    H123210   4.597   6.186   3.807  0.5236  0.5551  0.2387
  573TIP3    H223211   4.462   6.165   3.743  0.3094 -0.0625  0.8826
  574TIP3   OH223212   6.366   6.528  14.125  0.6107 -0.2375 -0.1940
  574TIP3    H123213   6.456   6.511  14.155  0.4295  0.0706  0.5281
  574TIP3    H223214   6.365   6.493  14.035  0.6344 -2.9338  0.7453
  575TIP3   OH223215   0.580   6.056   2.786 -0.3010  0.6792 -0.3415
  575TIP3    H123216   0.673   6.039   2.773 -0.1890  1.8267 -1.2591
  575TIP3    H223217   0.544   6.063   2.697 -1.2091  0.5282 -0.0050
  576TIP3   OH223218   0.131   2.576  11.659  0.1167 -0.0937  0.3828
  576TIP3    H123219   0.147   2.531  11.576 -0.2670  1.1396 -0.3835
  576TIP3    H223220   0.218   2.592  11.695  0.2576 -1.4596  0.6874
  577TIP3   OH223221   0.872   5.366  14.035  0.6093  0.1926  0.1512
  577TIP3    H123222   0.829   5.343  14.117 -0.4144 -0.6806 -0.5989
  577TIP3    H223223   0.952   5.412  14.061  0.7147 -0.7899  1.6412
  578TIP3   OH223224   1.517   6.170   1.625  0.1617  0.5209 -0.1293
  578TIP3    H123225   1.588   6.172   1.561  0.2087  0.8178 -0.0662
  578TIP3    H223226   1.505   6.261   1.651 -0.0267  0.4309  0.1000
  579TIP3   OH223227   4.559   3.595  15.676  0.2106 -0.1001 -0.5430
  579TIP3    H123228   4.516   3.528  15.729  0.1785 -1.0504 -1.7129
  579TIP3    H223229   4.618   3.640  15.736  0.7635 -1.6649  0.1321
  580TIP3   OH223230   0.783   5.091   0.224 -0.0022 -0.1520 -0.5939
  580TIP3    H123231   0.832   5.079   0.306  0.3182 -0.7261 -0.8671
  580TIP3    H223232   0.721   5.018   0.223  0.0826 -0.2206 -0.9221
  581TIP3   OH223233   6.679   6.750   2.290 -0.3256  0.1173 -0.0195
  581TIP3    H123234   6.658   6.797   2.371  0.5727  1.4883 -0.5332
  581TIP3    H223235   6.748   6.689   2.314 -2.3128 -1.8802  0.9141
  582TIP3   OH223236   4.449   4.746  16.701 -0.3008  0.6114 -0.1030
  582TIP3    H123237   4.372   4.719  16.752  0.8043 -0.5184  1.0330
  582TIP3    H223238   4.422   4.733  16.610 -1.1703 -0.6765  0.2935
  583TIP3   OH223239   6.458   4.780   3.900  0.5459  0.0496  0.7512
  583TIP3    H123240   6.375   4.813   3.865  1.0372  1.0128  0.4677
  583TIP3    H223241   6.440   4.762   3.992 -0.2373 -0.6690  0.4679
  584TIP3   OH223242   1.685   0.853  13.987  0.3681  0.4730 -0.5804
  584TIP3    H123243   1.698   0.763  13.960  1.6550  0.7892 -1.0944
  584TIP3    H223244   1.769   0.881  14.022 -0.3895  1.0644  0.8601
  585TIP3   OH223245   6.500   6.585   0.631  0.2569 -0.1784  0.2024
  585TIP3    H123246   6.586   6.571   0.672  1.0451  0.8670 -1.0291
  585TIP3    H223247   6.518   6.585   0.537 -0.9805  0.7279 -0.0603
  586TIP3   OH223248   2.712   4.798  14.322 -0.0356  0.4134  0.3439
  586TIP3    H123249   2.715   4.727  14.258  1.7761  0.0357  0.7866
  586TIP3    H223250   2.716   4.754  14.407  2.0771  1.0211  0.6073
  587TIP3   OH223251   1.936   0.666   0.396 -0.2853 -0.7726 -0.2400
  587TIP3    H123252   1.980   0.632   0.319  0.1307  0.7247 -0.6855
  587TIP3    H223253   1.878   0.734   0.363  0.1278  0.1014  0.7977
  588TIP3   OH223254   6.429   0.330   3.544 -0.0265  0.2489 -0.5759
  588TIP3    H123255   6.383   0.413   3.556 -0.1904 -0.0545  1.0437
  588TIP3    H223256   6.360   0.267   3.522 -0.4728 -0.2075  1.8538
  589TIP3   OH223257   2.627   4.989  16.346  0.1477 -0.1322 -0.6857
  589TIP3    H123258   2.664   4.989  16.258 -1.2717  1.6319 -1.3296
  589TIP3    H223259   2.653   5.073  16.383 -0.5688 -0.2076  0.0086
  590TIP3   OH223260   4.234   5.881   1.309 -0.0223 -0.3288 -0.0572
  590TIP3    H123261   4.188   5.961   1.282 -1.1947 -0.9197  0.1305
  590TIP3    H223262   4.196   5.859   1.394  0.8512 -0.6590  0.2521
  591TIP3   OH223263   3.830   0.765  10.648  0.2082 -0.2959  0.3144
  591TIP3    H123264   3.832   0.818  10.568 -0.6473 -0.6906  0.0252
  591TIP3    H223265   3.740   0.733  10.653  0.6242 -1.4220  0.6823
  592TIP3   OH223266   1.251   3.751   1.740 -0.1373 -0.2450  0.4936
  592TIP3    H123267   1.201   3.823   1.778  1.5691  0.4809  1.4850
  592TIP3    H223268   1.334   3.790   1.715  0.6866 -1.7736  0.6942
  593TIP3   OH223269   0.029   5.498   1.819 -0.3560 -0.1088  0.8256
  593TIP3    H123270   0.078   5.574   1.788  0.1208 -1.5091 -2.3041
  593TIP3    H223271  -0.061   5.513   1.790  0.0686 -1.3731 -1.4572
  594TIP3   OH223272   2.472   0.619  11.325  0.4494 -0.0230  0.1415
  594TIP3    H123273   2.534   0.691  11.335 -0.3082  0.7623 -0.5820
  594TIP3    H223274   2.483   0.590  11.235  0.5094 -0.6019  0.3295
  595TIP3   OH223275   4.412   0.123   1.466 -0.4553  0.2306 -0.1009
  595TIP3    H123276   4.495   0.076   1.463 -0.2075  0.4344  2.1515
  595TIP3    H223277   4.361   0.084   1.394  0.8837 -1.2158 -0.3437
  596TIP3   OH223278   1.541   6.333   0.768  0.1585  0.0866 -0.4086
  596TIP3    H123279   1.487   6.312   0.844  0.6759 -2.6057 -0.7023
  596TIP3    H223280   1.487   6.393   0.716 -0.8488  0.7020  1.2685
  597TIP3   OH223281   4.697   5.785   6.321  0.7151  0.1016  0.6734
  597TIP3    H123282   4.690   5.706   6.376  4.2246  0.9677  2.6464
  597TIP3    H223283   4.765   5.763   6.257  0.4587  0.9452  0.1023
  598TIP3   OH223284   5.163   4.702  12.772  0.5413  0.6470 -0.1543
  598TIP3    H123285   5.187   4.720  12.863  0.6462  2.7979 -0.5520
  598TIP3    H223286   5.071   4.729  12.765  0.7713  1.3011 -0.8585
  599TIP3   OH223287   1.492   2.966   5.032 -0.0830 -0.0037  0.2121
  599TIP3    H123288   1.417   3.026   5.038 -0.7614 -0.8440  0.3152
  599TIP3    H223289   1.503   2.950   4.939 -0.9170 -0.9417  0.2544
  600TIP3   OH223290   4.532   2.688   5.424 -0.0251 -0.1606  0.8584
  600TIP3    H123291   4.502   2.716   5.510 -1.5377  1.3634 -0.0920
  600TIP3    H223292   4.557   2.769   5.380  2.8584 -1.0960  0.5576
  601TIP3   OH223293   2.461   3.243  13.172  0.3929  0.1136  0.4098
  601TIP3    H123294   2.493   3.160  13.206 -1.2800 -0.4588  0.6861
  601TIP3    H223295   2.380   3.259  13.220  0.7576  2.0134  0.4837
  602TIP3   OH223296   6.584   5.364  11.224  0.6968  0.3619  0.7812
  602TIP3    H123297   6.651   5.410  11.172 -0.8598  0.4878 -1.2118
  602TIP3    H223298   6.508   5.422  11.222 -0.6887 -1.3898 -0.1648
  603TIP3   OH223299   4.797   6.344   2.410 -0.1212 -0.3634 -0.1413
  603TIP3    H123300   4.862   6.274   2.411 -0.1920 -0.4607 -1.0554
  603TIP3    H223301   4.835   6.410   2.352 -1.1619 -0.7655 -1.3340
  604TIP3   OH223302   5.238   1.939   2.394 -0.8855  0.1396 -0.1030
  604TIP3    H123303   5.150   1.914   2.420 -0.7026 -1.4896 -0.9523
  604TIP3    H223304   5.296   1.889   2.451 -0.4764 -3.4092 -3.2223
  605TIP3   OH223305   1.211   4.246   5.087  0.2835  0.0089 -0.0618
  605TIP3    H123306   1.233   4.165   5.042  0.0041 -0.2756  0.3171
  605TIP3    H223307   1.158   4.220   5.162  0.2175  0.5358  0.0843
  606TIP3   OH223308   0.631   0.796   6.484  0.1051  0.0163  0.5313
  606TIP3    H123309   0.667   0.714   6.518  0.4077  0.6690  1.8560
  606TIP3    H223310   0.707   0.853   6.471 -0.0719  0.0106 -0.6687
  607TIP3   OH223311   1.467   0.015   0.658 -0.2039  0.0764 -0.3490
  607TIP3    H123312   1.483  -0.026   0.743 -2.6540  0.1911  0.2564
  607TIP3    H223313   1.551   0.012   0.613  1.4417  0.9110  2.4348
  608TIP3   OH223314   5.204   0.792  13.824  0.1678  0.6401 -0.0769
  608TIP3    H123315   5.268   0.771  13.893 -0.6060 -1.0227  0.1725
  608TIP3    H223316   5.209   0.718  13.763  0.4050  1.8003 -1.5130
  609TIP3   OH223317   3.034   6.589   3.527  0.0439 -0.0001  0.3053
  609TIP3    H123318   3.002   6.661   3.580 -1.9181 -0.5978 -0.0120
  609TIP3    H223319   3.053   6.628   3.441 -1.8744  0.0094 -0.1444
  610TIP3   OH223320   0.646   0.158   2.819 -0.3908  0.2432  0.2889
  610TIP3    H123321   0.563   0.162   2.771 -1.2265  0.2048  1.6656
  610TIP3    H223322   0.620   0.168   2.911  1.1369  0.1719  0.7458
  611TIP3   OH223323   1.528   2.619  16.976 -0.6826  0.5178  0.3259
  611TIP3    H123324   1.509   2.633  17.069  0.9068  0.4492  0.6956
  611TIP3    H223325   1.479   2.540  16.953  0.3522 -0.5611  1.6283
  612TIP3   OH223326   0.106   0.148   4.479  0.8792  0.0491  0.2283
  612TIP3    H123327   0.026   0.096   4.486  0.6606  0.2150 -0.8343
  612TIP3    H223328   0.155   0.128   4.559  0.5148 -1.2913  0.1394
  613TIP3   OH223329   4.673   2.189   1.787  0.1251 -0.0523 -0.1860
  613TIP3    H123330   4.683   2.095   1.796  1.1488 -0.1991 -2.3614
  613TIP3    H223331   4.582   2.207   1.813 -0.0777 -1.6130  0.2415
  614TIP3   OH223332   0.438   0.485   5.402  0.3435 -0.2467 -0.3402
  614TIP3    H123333   0.349   0.450   5.399  0.5120 -0.8123  0.8009
  614TIP3    H223334   0.430   0.574   5.368 -0.3029 -0.9552 -2.1022
  615TIP3   OH223335   6.520   5.377  12.383  0.1582 -0.2968 -0.0889
  615TIP3    H123336   6.484   5.323  12.453 -1.8951  0.2436 -0.6650
  615TIP3    H223337   6.562   5.450  12.429 -0.6685 -0.2362  0.5954
  616TIP3   OH223338   1.976   4.471  14.622  0.0369 -0.1127 -0.0119
  616TIP3    H123339   1.985   4.524  14.543 -0.4127 -0.7013 -0.4645
  616TIP3    H223340   1.894   4.423  14.610 -0.1528 -0.0435  0.9093
  617TIP3   OH223341   1.534   1.682   5.189 -0.0961  0.9552 -0.1387
  617TIP3    H123342   1.449   1.705   5.226 -0.4856 -1.7620  0.8898
  617TIP3    H223343   1.597   1.736   5.237 -1.1142  1.8854  0.1707
  618TIP3   OH223344   5.763   3.454  14.739  0.4006  0.0292 -0.7717
  618TIP3    H123345   5.857   3.447  14.758 -0.1257 -1.3688  1.7004
  618TIP3    H223346   5.759   3.505  14.658  3.3185 -0.6923 -1.4879
  619TIP3   OH223347   2.402   5.400   1.269 -0.0589 -0.3742  0.2483
  619TIP3    H123348   2.450   5.481   1.252 -0.4013 -0.4774 -1.3344
  619TIP3    H223349   2.355   5.417   1.351  2.6694 -0.3042  1.9199
  620TIP3   OH223350   4.301   6.778  15.890 -0.0501 -0.5664  0.3044
  620TIP3    H123351   4.253   6.748  15.968  0.1384 -1.8182 -0.0415
  620TIP3    H223352   4.348   6.700  15.860  0.6920  0.1670 -0.4730
  621TIP3   OH223353   0.958   2.649   1.520  0.2760 -0.0885 -0.2536
  621TIP3    H123354   0.998   2.715   1.577  1.3476  1.4958 -2.7040
  621TIP3    H223355   1.030   2.593   1.494 -0.3294 -1.2193  0.4029
  622TIP3   OH223356   3.125   5.421   4.448  0.0228 -0.4722 -0.0304
  622TIP3    H123357   3.129   5.333   4.484  1.6285 -0.3203  0.2695
  622TIP3    H223358   3.136   5.410   4.354 -2.1563 -0.7254 -0.3020
  623TIP3   OH223359   2.176   0.340   5.726  0.5382  0.6958  0.5709
  623TIP3    H123360   2.171   0.315   5.634 -4.6164  0.3187  0.6689
  623TIP3    H223361   2.159   0.434   5.726  0.0456  0.6130  1.1302
  624TIP3   OH223362   1.572   2.799  13.010 -0.2004 -0.0345  0.2278
  624TIP3    H123363   1.477   2.803  12.994 -0.2747 -0.5958  0.4903
  624TIP3    H223364   1.584   2.841  13.094 -0.1565  0.4538 -0.0202
  625TIP3   OH223365   1.168   2.506  11.610  0.5530 -0.4128 -0.0481
  625TIP3    H123366   1.225   2.559  11.665 -0.0416  0.8725 -0.6159
  625TIP3    H223367   1.199   2.523  11.521 -0.0012 -0.5900 -0.2772
  626TIP3   OH223368   3.939   0.386   0.865  0.1117 -0.1123  0.0168
  626TIP3    H123369   3.990   0.444   0.921 -0.6183 -1.5467  2.3146
  626TIP3    H223370   3.947   0.300   0.906 -0.7105 -1.1970 -1.9715
  627TIP3   OH223371   1.110   3.704   6.183 -0.4314  0.4256 -0.0960
  627TIP3    H123372   1.104   3.734   6.093  0.4689  2.2058  0.3922
  627TIP3    H223373   1.023   3.667   6.202 -0.3738 -0.7761 -1.9102
  628TIP3   OH223374   5.075   1.058   2.238 -0.1996 -0.5820  0.4060
  628TIP3    H123375   5.056   0.985   2.180 -1.1215 -0.9186  1.1100
  628TIP3    H223376   5.118   1.123   2.182 -0.2742 -1.2510 -0.4452
  629TIP3   OH223377   4.811   4.619  15.630 -0.5582 -0.2199 -1.0002
  629TIP3    H123378   4.813   4.714  15.615  0.9430  0.0870  0.7677
  629TIP3    H223379   4.846   4.582  15.549  0.5427  0.8657 -1.0574
  630TIP3   OH223380   2.909   2.940  15.855 -0.1324  0.0035  0.5290
  630TIP3    H123381   2.847   2.938  15.782  1.8110  0.3454 -1.2187
  630TIP3    H223382   2.977   2.878  15.831  0.1210 -0.5807  2.5413
  631TIP3   OH223383   3.431   6.222  11.017  0.0199  0.3855  0.0862
  631TIP3    H123384   3.473   6.258  10.939  0.7945  0.3782  0.4917
  631TIP3    H223385   3.502   6.209  11.079 -0.4444 -0.5511  0.4454
  632TIP3   OH223386   4.389   0.172   3.110  0.5868  0.3873  0.1544
  632TIP3    H123387   4.459   0.152   3.048 -0.0774  1.8239 -1.1316
  632TIP3    H223388   4.403   0.263   3.135 -0.6647  0.6354  0.0554
  633TIP3   OH223389   4.851   4.962  10.911 -0.4687  0.2207  0.3052
  633TIP3    H123390   4.766   4.976  10.869  0.2315 -0.1820 -1.2923
  633TIP3    H223391   4.903   4.914  10.846  1.4307  1.5945  0.7338
  634TIP3   OH223392   6.111   3.765   1.594  0.9460 -0.2406  0.1375
  634TIP3    H123393   6.143   3.805   1.513 -0.3404 -0.1094 -0.3332
  634TIP3    H223394   6.086   3.840   1.649  0.0145 -0.3428 -0.1234
  635TIP3   OH223395   1.287   1.204  15.490 -0.1210  0.9747 -0.0964
  635TIP3    H123396   1.362   1.187  15.547 -0.7336  2.9454  1.4233
  635TIP3    H223397   1.302   1.292  15.456 -0.3211  0.2575 -2.1900
  636TIP3   OH223398   3.939   5.017  11.047 -0.4202  0.3100  0.2394
  636TIP3    H123399   3.933   4.994  10.954 -0.7831 -0.4169  0.4333
  636TIP3    H223400   3.966   5.109  11.048  1.5745 -0.2221 -0.5862
  637TIP3   OH223401   3.219   4.004  15.552  0.0535  0.1233  0.0022
  637TIP3    H123402   3.231   4.002  15.647 -1.5191 -1.3729  0.2166
  637TIP3    H223403   3.146   4.064  15.539 -1.4676 -1.6578  0.0128
  638TIP3   OH223404   0.341   0.184  17.041  0.2298 -0.0622 -0.2021
  638TIP3    H123405   0.267   0.219  17.090 -0.4254 -1.9586  0.2360
  638TIP3    H223406   0.408   0.164  17.107  0.4739  0.0437 -0.4111
  639TIP3   OH223407   0.442   2.562  13.790  0.0901 -0.2049  0.0145
  639TIP3    H123408   0.405   2.474  13.798 -0.6433 -0.2489 -2.8251
  639TIP3    H223409   0.533   2.547  13.764  0.4561 -0.0827  1.1615
  640TIP3   OH223410   3.243   1.731  13.868 -0.4679 -0.1077  0.4160
  640TIP3    H123411   3.265   1.664  13.932  2.4395  0.6275  0.3587
  640TIP3    H223412   3.275   1.695  13.785  3.7587  2.2098  0.7573
  641TIP3   OH223413   1.341   2.184  16.112 -0.8835  0.1849  0.1077
  641TIP3    H123414   1.269   2.183  16.050 -0.7527  3.0989 -0.2114
  641TIP3    H223415   1.419   2.164  16.060 -1.0653  0.3157 -0.2122
  642TIP3   OH223416   1.720   2.987   4.526 -1.4706  0.0406 -0.2751
  642TIP3    H123417   1.731   2.951   4.438  1.4853 -0.7419  0.2852
  642TIP3    H223418   1.792   3.050   4.536 -1.3104 -0.3751  1.7606
  643TIP3   OH223419   5.531   3.761  11.236  0.1836 -0.1372  0.2431
  643TIP3    H123420   5.460   3.826  11.238  0.4488  0.2580 -1.3456
  643TIP3    H223421   5.486   3.678  11.221  0.0250  0.1260 -0.8805
  644TIP3   OH223422   4.726   4.964  11.679 -0.2664 -0.4682 -0.0542
  644TIP3    H123423   4.660   4.948  11.611 -0.5561  0.2194  0.0667
  644TIP3    H223424   4.703   5.048  11.717  3.0289  1.9816 -2.8490
  645TIP3   OH223425   3.042   0.717  15.389 -0.2498 -0.2945  0.3497
  645TIP3    H123426   3.036   0.691  15.297 -0.7314 -0.2222  0.3565
  645TIP3    H223427   3.121   0.674  15.421 -0.9249 -1.6140  0.3098
  646TIP3   OH223428   0.187   0.507  16.585  0.2987  0.0341  0.3132
  646TIP3    H123429   0.212   0.426  16.629 -1.5421 -1.1064 -0.6612
  646TIP3    H223430   0.249   0.515  16.512 -0.1514 -1.0659 -0.2079
  647TIP3   OH223431   2.003   4.465  16.735 -0.8783  0.0014  0.3807
  647TIP3    H123432   1.994   4.424  16.649 -2.1404 -1.2445  1.0747
  647TIP3    H223433   2.096   4.456  16.755  0.0262  2.6978 -1.9366
  648TIP3   OH223434   5.402   4.024  14.124  0.0910  0.8354 -0.7267
  648TIP3    H123435   5.430   3.990  14.208  0.9128  1.2311 -0.8245
  648TIP3    H223436   5.322   3.976  14.103 -0.0671  0.6740  0.2303
  649TIP3   OH223437   6.100   5.618   5.039  0.4715  0.5390 -0.3863
  649TIP3    H123438   6.172   5.582   5.091  1.1687  0.7090 -1.2090
  649TIP3    H223439   6.066   5.543   4.990 -0.3699  0.3192  0.4803
  650TIP3   OH223440   3.511   2.081  13.074  0.5311  0.2216 -0.3389
  650TIP3    H123441   3.533   2.085  12.981 -0.4073 -0.3088 -0.6029
  650TIP3    H223442   3.554   2.001  13.105  0.8071  0.3740 -0.3352
  651TIP3   OH223443   1.277   1.779  14.728  0.0342  0.0689 -0.2039
  651TIP3    H123444   1.242   1.737  14.806 -0.6138 -1.1487 -1.1041
  651TIP3    H223445   1.202   1.826  14.690  0.2720  0.4235 -0.2432
  652TIP3   OH223446   1.791   3.518  15.539 -0.3027 -0.4666  0.4598
  652TIP3    H123447   1.717   3.493  15.594 -1.8586 -0.2771 -1.4267
  652TIP3    H223448   1.774   3.476  15.455  1.0936  0.5899 -0.4116
  653TIP3   OH223449   4.735   2.444  14.125  0.2861  0.3132 -0.1447
  653TIP3    H123450   4.734   2.418  14.217 -0.9819 -0.9274 -0.4830
  653TIP3    H223451   4.652   2.488  14.111  1.1350  1.9457 -0.3437
  654TIP3   OH223452   3.728   6.351   3.221 -0.0504 -0.1651 -0.5445
  654TIP3    H123453   3.698   6.285   3.283  2.1097 -0.0975  0.6545
  654TIP3    H223454   3.648   6.379   3.176 -1.3387 -1.9256  0.5087
  655TIP3   OH223455   3.567   5.703   2.278  0.1680  0.1711  0.0242
  655TIP3    H123456   3.566   5.705   2.182 -0.8471  2.3484  0.0093
  655TIP3    H223457   3.625   5.775   2.302  0.6415 -0.5394  1.0779
  656TIP3   OH223458   6.277   1.018  14.782  0.0593  0.1860 -0.6368
  656TIP3    H123459   6.288   0.927  14.810 -0.6106 -0.0030 -0.9739
  656TIP3    H223460   6.193   1.045  14.819 -1.3802 -0.4028 -3.2773
  657TIP3   OH223461   3.039   0.477  14.454  0.0199 -0.4217 -0.0844
  657TIP3    H123462   3.082   0.427  14.384 -0.1120 -1.3867  0.4962
  657TIP3    H223463   3.020   0.411  14.521 -1.6976  0.1007 -0.0093
  658TIP3   OH223464   5.171   2.624  13.820 -0.6351 -0.0062 -0.2062
  658TIP3    H123465   5.206   2.599  13.734 -0.0407 -0.4514  0.1570
  658TIP3    H223466   5.235   2.686  13.855 -0.1431 -0.9037  0.5058
  659TIP3   OH223467   5.565   0.312  13.313 -0.2328 -0.3721  0.2861
  659TIP3    H123468   5.472   0.291  13.326 -0.1781 -0.4602  0.5549
  659TIP3    H223469   5.581   0.292  13.221 -0.0846 -1.9728  0.6236
  660TIP3   OH223470   5.572   3.690   1.024 -0.0087 -0.9961 -0.6816
  660TIP3    H123471   5.633   3.721   0.958 -0.1659 -0.5954 -0.6402
  660TIP3    H223472   5.563   3.596   1.007  2.1127 -1.4825  0.4958
  661TIP3   OH223473   5.721   1.931   2.149  0.0181  0.1737 -0.1007
  661TIP3    H123474   5.629   1.908   2.132 -0.3013  1.2845  0.0378
  661TIP3    H223475   5.716   2.010   2.202  1.0654 -0.0048  0.2762
  662TIP3   OH223476   6.557   0.044  13.214 -0.3180  0.0327  0.4507
  662TIP3    H123477   6.623  -0.025  13.224 -0.5606 -0.5869 -1.6720
  662TIP3    H223478   6.530   0.065  13.303  0.8664 -1.5397  1.2255
  663TIP3   OH223479   5.398   4.434   1.659 -0.7021  0.1198 -0.4974
  663TIP3    H123480   5.308   4.411   1.640 -1.6885  1.7310  1.7393
  663TIP3    H223481   5.446   4.351   1.655 -2.3483 -0.8305 -1.2604
  664TIP3   OH223482   3.160   4.881   0.491 -0.2871 -0.2067  0.6813
  664TIP3    H123483   3.245   4.878   0.448 -0.6506 -0.1639 -0.0541
  664TIP3    H223484   3.121   4.795   0.474 -1.0816  0.3421 -0.4600
  665TIP3   OH223485   2.676   3.268  14.002  0.6285  0.3817  0.2611
  665TIP3    H123486   2.736   3.305  13.938 -2.0946  1.4734 -1.8390
  665TIP3    H223487   2.639   3.191  13.959  0.4932 -0.2866  1.5093
  666TIP3   OH223488   1.761   2.333  11.646  0.2832  0.2922  0.4522
  666TIP3    H123489   1.744   2.259  11.703  0.2209  0.4304  0.6138
  666TIP3    H223490   1.854   2.351  11.656  1.2174 -2.1231 -2.4003
  667TIP3   OH223491   5.827   5.826   4.811 -0.1356 -0.4551 -0.2339
  667TIP3    H123492   5.844   5.762   4.879  0.0005 -0.7359 -0.5314
  667TIP3    H223493   5.823   5.910   4.857 -1.9563 -0.8366  0.4099
  668TIP3   OH223494   4.054   4.243   1.789  0.2450  0.1626 -0.0671
  668TIP3    H123495   4.125   4.295   1.827 -1.9475  2.1036  1.7307
  668TIP3    H223496   4.023   4.189   1.861  0.0228 -0.8678 -0.9072
  669TIP3   OH223497   4.188   3.359  16.353 -0.3523  0.2602 -0.0781
  669TIP3    H123498   4.259   3.390  16.297 -0.5000 -1.2246 -1.1317
  669TIP3    H223499   4.233   3.318  16.427  0.0713 -2.9736 -1.9557
  670TIP3   OH223500   0.066   2.136  15.642 -0.1480  0.5031  0.5222
  670TIP3    H123501   0.160   2.131  15.625 -0.4842 -0.3127 -1.3719
  670TIP3    H223502   0.044   2.228  15.628  0.3680  0.7209  1.0872
  671TIP3   OH223503   6.041   5.701   0.190  0.2927 -0.2119  0.3391
  671TIP3    H123504   6.018   5.752   0.268  1.3669 -1.1138  1.2968
  671TIP3    H223505   6.044   5.611   0.221  2.4349 -0.4154 -0.3109
  672TIP3   OH223506   5.363   3.199  11.781  0.1059  0.1382  0.4185
  672TIP3    H123507   5.358   3.143  11.859 -2.0311  3.1195  2.6380
  672TIP3    H223508   5.453   3.230  11.779  0.7471 -1.6007  0.3787
  673TIP3   OH223509   5.308   6.566   0.162 -0.3474  0.0027  0.4026
  673TIP3    H123510   5.360   6.492   0.130  0.9437  0.5185  1.2172
  673TIP3    H223511   5.268   6.603   0.083  1.5205  0.3073 -0.4570
  674TIP3   OH223512   2.239   0.969   5.049  0.2724 -0.3291  0.4282
  674TIP3    H123513   2.244   0.874   5.055  0.6788 -0.3950 -0.6651
  674TIP3    H223514   2.235   0.987   4.955  0.2365  0.7336  0.6185
  675TIP3   OH223515   2.188   4.429   3.701  0.0563 -0.1450  0.4768
  675TIP3    H123516   2.282   4.420   3.685  0.5593  1.2743  2.3237
  675TIP3    H223517   2.150   4.347   3.668  1.8534 -0.5070 -0.8063
  676TIP3   OH223518   3.409   6.492  12.732  0.3383 -0.1483 -0.6876
  676TIP3    H123519   3.338   6.476  12.794 -1.0715  0.9616 -1.9432
  676TIP3    H223520   3.456   6.409  12.727 -1.6267 -1.2892 -0.7642
  677TIP3   OH223521   4.512   1.516  15.440  0.4551  0.9241  0.3555
  677TIP3    H123522   4.421   1.545  15.441  0.0362 -0.3231  0.4589
  677TIP3    H223523   4.559   1.580  15.493 -0.7115  0.4872  1.9702
  678TIP3   OH223524   0.820   0.146   5.918  0.2942  0.1464  0.5033
  678TIP3    H123525   0.770   0.099   5.985  2.3432 -2.9699  0.0625
  678TIP3    H223526   0.904   0.166   5.959  1.3314 -1.2132 -0.8469
  679TIP3   OH223527   2.820   4.419   5.274 -0.7740 -0.2183  0.6439
  679TIP3    H123528   2.731   4.451   5.293 -1.2612 -1.6933  0.9169
  679TIP3    H223529   2.818   4.397   5.181 -0.3037  0.8979  0.3482
  680TIP3   OH223530   3.017   0.675  15.133 -0.1798  0.0083  0.1316
  680TIP3    H123531   3.078   0.626  15.077 -1.5630 -2.6235  0.7724
  680TIP3    H223532   2.976   0.738  15.074 -1.1974 -2.2987 -1.7931
  681TIP3   OH223533   1.559   0.656  10.895  0.1044 -0.3064  0.0714
  681TIP3    H123534   1.484   0.693  10.848 -0.7321  0.7751  2.1675
  681TIP3    H223535   1.635   0.696  10.853 -0.6260  0.9449 -0.1144
  682TIP3   OH223536   3.706   4.243   3.907  0.2700  0.4564  0.1868
  682TIP3    H123537   3.645   4.176   3.939 -0.2019  1.5191  1.6263
  682TIP3    H223538   3.781   4.236   3.966 -0.3347  2.0262  1.1853
  683TIP3   OH223539   1.644   6.534  16.042  0.1370 -0.3985  0.0537
  683TIP3    H123540   1.739   6.532  16.044  0.2309  2.0966  1.1714
  683TIP3    H223541   1.618   6.442  16.047  2.4665 -1.1250 -0.2522
  684TIP3   OH223542   4.584   5.833   3.760 -0.2679  1.0275  0.3170
  684TIP3    H123543   4.579   5.840   3.665 -0.9464 -0.4991  0.2201
  684TIP3    H223544   4.501   5.868   3.792 -1.8091 -2.0766  0.0688
  685TIP3   OH223545   1.540   4.068   5.169  0.1572 -0.5328 -0.2850
  685TIP3    H123546   1.523   4.022   5.087  0.8567 -0.1947 -0.6275
  685TIP3    H223547   1.504   4.010   5.237 -1.3500 -0.3340 -0.8826
  686TIP3   OH223548   4.003   6.147   2.889 -0.3544  0.5368  0.1174
  686TIP3    H123549   3.936   6.212   2.912 -0.6523 -0.4041  2.1547
  686TIP3    H223550   4.077   6.199   2.857 -1.6117  1.6640 -1.1246
  687TIP3   OH223551   2.311   2.690  15.192  0.4775  0.3543 -0.1960
  687TIP3    H123552   2.309   2.686  15.287 -0.9769 -0.3926 -0.2237
  687TIP3    H223553   2.359   2.771  15.172  1.2430  0.2539  1.1425
  688TIP3   OH223554   2.924   3.423  11.149  0.0317  0.1080  0.2157
  688TIP3    H123555   2.892   3.447  11.236 -0.3718  1.5220 -0.3008
  688TIP3    H223556   2.853   3.370  11.112 -0.4495  0.7579  0.1908
  689TIP3   OH223557   2.547   1.144   2.752 -0.2841 -0.1533 -0.0824
  689TIP3    H123558   2.495   1.081   2.802  3.1189 -2.6366  0.7188
  689TIP3    H223559   2.542   1.113   2.662 -0.0236 -0.5233  0.0287
  690TIP3   OH223560   1.448   3.522   6.440  0.3749 -0.2102 -0.2857
  690TIP3    H123561   1.385   3.462   6.482 -1.9921  0.8139 -2.1353
  690TIP3    H223562   1.422   3.609   6.471  1.1927  0.2033 -0.7413
  691TIP3   OH223563   2.817   1.600  11.639 -0.0792  0.2438  0.1878
  691TIP3    H123564   2.878   1.526  11.632 -0.0962  0.1893  0.5864
  691TIP3    H223565   2.803   1.610  11.733 -0.3171  0.5601  0.1182
  692TIP3   OH223566   4.136   0.281  13.881  0.4928 -0.2181 -0.7924
  692TIP3    H123567   4.060   0.339  13.885  0.6736 -0.0386  0.2864
  692TIP3    H223568   4.210   0.340  13.865  0.5068 -0.3111 -1.0818
  693TIP3   OH223569   2.441   1.593   2.232  0.6599  0.6251 -0.2013
  693TIP3    H123570   2.414   1.662   2.293  1.3867  1.0427 -0.3511
  693TIP3    H223571   2.388   1.608   2.154  0.1846  0.4758  0.0894
  694TIP3   OH223572   3.073   4.145   4.975 -0.1695 -0.0749 -0.5482
  694TIP3    H123573   3.001   4.146   4.912  0.0078 -1.4673 -0.8214
  694TIP3    H223574   3.036   4.102   5.052 -0.7924  2.8075  0.8931
  695TIP3   OH223575   6.533   3.273   5.057 -0.1245  0.0141 -0.6468
  695TIP3    H123576   6.570   3.260   4.970 -0.8432 -0.9152 -0.8388
  695TIP3    H223577   6.440   3.251   5.046 -0.6043  1.6347 -0.0477
  696TIP3   OH223578   1.601   5.072  13.411 -0.1809 -0.4458  0.4053
  696TIP3    H123579   1.607   5.044  13.320  0.3992  2.2683 -0.4982
  696TIP3    H223580   1.682   5.041  13.452  1.2688  1.3246 -0.9955
  697TIP3   OH223581   0.032   4.312   2.901 -0.0396  0.2477 -0.1665
  697TIP3    H123582  -0.053   4.286   2.938  1.0581 -1.1374  1.4994
  697TIP3    H223583   0.043   4.403   2.927 -0.9339  0.4112 -0.2994
  698TIP3   OH223584   1.945   2.765  13.380 -0.0826  0.5517  0.0489
  698TIP3    H123585   1.983   2.684  13.416 -1.0832  0.9406  2.1600
  698TIP3    H223586   2.016   2.829  13.384  0.4113  0.0629 -0.6462
  699TIP3   OH223587   2.692   0.351   4.167 -0.0013  0.0782 -0.4232
  699TIP3    H123588   2.767   0.305   4.206  0.3766  2.1672  1.5386
  699TIP3    H223589   2.616   0.307   4.205  0.2975 -0.0930 -0.0091
  700TIP3   OH223590   4.955   4.741  16.948  0.1057  0.0973  0.2705
  700TIP3    H123591   5.035   4.773  16.906  1.3709 -0.4176  2.1556
  700TIP3    H223592   4.906   4.821  16.969 -0.1365  0.3980 -1.3095
  701TIP3   OH223593   1.221   4.901   1.267  0.0853 -0.0886 -0.0352
  701TIP3    H123594   1.259   4.821   1.302  0.2712  0.2081  0.4514
  701TIP3    H223595   1.151   4.924   1.330  0.6115  0.6073  0.3161
  702TIP3   OH223596   1.453   6.384   1.241 -0.2148 -0.5031  0.2014
  702TIP3    H123597   1.521   6.344   1.186 -1.4284 -0.2429 -1.5693
  702TIP3    H223598   1.450   6.475   1.212 -1.2217 -0.4870  0.3318
  703TIP3   OH223599   0.018   3.399   5.768  0.2467 -0.0292  0.1840
  703TIP3    H123600   0.019   3.308   5.798  1.4837 -1.0082 -2.5021
  703TIP3    H223601  -0.066   3.409   5.723  0.2980  0.0160  0.0981
  704TIP3   OH223602   4.134   3.316   5.341  0.2908  0.1754 -0.2123
  704TIP3    H123603   4.214   3.273   5.371  0.0805 -0.6196 -0.7392
  704TIP3    H223604   4.066   3.249   5.351 -0.4316  1.0372  0.8065
  705TIP3   OH223605   3.086   1.388  15.960  0.3139  0.1083 -0.5868
  705TIP3    H123606   3.150   1.319  15.942  0.0119  0.1278 -1.8416
  705TIP3    H223607   3.124   1.438  16.032  0.2712 -1.6779  0.7339
  706TIP3   OH223608   2.587   3.893  12.278 -0.0432 -0.2661  0.0214
  706TIP3    H123609   2.565   3.975  12.234 -2.2565 -1.6502 -1.6540
  706TIP3    H223610   2.623   3.837  12.209  0.1639 -1.1764  0.8421
  707TIP3   OH223611   2.478   1.247   0.559 -0.0385  0.6036  0.1321
  707TIP3    H123612   2.500   1.266   0.467  0.0971  0.7136  0.1874
  707TIP3    H223613   2.560   1.260   0.606 -0.1949  0.9061  0.3230
  708TIP3   OH223614   3.792   3.946   0.244  0.4387  0.1371 -0.1100
  708TIP3    H123615   3.850   3.902   0.306  0.7266  0.9539  0.2128
  708TIP3    H223616   3.742   3.875   0.204  0.0235 -0.3830  1.2746
  709TIP3   OH223617   6.593   2.045  11.752 -0.0152 -0.2680 -0.2819
  709TIP3    H123618   6.518   2.095  11.784  1.1520  1.3104  0.1069
  709TIP3    H223619   6.600   1.971  11.813 -1.4164 -0.6347 -0.5198
  710TIP3   OH223620   0.922   0.037  12.340 -0.2746  0.3280  0.0789
  710TIP3    H123621   0.975   0.003  12.267 -0.0440 -0.3864  0.5765
  710TIP3    H223622   0.901   0.127  12.314  0.7648  0.4564 -0.3593
  711TIP3   OH223623   5.654   6.098  16.538 -0.1352  0.6570  0.0315
  711TIP3    H123624   5.673   6.151  16.461  1.7873  0.0297  0.0220
  711TIP3    H223625   5.730   6.041  16.548 -0.8178 -0.0396  1.7705
  712TIP3   OH223626   5.774   0.920   2.266 -0.0528  0.1961 -0.6112
  712TIP3    H123627   5.808   0.997   2.220  2.8085 -1.8635 -2.2849
  712TIP3    H223628   5.686   0.908   2.230 -0.4075  2.3792 -0.6154
  713TIP3   OH223629   0.055   1.835  11.643  0.4436  0.0634  0.0810
  713TIP3    H123630   0.149   1.832  11.626  0.5112 -0.3383  0.4978
  713TIP3    H223631   0.045   1.799  11.731 -0.0763  0.3460  0.1442
  714TIP3   OH223632   6.061   5.319   3.367  0.0255  1.1741 -0.5274
  714TIP3    H123633   6.146   5.274   3.369  0.7456  2.3753  2.4909
  714TIP3    H223634   6.002   5.258   3.323  1.8597 -0.8844 -0.3032
  715TIP3   OH223635   2.966   4.314  13.760 -0.0306  0.0616 -0.2414
  715TIP3    H123636   2.890   4.356  13.801  1.1611  1.2566  0.8383
  715TIP3    H223637   2.951   4.220  13.771  0.0249  0.3047  2.6374
  716TIP3   OH223638   6.290   5.460   1.547  0.3426  0.5156  0.0729
  716TIP3    H123639   6.204   5.420   1.535 -0.0308  0.2995  2.9576
  716TIP3    H223640   6.352   5.397   1.510 -0.6403  0.2008 -1.0719
  717TIP3   OH223641   6.794   0.483  14.251 -0.1178  0.0635  0.0515
  717TIP3    H123642   6.788   0.501  14.345  2.3026  0.9004  0.1171
  717TIP3    H223643   6.741   0.550  14.209 -1.1179 -0.2460  0.7979
  718TIP3   OH223644   5.251   2.046  10.612 -0.3898 -0.3057 -0.4123
  718TIP3    H123645   5.176   2.060  10.554 -1.5790 -2.2786  0.5491
  718TIP3    H223646   5.327   2.058  10.556 -1.4537  0.0369 -1.8404
  719TIP3   OH223647   5.149   3.616  15.133 -0.4019  0.3067  0.5426
  719TIP3    H123648   5.085   3.556  15.094 -0.4053 -0.4071  1.6146
  719TIP3    H223649   5.171   3.577  15.218  0.5873  1.1479  0.6975
  720TIP3   OH223650   3.338   2.633  14.880 -0.1187  0.0720  0.8870
  720TIP3    H123651   3.285   2.703  14.842  1.0032  0.4160 -0.1020
  720TIP3    H223652   3.427   2.666  14.876  0.3995 -1.3112  0.6762
  721TIP3   OH223653   3.387   4.451   3.253  0.8204  0.3566 -0.3781
  721TIP3    H123654   3.472   4.407   3.242  0.7346 -0.0883  0.5688
  721TIP3    H223655   3.334   4.387   3.301  0.4803  1.2387  0.4579
  722TIP3   OH223656   3.117   6.515   4.154  0.1709  0.0142  0.2222
  722TIP3    H123657   3.095   6.555   4.069 -1.0699 -0.0870  0.4777
  722TIP3    H223658   3.174   6.579   4.196 -1.0029  1.0954  0.2218
  723TIP3   OH223659   6.043   3.542  17.019 -0.0011 -0.3836  0.3292
  723TIP3    H123660   6.003   3.459  16.993  1.1679 -0.6401 -0.6838
  723TIP3    H223661   5.981   3.578  17.083 -1.2050 -1.3797 -0.2224
  724TIP3   OH223662   2.139   4.002  12.309 -0.1734 -0.3669 -0.0782
  724TIP3    H123663   2.208   3.950  12.349  0.1562 -0.1286 -0.3361
  724TIP3    H223664   2.161   4.005  12.216  0.1880  0.8091  0.0369
  725TIP3   OH223665   4.196   5.762   0.072 -0.0683  0.1834 -0.8946
  725TIP3    H123666   4.264   5.764   0.139 -0.4472  0.2393 -0.5125
  725TIP3    H223667   4.118   5.796   0.115 -0.0041  1.4673 -1.7152
  726TIP3   OH223668   6.493   1.657  16.034  0.0563 -0.1463  0.5892
  726TIP3    H123669   6.578   1.614  16.044  0.4128  0.2796 -0.4974
  726TIP3    H223670   6.498   1.702  15.950 -1.3849 -0.4298  0.3172
  727TIP3   OH223671   3.934   4.584  17.020 -0.4745  0.1261 -0.0573
  727TIP3    H123672   3.952   4.510  16.962  0.2565  1.2997 -1.3960
  727TIP3    H223673   3.914   4.657  16.960 -1.6436  0.9045  1.2303
  728TIP3   OH223674   0.414   2.325   3.339  0.1187 -0.1840  0.1345
  728TIP3    H123675   0.394   2.363   3.424 -1.0378  1.0464 -0.6536
  728TIP3    H223676   0.464   2.246   3.359  0.1623  0.2648  1.9265
  729TIP3   OH223677   0.403   6.773  12.248 -0.5178 -0.2377 -0.3861
  729TIP3    H123678   0.336   6.841  12.244  0.4240  0.6673 -1.6097
  729TIP3    H223679   0.437   6.768  12.159  1.1250 -0.5703  0.2258
  730TIP3   OH223680   0.678   3.285  13.169 -0.0545  0.0796 -0.3812
  730TIP3    H123681   0.602   3.244  13.211 -0.5294  1.6985  0.4241
  730TIP3    H223682   0.683   3.373  13.208  0.3219  1.1834 -2.7427
  731TIP3   OH223683   3.071   4.536   1.315 -0.5479 -0.1978 -0.2137
  731TIP3    H123684   3.026   4.613   1.348 -0.3444  0.0019 -0.3993
  731TIP3    H223685   3.162   4.548   1.341 -0.6573 -0.7587  0.4472
  732TIP3   OH223686   2.149   5.119  13.760 -0.0197 -0.3873  0.8672
  732TIP3    H123687   2.092   5.067  13.817  0.1833 -0.9224  0.5969
  732TIP3    H223688   2.237   5.082  13.775 -0.2064 -1.8048 -1.1528
  733TIP3   OH223689   6.667   5.474   4.330 -0.3571  0.6662 -0.1848
  733TIP3    H123690   6.643   5.401   4.273  1.2334 -0.0724  0.0318
  733TIP3    H223691   6.612   5.463   4.407  1.3618 -1.6673  0.8136
  734TIP3   OH223692   5.507   6.648  13.470 -0.4107  0.0680  0.4579
  734TIP3    H123693   5.536   6.688  13.388 -1.5074  0.0872  0.0611
  734TIP3    H223694   5.521   6.555  13.458  0.2144  0.1385  0.5856
  735TIP3   OH223695   5.781   0.794  16.093 -0.0316 -0.1240  0.3995
  735TIP3    H123696   5.749   0.829  16.176 -0.5195  0.7331 -0.1304
  735TIP3    H223697   5.703   0.788  16.038  0.7229  2.7591 -1.1928
  736TIP3   OH223698   3.773   5.858  15.264  0.0492 -0.2507 -0.2721
  736TIP3    H123699   3.861   5.889  15.244 -0.0501  1.0244  1.0752
  736TIP3    H223700   3.715   5.928  15.232 -0.3634 -0.3121  0.3285
  737TIP3   OH223701   5.233   6.585  15.545 -0.5578  0.3108 -0.4291
  737TIP3    H123702   5.246   6.493  15.568 -1.5041  0.2506 -0.1039
  737TIP3    H223703   5.313   6.629  15.575 -1.0342 -0.0442  1.4586
  738TIP3   OH223704   5.805   6.626   1.737 -0.5655  0.4982 -0.2914
  738TIP3    H123705   5.734   6.663   1.685  0.0203  0.5921 -1.0326
  738TIP3    H223706   5.884   6.641   1.685 -0.0603 -0.0293  0.3038
  739TIP3   OH223707   5.605   5.060   3.825  0.4551  0.1012  0.6633
  739TIP3    H123708   5.543   5.127   3.854 -1.1185 -1.4944  1.1539
  739TIP3    H223709   5.669   5.054   3.896 -0.3573 -0.0840  1.3880
  740TIP3   OH223710   2.588   4.094   4.581 -0.5362 -0.4925 -0.8369
  740TIP3    H123711   2.579   4.074   4.488 -0.8533 -0.6353 -0.7794
  740TIP3    H223712   2.643   4.172   4.584 -2.3926  0.9227 -1.2924
  741TIP3   OH223713   6.647   1.512  13.992 -0.0841  0.1966  0.3217
  741TIP3    H123714   6.595   1.469  14.060 -1.8843  1.2119 -0.3459
  741TIP3    H223715   6.709   1.445  13.963 -1.0302 -1.0692  1.1416
  742TIP3   OH223716   5.936   1.963  14.040  0.5230 -0.3140  0.1757
  742TIP3    H123717   5.982   1.989  14.120 -1.1456 -0.7303  1.3209
  742TIP3    H223718   5.955   2.034  13.978  1.0188  0.5421  1.2656
  743TIP3   OH223719   0.506   5.172  15.795 -0.2280  0.1833  0.1313
  743TIP3    H123720   0.553   5.152  15.876  1.3355 -0.8598 -0.9633
  743TIP3    H223721   0.571   5.215  15.740 -0.9275 -0.1542 -0.9852
  744TIP3   OH223722   2.493   0.235   1.335 -0.5473 -0.2893 -0.1894
  744TIP3    H123723   2.498   0.148   1.297 -2.0837 -0.5307  0.0866
  744TIP3    H223724   2.582   0.269   1.330 -0.1835 -1.3650 -1.4877
  745TIP3   OH223725   3.477   3.968  15.471  0.3390  0.0047 -0.3587
  745TIP3    H123726   3.384   3.987  15.471  0.4423  0.5340 -0.5044
  745TIP3    H223727   3.513   4.025  15.403  1.2783  2.4711  2.0166
  746TIP3   OH223728   4.776   6.276  11.522  0.2384  0.1865 -0.5406
  746TIP3    H123729   4.829   6.351  11.548  1.1880 -0.3480 -0.8785
  746TIP3    H223730   4.702   6.277  11.583  0.9722  0.5849  0.3677
  747TIP3   OH223731   4.053   4.175  14.752  0.9279 -0.4957  0.2942
  747TIP3    H123732   4.013   4.187  14.839  0.5527 -0.7358  0.1545
  747TIP3    H223733   3.983   4.195  14.690  1.4971  0.7846  0.0292
  748TIP3   OH223734   3.149   4.969  16.969 -0.1795  0.5526 -0.4110
  748TIP3    H123735   3.132   4.899  16.906  2.8801  0.4337 -1.2243
  748TIP3    H223736   3.187   5.040  16.917 -0.3745  1.6526  0.8829
  749TIP3   OH223737   4.077   4.102   0.899 -0.3830 -0.2036 -0.2167
  749TIP3    H123738   4.160   4.132   0.934 -0.7263  0.1684  0.2973
  749TIP3    H223739   4.016   4.174   0.916 -0.7788 -0.4078 -0.7160
  750TIP3   OH223740   5.670   0.615   0.763 -0.3400  0.0639  0.0190
  750TIP3    H123741   5.628   0.611   0.677 -0.6250  0.0623  0.1578
  750TIP3    H223742   5.638   0.696   0.802 -0.6600 -0.2197  0.3535
  751TIP3   OH223743   5.528   2.070  13.905 -0.3141  0.0425 -0.0367
  751TIP3    H123744   5.604   2.129  13.903  0.1621 -0.5734 -0.5523
  751TIP3    H223745   5.566   1.983  13.918 -0.7935 -0.4624 -1.7559
  752TIP3   OH223746   5.603   2.806  12.056 -0.2991 -0.2569  0.1503
  752TIP3    H123747   5.519   2.802  12.012  0.7828  1.8079 -2.3646
  752TIP3    H223748   5.598   2.739  12.124 -3.3652 -1.2447 -0.8993
  753TIP3   OH223749   1.156   2.348   5.578 -0.4182  0.0739 -0.2284
  753TIP3    H123750   1.101   2.299   5.638 -0.6553  0.5182 -0.0784
  753TIP3    H223751   1.146   2.439   5.604 -0.0428  0.2146 -0.5503
  754TIP3   OH223752   2.161   1.954  16.986  0.1327  0.1618 -0.0794
  754TIP3    H123753   2.076   1.969  16.945  0.2757  0.3569 -0.3056
  754TIP3    H223754   2.142   1.894  17.059 -0.0421 -0.6168 -0.7453
  755TIP3   OH223755   5.023   5.806   1.212  0.3106  0.2546 -0.1486
  755TIP3    H123756   5.012   5.761   1.296 -0.2739  1.0748  0.2264
  755TIP3    H223757   5.041   5.736   1.150  2.1654 -0.2754  0.8800
  756TIP3   OH223758   2.142   3.449  14.975  0.1895 -0.1787 -0.3069
  756TIP3    H123759   2.213   3.472  14.916  1.8093 -1.2382  1.1188
  756TIP3    H223760   2.137   3.353  14.970 -1.4476 -0.0942 -0.6953
  757TIP3   OH223761   5.787   1.963   1.853  0.5340  0.1883 -0.3449
  757TIP3    H123762   5.876   1.928   1.842  0.7285 -0.6331  2.8156
  757TIP3    H223763   5.775   1.967   1.948 -2.2700  1.7772 -0.6682
  758TIP3   OH223764   6.709   6.818  15.372  0.3987  0.3871  0.3762
  758TIP3    H123765   6.738   6.909  15.379 -1.0913  0.9533 -0.4539
  758TIP3    H223766   6.617   6.824  15.347  0.0013 -1.3513  1.2657
  759TIP3   OH223767   6.763   3.108   5.833  0.2183 -0.4175  0.4590
  759TIP3    H123768   6.742   3.036   5.774 -0.0323  0.9691 -1.2040
  759TIP3    H223769   6.679   3.136   5.869  0.3137 -0.9174  1.0897
  760TIP3   OH223770   2.509   0.892  17.133  0.4001 -0.2806 -0.1064
  760TIP3    H123771   2.597   0.866  17.106  0.2380 -0.0085 -0.9090
  760TIP3    H223772   2.521   0.932  17.219  1.0372 -0.3634 -0.1535
  761TIP3   OH223773   3.802   0.476  11.152  0.5622  0.3326  0.5304
  761TIP3    H123774   3.730   0.416  11.168  1.3088 -0.5740  0.5685
  761TIP3    H223775   3.812   0.478  11.057 -0.5774  1.7653  0.4079
  762TIP3   OH223776   3.453   1.832   5.234 -0.2196  0.1573  0.4059
  762TIP3    H123777   3.421   1.742   5.234 -0.7082  0.2828  2.4428
  762TIP3    H223778   3.541   1.827   5.195 -0.8338 -0.9207 -0.9179
  763TIP3   OH223779   6.796   4.442   1.744  0.0015  0.2695 -0.0982
  763TIP3    H123780   6.762   4.394   1.669  0.0368  1.2515 -0.7613
  763TIP3    H223781   6.867   4.387   1.777 -1.5690 -1.3562  0.7472
  764TIP3   OH223782   4.304   4.451  13.661 -0.2743  0.7276 -0.1203
  764TIP3    H123783   4.318   4.536  13.702 -1.2694  1.8046 -1.9097
  764TIP3    H223784   4.353   4.455  13.579 -1.9466  0.3536 -1.1699
  765TIP3   OH223785   6.110   3.433  16.442 -0.5424 -0.1650 -0.2641
  765TIP3    H123786   6.079   3.435  16.351  1.3879  0.0318 -0.9568
  765TIP3    H223787   6.035   3.399  16.491 -2.7047  2.4823 -1.4508
  766TIP3   OH223788   5.457   2.776  16.462  0.3445  0.5624 -0.2335
  766TIP3    H123789   5.404   2.807  16.536 -1.1881  0.0807 -1.0846
  766TIP3    H223790   5.491   2.691  16.491 -2.2605 -0.8221 -0.8819
  767TIP3   OH223791   2.388   4.894  15.994 -0.0395 -0.1588 -0.3286
  767TIP3    H123792   2.373   4.930  15.906  1.9756  0.9990 -0.2621
  767TIP3    H223793   2.480   4.866  15.993 -0.1091 -0.5309  1.2647
  768TIP3   OH223794   5.586   5.794  13.566  0.1319  0.3496 -0.2229
  768TIP3    H123795   5.591   5.874  13.618  1.1411  0.6276 -0.7271
  768TIP3    H223796   5.502   5.801  13.520  0.2915  1.2039 -0.3992
  769TIP3   OH223797   2.855   6.053  13.466 -0.2092 -0.4616 -0.1357
  769TIP3    H123798   2.928   5.996  13.488  1.5609  2.1053  1.2752
  769TIP3    H223799   2.816   6.075  13.550 -2.2616 -1.2499 -0.8240
  770TIP3   OH223800   3.968   6.147  11.439 -0.2451  0.0971 -0.0684
  770TIP3    H123801   3.900   6.201  11.479 -2.4399 -1.2418 -1.7633
  770TIP3    H223802   3.932   6.123  11.354  0.8782 -3.4230  0.2960
  771TIP3   OH223803   0.564   2.048   5.681  0.0715 -0.1745 -0.4825
  771TIP3    H123804   0.594   2.087   5.599  2.0383 -0.7563 -0.1002
  771TIP3    H223805   0.484   2.096   5.703 -1.0139 -0.5844 -3.1579
  772TIP3   OH223806   3.687   4.821  14.624  0.1567 -0.5418  0.0215
  772TIP3    H123807   3.641   4.801  14.543 -0.8838 -0.6759  0.6260
  772TIP3    H223808   3.667   4.748  14.683 -2.4024  1.3277  1.7178
  773TIP3   OH223809   2.082   2.282   2.854 -1.3618  0.4518 -0.3646
  773TIP3    H123810   2.094   2.211   2.916 -2.3711  0.5962  0.0178
  773TIP3    H223811   1.992   2.312   2.869 -1.7922  0.1944 -2.2025
  774TIP3   OH223812   0.613   3.351   1.228  0.3063 -0.0155  0.0638
  774TIP3    H123813   0.584   3.406   1.155  0.6037 -0.2981 -0.2710
  774TIP3    H223814   0.535   3.337   1.280  0.2447  0.7899  0.1901
  775TIP3   OH223815   1.415   6.247  10.435  0.0338 -0.0411 -0.0600
  775TIP3    H123816   1.402   6.340  10.416  1.4354  0.0273 -0.8233
  775TIP3    H223817   1.506   6.230  10.410 -0.4917 -1.8617 -0.8829
  776TIP3   OH223818   5.256   4.950  10.643 -0.3179 -0.1449  0.4161
  776TIP3    H123819   5.162   4.945  10.657 -0.4903  1.0505 -0.2187
  776TIP3    H223820   5.265   4.963  10.548  0.5216 -0.8611  0.3823
  777TIP3   OH223821   4.149   4.348  12.842  0.1491  0.1783  0.3108
  777TIP3    H123822   4.128   4.379  12.754  1.0536 -0.2839 -0.0743
  777TIP3    H223823   4.154   4.428  12.895  1.5614  0.6443 -0.4774
  778TIP3   OH223824   2.314   0.899  12.557 -0.7681  0.0465 -0.1810
  778TIP3    H123825   2.301   0.850  12.476 -0.8027 -1.2168  0.5719
  778TIP3    H223826   2.259   0.977  12.547 -0.6713 -0.0195 -1.4179
  779TIP3   OH223827   1.933   2.668  17.192 -0.2716 -0.0392 -0.0285
  779TIP3    H123828   1.958   2.578  17.172 -0.3668 -0.4810  1.6641
  779TIP3    H223829   1.909   2.706  17.107  1.2933 -1.1076 -0.9930
  780TIP3   OH223830   2.513   1.127  12.471  0.0232  0.5793  0.0274
  780TIP3    H123831   2.486   1.040  12.499  1.6080  0.1026  0.1591
  780TIP3    H223832   2.507   1.125  12.376 -0.5727  0.5566  0.0598
  781TIP3   OH223833   2.312   6.479   5.399  0.0715  0.0073  0.6137
  781TIP3    H123834   2.245   6.539   5.431  0.3416 -0.1030  1.4220
  781TIP3    H223835   2.289   6.395   5.437  0.8169  0.0293  1.1400
  782TIP3   OH223836   3.379   1.861   2.532  0.3642  0.3812 -0.1070
  782TIP3    H123837   3.324   1.800   2.580  0.8384 -2.4211 -2.8384
  782TIP3    H223838   3.327   1.942   2.529 -2.9263 -1.5641 -1.0539
  783TIP3   OH223839   4.888   0.968   1.868 -0.2419  0.0121  0.2409
  783TIP3    H123840   4.978   0.940   1.886 -1.2681 -2.5770  1.9323
  783TIP3    H223841   4.877   0.954   1.774  1.2387  0.9117 -0.1097
  784TIP3   OH223842   4.920   3.600  13.211 -0.7261  0.3442 -0.5884
  784TIP3    H123843   4.930   3.574  13.120 -1.3940 -0.3647 -0.4770
  784TIP3    H223844   4.844   3.658  13.211 -0.5191  0.6124 -0.5357
  785TIP3   OH223845   5.480   4.372  14.005 -0.2832  0.0847  0.3054
  785TIP3    H123846   5.445   4.393  14.091  0.1199  1.6231  0.1245
  785TIP3    H223847   5.575   4.375  14.016 -0.0873 -3.1848  0.5844
  786TIP3   OH223848   4.070   2.941   1.244 -0.4265 -0.1745 -0.2437
  786TIP3    H123849   3.986   2.920   1.203 -0.4557  0.4932 -0.5421
  786TIP3    H223850   4.047   2.974   1.331 -0.7177  2.6359 -1.2855
  787TIP3   OH223851   2.016   1.000  14.937  0.3592  0.0096  0.4347
  787TIP3    H123852   1.967   1.078  14.962  1.8336  0.9797  0.4380
  787TIP3    H223853   1.953   0.928  14.946 -0.7502  1.0540  1.4118
  788TIP3   OH223854   6.674   0.584  13.965  0.2002 -0.0694  0.1212
  788TIP3    H123855   6.589   0.556  13.932  0.2671 -2.6754  1.8882
  788TIP3    H223856   6.654   0.653  14.028 -0.3956  0.7063 -0.8856
  789TIP3   OH223857   1.301   4.372   0.927 -0.7015 -0.5192  0.2775
  789TIP3    H123858   1.393   4.386   0.950 -0.8198 -1.1012  1.1792
  789TIP3    H223859   1.253   4.395   1.007 -1.2687 -1.0639  0.1021
  790TIP3   OH223860   5.931   0.636  17.202  0.2584  0.2151  0.6851
  790TIP3    H123861   5.946   0.546  17.233 -0.7387 -0.0489  0.4358
  790TIP3    H223862   5.995   0.688  17.249  0.4968 -0.5585  1.2434
  791TIP3   OH223863   5.887   0.971  10.640 -0.6014  0.9469  0.0733
  791TIP3    H123864   5.908   1.062  10.621  1.6269  0.3684 -0.5712
  791TIP3    H223865   5.825   0.975  10.712  2.3346  2.9310  2.7618
  792TIP3   OH223866   5.408   4.224   4.495  0.2880 -0.4035 -0.2436
  792TIP3    H123867   5.504   4.225   4.498  0.2716  0.4836  2.0655
  792TIP3    H223868   5.385   4.132   4.492  1.1650 -0.6380 -3.3086
  793TIP3   OH223869   0.397   6.254  13.262  0.1451 -0.5158  0.4021
  793TIP3    H123870   0.349   6.266  13.180  1.2979 -3.1502 -0.7798
  793TIP3    H223871   0.336   6.208  13.319 -0.0604 -0.2826  0.3710
  794TIP3   OH223872   2.239   2.607  14.455  0.0806 -0.6078 -0.0868
  794TIP3    H123873   2.178   2.580  14.386 -0.6388  1.4270 -0.3061
  794TIP3    H223874   2.183   2.646  14.522  0.7417 -2.6384  1.8023
  795TIP3   OH223875   5.347   2.788  16.714  0.7931 -0.0652 -0.1296
  795TIP3    H123876   5.252   2.795  16.721  0.8592  0.7458  0.0706
  795TIP3    H223877   5.380   2.850  16.779  1.4669 -1.8081  1.2605
  796TIP3   OH223878   3.587   4.950  14.194 -0.1325  0.7977 -0.0741
  796TIP3    H123879   3.631   4.870  14.166  1.4296  1.2716  0.9089
  796TIP3    H223880   3.524   4.968  14.124  0.9844 -0.1096 -1.3708
  797TIP3   OH223881   6.333   2.841  16.959 -0.0577  0.7194 -0.0981
  797TIP3    H123882   6.314   2.747  16.953  1.0977  0.5266 -1.2291
  797TIP3    H223883   6.415   2.852  16.911  1.3081  1.8915  2.3229
  798TIP3   OH223884   2.036   4.712  13.800  0.0959 -1.1677 -0.2058
  798TIP3    H123885   2.082   4.707  13.716 -1.0414 -2.4437 -0.7917
  798TIP3    H223886   1.944   4.698  13.778 -0.1084 -2.5609  1.3548
  799TIP3   OH223887   4.296   5.273  16.683 -0.1669  0.1515  0.2578
  799TIP3    H123888   4.349   5.336  16.734  0.7817  0.5229 -1.1339
  799TIP3    H223889   4.268   5.209  16.748  0.2098  1.1142  1.4290
  800TIP3   OH223890   2.977   4.403   0.552 -0.1559  0.4779 -0.8355
  800TIP3    H123891   2.987   4.405   0.647 -2.1342  0.4143 -0.5980
  800TIP3    H223892   2.963   4.494   0.526  0.8522  0.5627 -1.1634
  801TIP3   OH223893   3.786   2.049  13.726  0.3172 -0.0440  0.3016
  801TIP3    H123894   3.757   2.073  13.638 -1.0664 -1.3467  0.3636
  801TIP3    H223895   3.757   2.122  13.781 -0.9673 -0.3090  0.0136
  802TIP3   OH223896   2.217   1.892   3.237  0.1618  0.4925  0.0129
  802TIP3    H123897   2.239   1.946   3.313  0.1448 -0.6185  0.8321
  802TIP3    H223898   2.141   1.841   3.266  0.5530 -0.4030 -0.5226
  803TIP3   OH223899   6.217   4.803  12.108  0.3267 -0.4382 -0.7048
  803TIP3    H123900   6.147   4.737  12.111  0.5121 -0.6366 -0.6845
  803TIP3    H223901   6.297   4.753  12.124  0.2297  0.1902  2.3315
  804TIP3   OH223902   4.812   4.144  13.014 -0.0936  0.6114 -0.5683
  804TIP3    H123903   4.748   4.215  13.024  0.4842  1.1815 -0.8661
  804TIP3    H223904   4.846   4.154  12.925 -0.9312 -0.8350 -1.0781
  805TIP3   OH223905   5.494   2.871  17.164  0.7320  0.5513 -0.2704
  805TIP3    H123906   5.454   2.791  17.198 -0.4942  0.9504 -0.7020
  805TIP3    H223907   5.587   2.862  17.185  0.2936  0.0272  1.6647
  806TIP3   OH223908   1.553   2.990  11.732 -0.3186  0.5906  0.3323
  806TIP3    H123909   1.536   3.037  11.814 -0.6294  2.5278 -0.7934
  806TIP3    H223910   1.647   3.004  11.716 -0.1643 -0.1429  0.5387
  807TIP3   OH223911   6.156   6.616  13.615  0.4043  0.5543  0.1822
  807TIP3    H123912   6.161   6.659  13.530 -1.0479 -0.2299 -0.3295
  807TIP3    H223913   6.075   6.649  13.654  0.1768 -0.3917  0.5338
  808TIP3   OH223914   2.443   1.620   1.070  0.5847 -0.0652 -0.2243
  808TIP3    H123915   2.401   1.596   0.988 -0.0390  1.5000 -0.4060
  808TIP3    H223916   2.370   1.627   1.132  0.7276  1.2723 -0.1878
  809TIP3   OH223917   4.371   5.741   0.261 -0.0323 -0.1844  0.0270
  809TIP3    H123918   4.358   5.798   0.337 -0.8054  0.3794 -0.5171
  809TIP3    H223919   4.413   5.663   0.297  0.6979  0.5589  0.8502
  810TIP3   OH223920   1.504   2.673   6.846  0.2532 -0.4397  0.5601
  810TIP3    H123921   1.461   2.611   6.904  1.6208 -2.3569 -0.3841
  810TIP3    H223922   1.473   2.650   6.758 -0.5781  1.4080  0.3165
  811TIP3   OH223923   2.474   6.519  13.727  0.2327 -0.5041  0.3134
  811TIP3    H123924   2.395   6.570  13.746  0.5058 -0.5444  1.6322
  811TIP3    H223925   2.529   6.579  13.676  0.3743  0.4188  1.4901
  812TIP3   OH223926   4.743   4.712  11.253  0.1973 -0.5683  0.0516
  812TIP3    H123927   4.670   4.757  11.211  0.0599 -0.9010 -0.0655
  812TIP3    H223928   4.797   4.680  11.180  1.1090  0.6965  0.1185
  813TIP3   OH223929   2.643   2.243  12.055 -0.3870  0.3637  0.7531
  813TIP3    H123930   2.561   2.194  12.053 -0.4689  0.4735  1.2282
  813TIP3    H223931   2.688   2.220  11.973 -0.2651 -0.7571  1.1281
  814TIP3   OH223932   4.000   1.848  15.278 -0.4697  0.2833  0.8576
  814TIP3    H123933   4.048   1.931  15.278 -0.1005  0.1473 -1.4420
  814TIP3    H223934   3.949   1.850  15.359 -0.5629  2.8285  0.8379
  815TIP3   OH223935   2.512   2.663   0.241  0.0353  0.0596 -0.0580
  815TIP3    H123936   2.572   2.605   0.194 -1.8953 -1.4222 -0.8396
  815TIP3    H223937   2.453   2.603   0.287 -0.1569  1.4685  1.6379
  816TIP3   OH223938   5.039   1.710   5.376  0.0657 -0.6470  0.2525
  816TIP3    H123939   4.994   1.792   5.353 -1.3407 -1.4779 -0.0812
  816TIP3    H223940   5.053   1.716   5.471 -0.2451 -0.1224  0.2685
  817TIP3   OH223941   3.133   1.030  15.975 -0.2098  0.0906 -0.2413
  817TIP3    H123942   3.061   1.082  15.941  0.1256  0.8897  0.2491
  817TIP3    H223943   3.197   1.094  16.007  0.5684 -0.6074 -0.3595
  818TIP3   OH223944   1.252   1.699   6.141  0.6398 -0.0792 -0.8767
  818TIP3    H123945   1.342   1.720   6.167  0.4315  0.9756 -0.9528
  818TIP3    H223946   1.216   1.651   6.216  1.3053 -0.6522 -0.9137
  819TIP3   OH223947   6.683   4.800  10.840  0.2391  0.4273 -0.3465
  819TIP3    H123948   6.720   4.738  10.903 -0.6644  2.2861  2.1647
  819TIP3    H223949   6.731   4.782  10.758  1.8131 -1.7618  0.9370
  820TIP3   OH223950   2.941   6.458  14.459 -0.4575  0.5033 -0.6170
  820TIP3    H123951   2.918   6.421  14.374 -0.6186 -2.3078  0.5504
  820TIP3    H223952   3.035   6.473  14.454 -0.0210 -1.8452 -0.6008
  821TIP3   OH223953   4.530   5.017   2.271 -0.7858 -0.4108  0.3816
  821TIP3    H123954   4.446   5.060   2.284  0.2181  2.0002 -0.4993
  821TIP3    H223955   4.539   4.959   2.346 -2.2675  0.9160  1.6688
  822TIP3   OH223956   4.308   0.585  11.424  0.0308 -0.4404  0.2284
  822TIP3    H123957   4.396   0.547  11.419 -0.2561 -0.9885 -1.2510
  822TIP3    H223958   4.323   0.679  11.437  0.8278 -0.5568  0.2178
  823TIP3   OH223959   0.845   6.229  10.889 -0.2351  0.2966 -0.2848
  823TIP3    H123960   0.934   6.264  10.882 -0.3380  0.6071 -0.0757
  823TIP3    H223961   0.836   6.170  10.814  0.6680 -0.9121  0.5292
  824TIP3   OH223962   6.814   2.410   4.329  0.1070 -0.0914 -0.3672
  824TIP3    H123963   6.852   2.478   4.273  1.6289  0.2265  0.9457
  824TIP3    H223964   6.840   2.328   4.289  0.5759  0.1284 -0.5228
  825TIP3   OH223965   6.525   3.315   3.945  0.6521 -0.2149  0.0200
  825TIP3    H123966   6.437   3.336   3.914 -0.1159 -0.6848  1.7495
  825TIP3    H223967   6.537   3.223   3.923  0.8110 -0.0930 -0.4141
  826TIP3   OH223968   1.614   6.618   4.935  0.0611  0.0935  0.0587
  826TIP3    H123969   1.574   6.674   4.869 -0.2649 -0.2259 -0.0148
  826TIP3    H223970   1.561   6.539   4.935  2.1703 -1.4641 -1.9100
  827TIP3   OH223971   3.885   3.473   5.484 -0.0064  0.0244 -0.0470
  827TIP3    H123972   3.937   3.397   5.458  0.0742  0.6578 -1.8903
  827TIP3    H223973   3.882   3.469   5.579  2.6875 -0.5068  0.0810
  828TIP3   OH223974   3.463   0.601   5.015  0.0404 -0.2301  0.1470
  828TIP3    H123975   3.551   0.607   5.050  0.1481 -0.7655 -0.0217
  828TIP3    H223976   3.463   0.658   4.938 -0.3839  1.4713  1.3573
  829TIP3   OH223977   4.725   2.924   1.821 -0.4148 -0.1730 -0.0149
  829TIP3    H123978   4.807   2.896   1.862 -0.6194 -0.3666  0.2596
  829TIP3    H223979   4.713   2.862   1.749 -0.0266  0.2020 -0.4125
  830TIP3   OH223980   0.764   2.731  16.898 -0.0803  0.0588 -0.5453
  830TIP3    H123981   0.785   2.801  16.959 -0.0135  1.6303 -2.2877
  830TIP3    H223982   0.847   2.708  16.857 -0.2031 -0.6245 -0.4276
  831TIP3   OH223983   5.991   3.491  12.246  1.0732  0.0062 -0.1481
  831TIP3    H123984   6.021   3.413  12.199 -0.3491  0.5716 -2.1278
  831TIP3    H223985   5.971   3.554  12.177 -0.7947  1.0276  1.2330
  832TIP3   OH223986   1.562   3.321   2.605 -0.0370 -0.7586  0.0320
  832TIP3    H123987   1.562   3.236   2.650 -0.3454 -0.1117  1.2731
  832TIP3    H223988   1.587   3.384   2.671  0.0990  0.1518 -0.8647
  833TIP3   OH223989   5.075   4.756  14.828  0.3260 -0.1468 -0.1770
  833TIP3    H123990   5.123   4.799  14.757  2.3464  0.0680  1.2448
  833TIP3    H223991   5.135   4.689  14.861 -1.3390 -1.5842  0.0741
  834TIP3   OH223992   1.888   1.235  11.717 -0.8092 -0.4986  0.0682
  834TIP3    H123993   1.876   1.213  11.625 -0.7426 -0.1909 -0.0157
  834TIP3    H223994   1.971   1.283  11.719 -1.3070  0.3785  0.1368
  835TIP3   OH223995   6.662   6.485   5.221 -0.4565  0.2576 -0.1684
  835TIP3    H123996   6.668   6.390   5.214  0.1105  0.2143  0.7449
  835TIP3    H223997   6.751   6.513   5.242 -0.5753  1.0152 -0.6456
  836TIP3   OH223998   0.969   3.292   2.747 -0.0183  0.4053  0.5994
  836TIP3    H123999   1.018   3.285   2.665  0.2284  1.5934  0.6308
  836TIP3    H224000   1.002   3.372   2.788 -0.9056  0.4092  1.3402
  837TIP3   OH224001   0.608   6.253   4.899  0.5830 -0.6340  0.1062
  837TIP3    H124002   0.612   6.301   4.816 -0.5857  1.8721  1.3806
  837TIP3    H224003   0.553   6.177   4.881 -0.2190  0.2323 -1.2528
  838TIP3   OH224004   6.608   3.524  11.522  0.1992  0.4897 -0.0317
  838TIP3    H124005   6.539   3.523  11.455 -0.4566 -0.8983  0.6314
  838TIP3    H224006   6.688   3.499  11.475 -0.4279 -1.4065 -0.1622
  839TIP3   OH224007   2.808   5.978   2.873  0.4511  0.0911 -0.5171
  839TIP3    H124008   2.752   5.925   2.928  0.0968  1.3562  0.3933
  839TIP3    H224009   2.792   5.947   2.784 -0.3175 -0.7731 -0.0869
  840TIP3   OH224010   1.418   2.121   0.836  0.3921  0.1810  1.1842
  840TIP3    H124011   1.512   2.130   0.854  0.4678 -2.6021  2.8488
  840TIP3    H224012   1.389   2.055   0.899 -2.0097 -1.4122 -1.3692
  841TIP3   OH224013   4.968   4.378   4.726 -0.6944  0.1514  0.0265
  841TIP3    H124014   5.034   4.446   4.717 -1.0574  0.8424  2.0150
  841TIP3    H224015   4.885   4.424   4.720 -0.9587 -0.3221 -0.0012
  842TIP3   OH224016   6.096   2.060  11.891 -0.1538  0.1051 -0.9198
  842TIP3    H124017   6.060   1.979  11.927 -0.1594  0.6173  0.2780
  842TIP3    H224018   6.020   2.117  11.880  0.0025  0.4170 -0.4522
  843TIP3   OH224019   0.128   5.188   1.543 -0.1994  0.0356 -0.2252
  843TIP3    H124020   0.158   5.098   1.533  0.1075  0.1695 -0.5635
  843TIP3    H224021   0.160   5.233   1.464 -1.0743  0.2496 -0.4681
  844TIP3   OH224022   6.036   2.686  14.738  0.5519  0.1997  0.6374
  844TIP3    H124023   6.070   2.701  14.826  0.0414  1.5117  0.6337
  844TIP3    H224024   6.019   2.591  14.734  3.2152 -0.3689  0.9593
  845TIP3   OH224025   1.844   6.028  16.522 -0.2348 -0.4687  0.3648
  845TIP3    H124026   1.893   5.951  16.550  0.5581 -0.4138 -0.8319
  845TIP3    H224027   1.799   6.000  16.442 -0.0033  0.2838 -0.0360
  846TIP3   OH224028   5.033   4.095  14.411 -0.0297 -0.1693 -0.1134
  846TIP3    H124029   4.943   4.111  14.439  0.7353  0.6504  2.1693
  846TIP3    H224030   5.047   4.002  14.426 -0.3385 -0.1825  0.1016
  847TIP3   OH224031   3.557   6.153  11.233  0.3796 -0.1909 -0.3512
  847TIP3    H124032   3.557   6.071  11.184 -0.0839 -0.5811  0.2781
  847TIP3    H224033   3.557   6.125  11.325 -0.6059  0.4946 -0.1281
  848TIP3   OH224034   3.226   0.830  11.980 -0.0764 -0.0291 -0.2278
  848TIP3    H124035   3.295   0.769  11.953  1.9409  2.6204 -1.5117
  848TIP3    H224036   3.179   0.850  11.898 -1.1495 -0.3230  0.2971
  849TIP3   OH224037   0.783   4.826   1.404  0.4198 -0.1122 -0.2979
  849TIP3    H124038   0.772   4.874   1.323  2.8678 -0.8298 -1.1539
  849TIP3    H224039   0.856   4.766   1.387 -0.7199 -2.2236  1.5634
  850TIP3   OH224040   3.642   3.107  10.857  0.1568  0.6543  0.1496
  850TIP3    H124041   3.709   3.148  10.913  0.6995  2.8263 -1.9298
  850TIP3    H224042   3.692   3.065  10.787 -0.4927 -2.3621  1.3402
  851TIP3   OH224043   5.330   2.854  14.654 -0.5033 -0.1585  0.7076
  851TIP3    H124044   5.422   2.854  14.630 -0.4411  2.1968  0.7489
  851TIP3    H224045   5.284   2.826  14.574  0.1036  1.2027 -0.1376
  852TIP3   OH224046   5.614   6.385  11.169  0.0639  0.7753 -0.3925
  852TIP3    H124047   5.605   6.294  11.139  0.5875  0.7103 -0.3500
  852TIP3    H224048   5.526   6.408  11.200  0.0343  0.1443  0.0043
  853TIP3   OH224049   6.305   3.975  14.104 -0.0747  0.4166 -0.2812
  853TIP3    H124050   6.385   3.993  14.154  0.2578 -5.3371  1.9566
  853TIP3    H224051   6.236   4.021  14.151  0.8001 -1.8444  3.6081
  854TIP3   OH224052   2.470   0.694  16.050  0.0990 -0.1430 -0.6702
  854TIP3    H124053   2.552   0.646  16.056  1.9738  2.9339  2.6197
  854TIP3    H224054   2.482   0.754  15.977  1.2109  0.8185  0.2562
  855TIP3   OH224055   2.447   1.362  15.523 -0.3444  0.0049 -0.6157
  855TIP3    H124056   2.532   1.406  15.534 -0.5129  0.4743 -1.1640
  855TIP3    H224057   2.468   1.278  15.482 -0.0362 -0.3803  0.2907
  856TIP3   OH224058   3.112   2.683  13.551 -0.3620 -0.5972  0.3514
  856TIP3    H124059   3.070   2.607  13.510  0.5924 -1.8482  1.6265
  856TIP3    H224060   3.203   2.677  13.524 -0.1527 -0.2736  0.9961
  857TIP3   OH224061   2.175   5.048   4.772 -0.1836  0.8484 -0.3849
  857TIP3    H124062   2.175   5.116   4.840 -1.9637  1.7384 -1.2185
  857TIP3    H224063   2.110   5.077   4.709 -4.1933 -3.5061  1.1630
  858TIP3   OH224064   6.316   0.535   3.231 -0.0720  0.2906  0.3417
  858TIP3    H124065   6.401   0.506   3.264 -0.7255 -1.5279  0.5259
  858TIP3    H224066   6.321   0.522   3.136 -0.4771 -0.7516  0.4590
  859TIP3   OH224067   0.706   5.896   3.524 -0.4394 -0.3254  0.0880
  859TIP3    H124068   0.754   5.895   3.442  0.0871 -0.0924  0.3892
  859TIP3    H224069   0.627   5.947   3.506 -0.5897 -0.7314 -0.4164
  860TIP3   OH224070   1.263   4.386  16.749 -0.1989  0.7659  0.5143
  860TIP3    H124071   1.192   4.326  16.771  0.1261 -0.2752 -1.0974
  860TIP3    H224072   1.243   4.417  16.661 -0.3881  3.1363  1.3196
  861TIP3   OH224073   1.593   3.095   0.271 -0.6578  0.0413  0.7299
  861TIP3    H124074   1.569   3.021   0.328 -2.2141  0.9532  1.3153
  861TIP3    H224075   1.581   3.172   0.326  1.1312  0.7500  0.1820
  862TIP3   OH224076   2.174   5.887  11.689 -0.3177  0.1301  0.3289
  862TIP3    H124077   2.083   5.908  11.664 -0.9736 -2.0409  0.7532
  862TIP3    H224078   2.178   5.792  11.688  2.0942  0.1832 -0.0416
  863TIP3   OH224079   4.224   3.855  13.060  0.3122  0.3853 -0.0822
  863TIP3    H124080   4.230   3.816  12.973  2.0219  0.7195 -0.1394
  863TIP3    H224081   4.160   3.800  13.106 -0.4274  0.0526 -1.4467
  864TIP3   OH224082   2.828   1.005   5.565 -0.8871 -0.2568 -0.0168
  864TIP3    H124083   2.867   0.979   5.649 -0.5211  0.4688  0.0458
  864TIP3    H224084   2.836   0.927   5.510  0.6859 -0.1417 -0.0054
  865TIP3   OH224085   5.976   5.166   3.925  0.0637 -0.4117 -0.7997
  865TIP3    H124086   5.984   5.223   4.002 -0.7878 -1.1535 -0.1536
  865TIP3    H224087   5.999   5.223   3.852  2.4046 -0.0706  0.0963
  866TIP3   OH224088   3.052   1.196  15.148 -0.4961 -0.1622 -0.2290
  866TIP3    H124089   3.065   1.135  15.221  2.1401 -0.5491 -0.9088
  866TIP3    H224090   2.991   1.150  15.089 -1.2889 -0.5876  0.8907
  867TIP3   OH224091   6.288   4.016   2.834  0.4017 -0.4456  0.0491
  867TIP3    H124092   6.255   4.054   2.753  1.2318  1.5331  0.5789
  867TIP3    H224093   6.209   3.998   2.886 -0.1009 -1.1932 -0.9377
  868TIP3   OH224094   6.721   0.741   5.612 -0.3749 -0.0269  0.3270
  868TIP3    H124095   6.671   0.694   5.680  0.5988 -1.4642  0.1064
  868TIP3    H224096   6.796   0.684   5.595 -1.4156 -0.5976 -3.1663
  869TIP3   OH224097   4.032   2.563  15.009  0.5880 -0.0080 -0.3213
  869TIP3    H124098   4.078   2.631  15.058  0.2850  1.3203 -1.7993
  869TIP3    H224099   4.018   2.493  15.072  4.7182 -0.6020  0.2641
  870TIP3   OH224100   0.809   5.347   2.068  0.6634  0.2245 -0.0333
  870TIP3    H124101   0.817   5.425   2.122 -0.3198 -1.1524  2.2305
  870TIP3    H224102   0.896   5.306   2.072  1.1742  1.1343 -1.2070
  871TIP3   OH224103   5.849   3.555   0.042 -0.4487  0.2511  0.5664
  871TIP3    H124104   5.765   3.520   0.072 -1.3556 -0.4969 -2.5020
  871TIP3    H224105   5.829   3.643   0.010 -0.5701 -0.6236 -1.9618
  872TIP3   OH224106   3.642   3.793  13.936  0.1626  0.2774  0.6952
  872TIP3    H124107   3.715   3.743  13.897 -0.1885 -0.2711  0.7254
  872TIP3    H224108   3.684   3.867  13.978  0.6535  0.2971  0.1905
  873TIP3   OH224109   0.119   5.117  11.674 -0.3392 -0.2347 -0.3960
  873TIP3    H124110   0.031   5.104  11.709  0.5521 -1.6393  1.4868
  873TIP3    H224111   0.120   5.209  11.646 -2.1976 -0.0185  0.1279
  874TIP3   OH224112   3.366   6.792   2.300  0.0997  0.1516  0.2912
  874TIP3    H124113   3.337   6.834   2.219  0.3094 -0.5847 -0.1681
  874TIP3    H224114   3.297   6.813   2.363  0.6784  2.0566  0.3730
  875TIP3   OH224115   3.903   2.614   3.575  0.6361 -0.0564 -0.2814
  875TIP3    H124116   3.926   2.707   3.567  0.3963 -0.0473 -1.0270
  875TIP3    H224117   3.815   2.614   3.613  0.8646 -0.0027  0.2535
  876TIP3   OH224118   5.728   2.220  16.295  0.5832 -0.1629  0.0272
  876TIP3    H124119   5.699   2.146  16.243 -1.1067  0.6397 -0.2309
  876TIP3    H224120   5.648   2.270  16.313  1.4171  0.6792  1.6497
  877TIP3   OH224121   2.650   5.248  16.137  0.2352 -0.0174  0.2718
  877TIP3    H124122   2.712   5.175  16.138  2.0963  1.4519  2.2687
  877TIP3    H224123   2.688   5.311  16.076 -0.8498 -0.2718 -0.6961
  878TIP3   OH224124   1.880   0.130   4.598  0.4640  0.3546 -0.1181
  878TIP3    H124125   1.809   0.086   4.553  0.9906 -0.5153 -0.1230
  878TIP3    H224126   1.837   0.200   4.649 -0.7413 -1.6954  1.8795
  879TIP3   OH224127   0.622   4.941  13.693 -0.2107  0.1112 -0.1757
  879TIP3    H124128   0.710   4.961  13.663 -0.3776 -0.7109 -1.2827
  879TIP3    H224129   0.570   5.017  13.666 -0.2129 -0.2877 -1.3888
  880TIP3   OH224130   5.837   3.756  12.353 -0.0179  0.1431 -0.1507
  880TIP3    H124131   5.789   3.829  12.315 -0.7766  0.9551  2.1854
  880TIP3    H224132   5.770   3.698  12.388  0.5693  0.7215  2.1423
  881TIP3   OH224133   0.052   1.965   4.752 -0.1975 -0.2261  0.2667
  881TIP3    H124134   0.145   1.951   4.767 -0.1949  0.4848  0.9471
  881TIP3    H224135   0.009   1.916   4.822 -0.3039  0.1805  0.4887
  882TIP3   OH224136   5.526   1.322  17.004 -0.1404  0.3096  0.2924
  882TIP3    H124137   5.616   1.315  17.035  0.1402  1.5663 -0.1787
  882TIP3    H224138   5.478   1.258  17.056  0.5843  1.2667  2.2682
  883TIP3   OH224139   3.767   1.603   3.841 -0.0040  0.0385  0.2519
  883TIP3    H124140   3.683   1.557   3.848 -0.8610  1.5224  0.0533
  883TIP3    H224141   3.786   1.630   3.931  1.4986 -2.3043  0.7358
  884TIP3   OH224142   0.875   1.279   1.584 -0.0788  0.2256  0.6434
  884TIP3    H124143   0.850   1.361   1.542  2.1793  0.5419 -0.2548
  884TIP3    H224144   0.920   1.306   1.664  0.1421 -0.1370  0.6469
  885TIP3   OH224145   1.297   3.060  16.670 -0.7329  0.0730 -0.7975
  885TIP3    H124146   1.318   2.981  16.719 -1.4430  0.1568 -0.3370
  885TIP3    H224147   1.241   3.029  16.598 -0.7263  0.1107 -0.8177
  886TIP3   OH224148   0.897   4.126   4.936  0.4679  0.2271  0.3179
  886TIP3    H124149   0.921   4.053   4.993  0.1863  0.1042  0.2778
  886TIP3    H224150   0.802   4.127   4.936  0.4638  0.9741  0.8045
  887TIP3   OH224151   2.256   3.766  15.287  0.8970 -0.3199  0.3590
  887TIP3    H124152   2.295   3.716  15.359 -0.3526 -3.6852 -1.0874
  887TIP3    H224153   2.319   3.757  15.216  0.7077  0.3356  0.1068
  888TIP3   OH224154   0.114   4.216   0.521 -0.0376  0.3843  0.4176
  888TIP3    H124155   0.036   4.200   0.468  0.7422  0.5765 -0.8221
  888TIP3    H224156   0.136   4.308   0.504  0.3608  0.3801  0.8943
  889TIP3   OH224157   3.331   1.691   0.307  0.0890 -0.0136  0.5111
  889TIP3    H124158   3.403   1.727   0.255  0.5397  0.4618  1.4418
  889TIP3    H224159   3.362   1.603   0.330  0.5817  0.3492  1.2787
  890TIP3   OH224160   3.434   5.341   4.967 -0.3491 -0.2511 -0.0311
  890TIP3    H124161   3.458   5.412   5.026  0.2404  0.6618 -1.3307
  890TIP3    H224162   3.514   5.287   4.961 -0.1951  0.0288 -0.5090
  891TIP3   OH224163   0.915   5.363   5.636 -0.0813  0.2856  0.2732
  891TIP3    H124164   0.909   5.273   5.669 -0.4444 -0.0792 -0.7554
  891TIP3    H224165   0.906   5.355   5.541  2.2208  1.1909 -0.0925
  892TIP3   OH224166   0.627   0.443  10.717  0.0757 -0.2013  0.3624
  892TIP3    H124167   0.594   0.369  10.665  0.0853  0.0145  0.0476
  892TIP3    H224168   0.705   0.472  10.670 -0.8457  1.0796 -0.4741
  893TIP3   OH224169   6.657   3.831  13.719 -0.1694  0.3867 -0.4865
  893TIP3    H124170   6.610   3.765  13.770 -0.0092  0.5473 -0.1267
  893TIP3    H224171   6.686   3.896  13.784  0.4089  0.3726 -0.7218
  894TIP3   OH224172   0.007   4.424  16.347  1.1392  0.8149 -0.0144
  894TIP3    H124173   0.091   4.429  16.393  1.4992  0.1264 -0.5759
  894TIP3    H224174   0.017   4.480  16.271  1.6058 -0.3611 -0.8457
  895TIP3   OH224175   6.311   6.055   2.811  0.4065 -0.0988 -0.3935
  895TIP3    H124176   6.235   6.057   2.754  0.2628  1.6252 -0.1985
  895TIP3    H224177   6.382   6.022   2.756 -0.1319 -0.2566 -1.0059
  896TIP3   OH224178   3.126   2.769  13.900 -0.3654 -0.0208  0.3543
  896TIP3    H124179   3.141   2.845  13.955 -1.2526 -0.1553  0.7965
  896TIP3    H224180   3.193   2.775  13.832 -0.0473  0.8171  0.7304
  897TIP3   OH224181   5.037   5.377   0.948  0.5494 -0.0122 -0.0920
  897TIP3    H124182   5.069   5.379   0.858  2.4808  0.2127  0.5604
  897TIP3    H224183   5.055   5.288   0.978  0.2435  0.0244  0.2068
  898TIP3   OH224184   6.327   2.871   3.290  0.4121 -0.0840  0.1615
  898TIP3    H124185   6.319   2.803   3.224 -0.3184  0.5888 -0.4651
  898TIP3    H224186   6.332   2.824   3.373  0.3233 -0.9054 -0.2902
  899TIP3   OH224187   6.002   5.136  14.673 -0.1853 -0.1933  0.1557
  899TIP3    H124188   6.067   5.169  14.735 -1.3523 -1.8370  2.3903
  899TIP3    H224189   6.053   5.090  14.607  1.0523  0.7186  0.4413
  900TIP3   OH224190   2.131   4.366  13.627 -0.6030  0.4716 -0.1245
  900TIP3    H124191   2.125   4.402  13.539  0.6367  0.8638 -0.0752
  900TIP3    H224192   2.185   4.287  13.618 -0.3791  0.5711  0.2929
  901TIP3   OH224193   5.306   1.385  13.300 -0.0034  0.6107 -0.0705
  901TIP3    H124194   5.219   1.359  13.331  0.0486  0.4389 -0.0690
  901TIP3    H224195   5.330   1.459  13.355  0.6083 -0.4437  1.1389
  902TIP3   OH224196   1.907   3.687  15.786 -0.1230 -0.2058 -0.4666
  902TIP3    H124197   1.842   3.691  15.716 -0.7174 -0.0234  0.0849
  902TIP3    H224198   1.870   3.741  15.856 -0.6468 -2.1952  0.8912
  903TIP3   OH224199   0.480   5.480  15.470 -0.2392 -0.2437  0.7020
  903TIP3    H124200   0.573   5.495  15.453 -0.6817  3.3812  0.8032
  903TIP3    H224201   0.446   5.440  15.390  0.8984  0.9469 -0.4067
  904TIP3   OH224202   6.513   6.151  13.813  0.1371  0.7305 -0.1699
  904TIP3    H124203   6.448   6.082  13.817  1.8185 -0.9127  0.5006
  904TIP3    H224204   6.548   6.146  13.724  0.4672  0.4862 -0.0307
  905TIP3   OH224205   1.298   3.106   1.225 -0.3831 -0.2658 -0.2663
  905TIP3    H124206   1.282   3.050   1.301  0.9034  1.2826  1.2383
  905TIP3    H224207   1.242   3.182   1.239 -0.2260 -0.0208 -0.9326
  906TIP3   OH224208   5.777   6.150   1.772 -0.2994  0.1757  0.1730
  906TIP3    H124209   5.779   6.054   1.773 -0.1027  0.1809  1.5751
  906TIP3    H224210   5.685   6.172   1.785 -0.4522  0.1997 -0.8204
  907TIP3   OH224211   6.551   5.079  11.628  0.4031 -0.0509  0.7510
  907TIP3    H124212   6.541   5.168  11.594 -1.0223 -0.3211  0.3821
  907TIP3    H224213   6.551   5.023  11.550  1.2306 -0.3859  0.9813
  908TIP3   OH224214   4.843   5.588   6.151 -0.0379  0.6415 -0.0061
  908TIP3    H124215   4.903   5.527   6.109 -0.5448  0.5242 -0.5822
  908TIP3    H224216   4.840   5.560   6.242  1.5679  1.2955  0.2731
  909TIP3   OH224217   4.100   6.362  12.195  0.1301 -0.2706 -0.0867
  909TIP3    H124218   4.123   6.416  12.120 -1.7793 -0.1455 -0.6244
  909TIP3    H224219   4.033   6.413  12.241 -1.2692 -1.8799 -0.2727
  910TIP3   OH224220   1.009   3.314   1.708 -0.5110  0.0877 -0.1237
  910TIP3    H124221   0.961   3.351   1.782 -0.9358  0.0448 -0.3754
  910TIP3    H224222   0.958   3.339   1.631  1.1316  2.1530 -0.6308
  911TIP3   OH224223   0.635   0.152   5.667  0.0753 -0.2596 -0.0286
  911TIP3    H124224   0.616   0.120   5.755  0.4761  0.3067  0.2723
  911TIP3    H224225   0.694   0.226   5.681 -0.4863  0.3413 -0.7232
  912TIP3   OH224226   3.616   5.726   3.750 -0.0934  0.4556 -0.6155
  912TIP3    H124227   3.571   5.736   3.834 -0.0478 -2.3078 -0.1542
  912TIP3    H224228   3.587   5.640   3.718  3.9125 -1.0434 -0.8202
  913TIP3   OH224229   6.529   0.121   0.473  0.5884  0.5845 -0.2413
  913TIP3    H124230   6.513   0.213   0.450  0.4177  0.4076 -0.8547
  913TIP3    H224231   6.477   0.072   0.410  1.0243  0.0579 -0.1938
  914TIP3   OH224232   4.211   2.512  15.647 -0.0238  0.1197 -0.2947
  914TIP3    H124233   4.158   2.434  15.659 -0.2996  0.3237 -0.1937
  914TIP3    H224234   4.162   2.582  15.689  0.9832  0.0593  1.0675
  915TIP3   OH224235   5.032   1.259   4.332 -0.1253 -0.5562  0.0434
  915TIP3    H124236   4.972   1.305   4.390  0.9522  0.2319  0.5701
  915TIP3    H224237   5.052   1.177   4.377  1.1721  0.3088  1.1154
  916TIP3   OH224238   2.142   2.044  14.977 -0.0470 -0.0979  0.0982
  916TIP3    H124239   2.199   2.121  14.978  0.4833 -0.4803 -0.3179
  916TIP3    H224240   2.193   1.975  15.020 -0.3973 -0.3068  0.1912
  917TIP3   OH224241   6.573   6.078   5.691 -0.1278  0.7080 -0.0770
  917TIP3    H124242   6.499   6.120   5.648  0.6409  1.2464 -0.9318
  917TIP3    H224243   6.552   6.080   5.784 -1.5926  0.0151 -0.3631
  918TIP3   OH224244   3.146   0.263  11.167  0.4170  0.3669 -0.1869
  918TIP3    H124245   3.109   0.341  11.126  0.0071  0.2131 -0.1104
  918TIP3    H224246   3.072   0.220  11.210  0.2294 -1.0772 -1.8171
  919TIP3   OH224247   3.806   4.602   2.856  0.4651 -0.2988  0.0190
  919TIP3    H124248   3.799   4.698   2.859 -0.3828 -0.2265 -2.2367
  919TIP3    H224249   3.819   4.582   2.763  0.7325 -2.3772  0.4625
  920TIP3   OH224250   0.993   3.846  15.422 -0.1408 -0.5313  0.6815
  920TIP3    H124251   1.071   3.897  15.402  1.0895 -1.1188  3.4482
  920TIP3    H224252   0.926   3.911  15.445  0.2180 -0.0693  0.4273
  921TIP3   OH224253   2.327   1.265   1.261 -0.3956 -0.1397  1.3877
  921TIP3    H124254   2.407   1.214   1.250 -0.9572 -0.8861  0.6252
  921TIP3    H224255   2.319   1.276   1.355 -0.1567 -1.3197  1.5670
  922TIP3   OH224256   5.045   4.574  15.793  0.4042 -0.4803 -0.1568
  922TIP3    H124257   5.054   4.625  15.874  5.5564  1.0850 -1.3813
  922TIP3    H224258   4.956   4.594  15.763 -0.4584  1.7482  3.2285
  923TIP3   OH224259   4.740   3.286  10.848 -0.1630 -0.6154 -0.0567
  923TIP3    H124260   4.646   3.271  10.861 -0.6820  1.5920 -0.8134
  923TIP3    H224261   4.755   3.262  10.756 -0.6514  1.5577 -0.7785
  924TIP3   OH224262   6.404   0.562  12.014  0.7159 -0.0835  0.0868
  924TIP3    H124263   6.414   0.543  12.107  1.9233  0.3430  0.0630
  924TIP3    H224264   6.315   0.532  11.993  0.1132  0.5375  1.5500
  925TIP3   OH224265   5.748   0.244   3.738 -0.2959 -0.2122  0.1451
  925TIP3    H124266   5.732   0.338   3.729  1.6763  0.1457 -0.0363
  925TIP3    H224267   5.762   0.231   3.832  0.2581 -0.1627  0.0733
  926TIP3   OH224268   2.654   3.891  13.799  0.1754 -0.2518 -0.7809
  926TIP3    H124269   2.596   3.872  13.726 -0.4238  0.8958 -0.6203
  926TIP3    H224270   2.637   3.821  13.862 -1.1452  0.1259 -0.6833
  927TIP3   OH224271   6.514   2.236   3.625 -0.3382 -0.3547 -0.4119
  927TIP3    H124272   6.566   2.184   3.564  0.9318 -0.4923  0.7277
  927TIP3    H224273   6.560   2.320   3.630  0.7612 -0.9927  1.7561
  928TIP3   OH224274   5.134   5.970   3.684 -0.2658  0.2645  0.0470
  928TIP3    H124275   5.079   6.044   3.660 -0.5395  0.3306  0.8438
  928TIP3    H224276   5.192   6.005   3.752  0.1545 -0.0411 -0.1493
  929TIP3   OH224277   1.156   0.175   1.291  0.2990  0.9513 -0.1895
  929TIP3    H124278   1.118   0.104   1.239 -0.8061  1.3043  0.1091
  929TIP3    H224279   1.208   0.130   1.357 -1.5933  0.3014  0.9598
  930TIP3   OH224280   3.017   1.019  16.248  0.0480  0.2568  0.1466
  930TIP3    H124281   2.970   0.956  16.303  3.0399 -1.1208  1.3283
  930TIP3    H224282   3.003   0.989  16.159 -0.8684 -0.3666  0.4801
  931TIP3   OH224283   2.858   0.242   0.126  0.1700  0.2538 -0.1791
  931TIP3    H124284   2.770   0.279   0.136  0.6308  0.9956  1.2803
  931TIP3    H224285   2.848   0.178   0.055 -1.3171  1.0132 -0.7073
  932TIP3   OH224286   6.638   3.433   0.195 -0.3010  0.1331  0.3909
  932TIP3    H124287   6.681   3.348   0.187 -1.1921 -0.6256  2.9824
  932TIP3    H224288   6.545   3.412   0.208 -0.2565  1.3065  3.3395
  933TIP3   OH224289   1.615   0.691   3.462 -0.2267  0.6516  0.1966
  933TIP3    H124290   1.572   0.745   3.529  0.2507  0.6428  0.5163
  933TIP3    H224291   1.705   0.723   3.459 -0.7665  2.1836 -2.0599
  934TIP3   OH224292   2.357   4.274  13.297 -0.0363 -0.0498 -0.5711
  934TIP3    H124293   2.352   4.196  13.354 -1.2770 -0.6569 -1.4543
  934TIP3    H224294   2.450   4.293  13.291  0.2356 -0.9614  0.3376
  935TIP3   OH224295   1.842   6.742  14.175 -0.0510 -1.0786 -0.9905
  935TIP3    H124296   1.788   6.804  14.127 -0.7043 -0.6644  0.2228
  935TIP3    H224297   1.889   6.796  14.239  1.8283 -1.4289 -1.9969
  936TIP3   OH224298   3.434   3.632  15.255  0.5648  0.0305  0.5777
  936TIP3    H124299   3.416   3.548  15.298 -0.6847 -0.3805 -0.6818
  936TIP3    H224300   3.354   3.683  15.268  0.8887  0.6039  0.3372
  937TIP3   OH224301   1.114   2.813   3.340 -0.2007 -0.1770  0.0068
  937TIP3    H124302   1.022   2.795   3.356 -0.5843  1.8534  0.2414
  937TIP3    H224303   1.160   2.775   3.415 -0.9355 -0.3531  0.3734
  938TIP3   OH224304   6.747   1.542   4.655  0.6029 -0.4728 -0.3262
  938TIP3    H124305   6.779   1.499   4.734 -0.3499 -0.9540 -0.1943
  938TIP3    H224306   6.821   1.539   4.595  0.4911 -2.5827 -0.4282
  939TIP3   OH224307   5.852   5.091  15.936 -0.6361 -0.3577 -0.4799
  939TIP3    H124308   5.936   5.046  15.949  0.2537  1.4910  0.6859
  939TIP3    H224309   5.866   5.146  15.859 -0.8374 -0.1724 -0.3842
  940TIP3   OH224310   0.307   2.826   2.178  0.2121  0.3098  0.6339
  940TIP3    H124311   0.244   2.865   2.239 -1.1016 -0.3878 -0.2113
  940TIP3    H224312   0.388   2.819   2.228 -1.2615 -1.9556  3.0074
  941TIP3   OH224313   1.356   4.783  11.962  0.0418  0.4218 -0.2924
  941TIP3    H124314   1.374   4.862  11.911 -0.1959 -0.0634 -1.1516
  941TIP3    H224315   1.416   4.718  11.926 -0.4873 -0.0662 -0.3024
  942TIP3   OH224316   1.579   4.568  15.144 -0.2879 -0.7199 -0.5939
  942TIP3    H124317   1.661   4.521  15.158 -0.3049 -0.6367 -0.2009
  942TIP3    H224318   1.545   4.584  15.232  1.4477  3.0732 -0.3754
  943TIP3   OH224319   0.368   3.367   4.054 -0.0127 -0.0087  0.8391
  943TIP3    H124320   0.434   3.429   4.023 -0.2095 -0.3642 -0.3088
  943TIP3    H224321   0.291   3.422   4.072  0.6151  0.4380  2.3812
  944TIP3   OH224322   5.670   1.189  13.175  0.2863 -0.1394  0.3873
  944TIP3    H124323   5.754   1.156  13.207  2.3608  2.6401 -1.7098
  944TIP3    H224324   5.687   1.280  13.152 -3.6141  0.8393  0.7138
  945TIP3   OH224325   2.957   3.785   1.093  0.1486 -0.4301 -0.0235
  945TIP3    H124326   2.938   3.860   1.150 -2.0095  0.2574 -1.5084
  945TIP3    H224327   2.904   3.714   1.128  0.6966 -0.7062  0.2481
  946TIP3   OH224328   2.669   4.754   7.024  0.0750  0.3398  0.9138
  946TIP3    H124329   2.760   4.774   7.003  0.2388  0.7901  1.9836
  946TIP3    H224330   2.668   4.659   7.040  0.5627  0.4805  1.8294
  947TIP3   OH224331   4.161   3.172   2.493  0.3312  0.1810  0.2712
  947TIP3    H124332   4.161   3.266   2.472 -0.6784  0.4914  1.4775
  947TIP3    H224333   4.223   3.133   2.432 -1.7809  1.0871 -2.6382
  948TIP3   OH224334   5.479   1.474   5.021 -0.4481  0.2293 -0.4812
  948TIP3    H124335   5.533   1.396   5.028 -0.3264  0.3936  0.6485
  948TIP3    H224336   5.531   1.543   5.062 -1.1512  0.5685 -0.1420
  949TIP3   OH224337   2.091   6.551  11.441 -0.1082  0.4684 -0.1407
  949TIP3    H124338   2.179   6.519  11.459  0.3595  1.3237 -0.8232
  949TIP3    H224339   2.058   6.493  11.371  0.4708  1.0159 -0.8853
  950TIP3   OH224340   6.228   3.006  15.235  0.3143  0.3718 -0.6790
  950TIP3    H124341   6.294   3.010  15.165 -0.7590  1.1967 -1.6789
  950TIP3    H224342   6.218   3.096  15.264 -2.3254  0.7507 -2.4684
  951TIP3   OH224343   2.346   0.269   5.145 -0.6620 -0.1435 -0.4781
  951TIP3    H124344   2.353   0.177   5.120  0.3089  0.0958 -1.1137
  951TIP3    H224345   2.351   0.267   5.241  0.1953 -0.6924 -0.5204
  952TIP3   OH224346   2.998   0.121  12.367  0.2702 -0.0268  0.1236
  952TIP3    H124347   2.968   0.146  12.280 -1.2437 -2.4811 -0.1587
  952TIP3    H224348   2.924   0.140  12.425 -0.0508 -1.6261  0.2642
  953TIP3   OH224349   4.813   6.800  15.031  0.2830 -0.4377  0.0829
  953TIP3    H124350   4.730   6.767  14.997  0.5917 -1.6990  0.4808
  953TIP3    H224351   4.834   6.875  14.976  0.9881 -2.6273 -2.8328
  954TIP3   OH224352   6.423   5.606  15.828 -0.0252 -0.1223 -0.5900
  954TIP3    H124353   6.486   5.659  15.877 -0.0036 -1.7941  1.3275
  954TIP3    H224354   6.347   5.663  15.819  0.4376  0.6768  0.3056
  955TIP3   OH224355   6.516   2.973  13.109 -0.5665 -0.2662  0.8128
  955TIP3    H124356   6.507   2.883  13.140  2.3338 -0.7995  0.4034
  955TIP3    H224357   6.475   2.973  13.023  0.0920 -1.4574  0.4761
  956TIP3   OH224358   2.142   3.369   5.536  0.5304 -0.3963 -0.3516
  956TIP3    H124359   2.192   3.404   5.463 -1.4397  2.3095 -0.5303
  956TIP3    H224360   2.163   3.426   5.610  1.2821 -2.1338  0.8501
  957TIP3   OH224361   1.832   5.123   5.940  0.1944  0.0765  0.4971
  957TIP3    H124362   1.775   5.143   6.014  2.0419  0.2129  1.9353
  957TIP3    H224363   1.886   5.201   5.929 -1.0164  0.6675 -2.0079
  958TIP3   OH224364   4.080   4.518   3.690 -0.0624 -0.1260  0.2189
  958TIP3    H124365   4.133   4.595   3.670 -1.0509  0.2263 -1.1819
  958TIP3    H224366   4.128   4.445   3.652  0.5432 -0.1346  0.9674
  959TIP3   OH224367   3.597   5.883  14.405  0.1801 -0.1373  0.2827
  959TIP3    H124368   3.526   5.835  14.361  1.6727 -3.0862  0.8236
  959TIP3    H224369   3.601   5.967  14.359 -1.3847 -1.2268 -2.0502
  960TIP3   OH224370   0.598   1.211   4.530  0.0742 -0.1795 -0.1391
  960TIP3    H124371   0.598   1.261   4.448  0.0511 -1.4788 -0.9506
  960TIP3    H224372   0.507   1.213   4.559  0.3769  1.7823  0.8281
  961TIP3   OH224373   0.035   1.797  15.590  0.4936  0.6104 -0.1990
  961TIP3    H124374   0.077   1.856  15.527  0.3525  1.9412  0.8828
  961TIP3    H224375   0.068   1.827  15.675 -0.0877 -0.4848  0.4315
  962TIP3   OH224376   5.805   2.519  12.085 -0.0139 -0.2063  0.3263
  962TIP3    H124377   5.883   2.482  12.127 -1.0404 -1.5139  1.1895
  962TIP3    H224378   5.741   2.524  12.156 -0.6141  1.2343 -0.2752
  963TIP3   OH224379   0.550   1.580   1.431 -0.3501 -0.7404 -0.6698
  963TIP3    H124380   0.495   1.657   1.446 -0.4467 -0.9125 -0.1464
  963TIP3    H224381   0.525   1.550   1.343 -0.0450  0.0414 -1.0350
  964TIP3   OH224382   0.469   6.344  10.749 -0.3553 -0.4955  0.3770
  964TIP3    H124383   0.507   6.359  10.835 -1.5740  2.0010  0.5808
  964TIP3    H224384   0.387   6.298  10.765 -1.6184  1.7738  0.8514
  965TIP3   OH224385   1.959   3.662   2.773  0.8256  0.3683  0.2792
  965TIP3    H124386   1.868   3.649   2.747  0.7637 -0.6986  0.9841
  965TIP3    H224387   1.977   3.592   2.836  2.1643  0.5013  0.0831
  966TIP3   OH224388   4.537   6.334  11.266  0.2726 -0.0795 -0.2020
  966TIP3    H124389   4.560   6.276  11.338  0.9228  0.4054 -0.0068
  966TIP3    H224390   4.448   6.309  11.243  0.4585 -0.9888  0.0305
  967TIP3   OH224391   5.603   1.727   1.857  0.2536 -0.4765  0.0908
  967TIP3    H124392   5.590   1.821   1.873 -3.0191 -0.9471  0.9017
  967TIP3    H224393   5.682   1.723   1.803  0.7768  2.6799  0.3942
  968TIP3   OH224394   1.663   1.830  16.532  0.0327 -0.2100 -0.5088
  968TIP3    H124395   1.715   1.772  16.587  2.6776 -0.1063 -2.6791
  968TIP3    H224396   1.617   1.887  16.594  1.0934 -1.4906  1.5824
  969TIP3   OH224397   5.918   5.557  13.500  0.0542 -0.8479 -0.2392
  969TIP3    H124398   5.969   5.534  13.579 -1.8291 -2.4873  0.6078
  969TIP3    H224399   5.983   5.590  13.438  1.8460 -1.0338  1.4338
  970TIP3   OH224400   6.321   0.307  16.726 -0.2295  0.1391  0.4376
  970TIP3    H124401   6.406   0.347  16.707 -0.2179  0.2645  0.7410
  970TIP3    H224402   6.259   0.358  16.674  0.1162 -1.2903 -1.4493
  971TIP3   OH224403   3.341   0.775   3.189 -0.6583 -0.2447 -0.5671
  971TIP3    H124404   3.260   0.824   3.173 -1.5746 -1.4783  0.0551
  971TIP3    H224405   3.323   0.726   3.270  0.4708 -1.0377 -0.7799
  972TIP3   OH224406   4.621   1.644  17.182 -0.0282  0.1623  0.6379
  972TIP3    H124407   4.694   1.670  17.238  0.5311 -0.7406  0.3425
  972TIP3    H224408   4.587   1.727  17.146  3.9523  0.4852 -3.1591
  973TIP3   OH224409   2.779   0.692  16.760 -0.6675  0.4726 -0.2116
  973TIP3    H124410   2.856   0.691  16.704 -0.0234 -1.6954  0.6175
  973TIP3    H224411   2.733   0.610  16.738 -3.1042  1.9842 -1.1179
  974TIP3   OH224412   5.760   0.388   5.044 -0.3479 -0.0767  0.9462
  974TIP3    H124413   5.804   0.358   5.123  0.9163  0.6047  0.5239
  974TIP3    H224414   5.824   0.445   5.000 -1.7231  1.1663  0.4391
  975TIP3   OH224415   2.198   1.842  12.298 -0.1288 -0.1453 -0.2469
  975TIP3    H124416   2.291   1.843  12.321 -0.3002 -0.7068  0.5109
  975TIP3    H224417   2.164   1.923  12.334 -0.2625 -0.7212  0.9934
  976TIP3   OH224418   4.078   4.377  13.818 -0.4933 -0.3211 -0.0661
  976TIP3    H124419   4.158   4.422  13.790 -0.4717  0.2100  0.7959
  976TIP3    H224420   4.008   4.442  13.806 -0.7779 -0.7434 -0.7079
  977TIP3   OH224421   1.706   2.583  15.613 -0.0067  0.3150 -0.0569
  977TIP3    H124422   1.719   2.618  15.701  0.2550  0.9873 -0.3600
  977TIP3    H224423   1.658   2.501  15.627  0.7164  0.0228  0.7588
  978TIP3   OH224424   1.267   0.090   1.939  0.7008  0.6855  0.0296
  978TIP3    H124425   1.189   0.089   1.884 -1.6236  1.7066  2.9920
  978TIP3    H224426   1.295   0.181   1.939  1.7462  0.3837 -0.7381
  979TIP3   OH224427   2.963   4.753   1.073 -0.1319 -0.6516  0.1217
  979TIP3    H124428   3.030   4.750   1.141 -1.5894 -1.5177  1.5920
  979TIP3    H224429   3.010   4.736   0.992  1.8034  1.3049  0.7668
  980TIP3   OH224430   6.816   2.416  10.737 -0.3497 -0.1277 -0.1516
  980TIP3    H124431   6.752   2.474  10.694  0.4891  0.3807 -0.7539
  980TIP3    H224432   6.827   2.344  10.675 -0.1496 -0.0879 -0.1600
  981TIP3   OH224433   1.439   5.694   3.365  0.2053  0.3873 -0.1285
  981TIP3    H124434   1.360   5.712   3.417 -0.6312 -2.8810 -0.0404
  981TIP3    H224435   1.502   5.660   3.429  0.4628 -0.1807 -0.6739
  982TIP3   OH224436   3.351   0.973  15.405  0.5953 -0.0083 -0.3067
  982TIP3    H124437   3.435   0.994  15.364  0.3647 -0.7111 -1.1717
  982TIP3    H224438   3.325   1.054  15.449  3.5151 -0.7515  3.2522
  983TIP3   OH224439   5.532   0.405  11.125  0.1646  0.0737  0.3649
  983TIP3    H124440   5.571   0.485  11.092 -1.4217  1.0133  0.6513
  983TIP3    H224441   5.438   0.423  11.126 -0.3027 -2.0996 -0.3541
  984TIP3   OH224442   5.830   2.937   2.829  0.4733  0.2625 -0.0324
  984TIP3    H124443   5.887   2.927   2.906  0.2272  1.7739  0.3716
  984TIP3    H224444   5.771   2.861   2.833  1.1811 -0.2627  0.6498
  985TIP3   OH224445   6.684   5.984  13.565  0.7917 -0.4666 -0.3483
  985TIP3    H124446   6.604   5.972  13.514  0.6245 -0.1550 -0.1645
  985TIP3    H224447   6.710   5.896  13.591  0.0483 -0.5085  0.2827
  986TIP3   OH224448   6.121   5.529  15.580  0.7283 -0.5682 -0.9497
  986TIP3    H124449   6.136   5.441  15.616  2.2038 -0.1657 -0.5082
  986TIP3    H224450   6.153   5.588  15.648  1.3775  0.2753 -1.9593
  987TIP3   OH224451   1.090   6.362  14.412  0.2967  0.5529 -0.3268
  987TIP3    H124452   1.173   6.351  14.366 -0.4098 -1.8762 -1.1814
  987TIP3    H224453   1.070   6.455  14.404  3.7889  1.6450  1.5232
  988TIP3   OH224454   5.143   3.741  13.706 -0.1309  0.7068  0.7103
  988TIP3    H124455   5.190   3.728  13.789  3.5610 -0.3362 -1.3052
  988TIP3    H224456   5.158   3.833  13.684  1.8894  0.2110 -0.2821
  989TIP3   OH224457   1.551   1.365  16.763  0.1141 -0.0940  0.1836
  989TIP3    H124458   1.581   1.415  16.686  0.2262 -1.6221 -0.7976
  989TIP3    H224459   1.607   1.397  16.834 -0.4735  1.8689 -0.1734
  990TIP3   OH224460   4.260   2.052  13.430 -0.4404 -0.3888  0.4314
  990TIP3    H124461   4.203   2.003  13.370 -1.2816 -0.9592  1.6479
  990TIP3    H224462   4.201   2.083  13.498  0.6615 -0.7714  1.5948
  991TIP3   OH224463   3.510   0.809  15.201 -0.1323 -0.2239 -0.2499
  991TIP3    H124464   3.520   0.719  15.233  2.3996 -0.1019 -0.4682
  991TIP3    H224465   3.441   0.847  15.256 -0.2964 -1.8854  0.7533
  992TIP3   OH224466   4.319   1.763  15.322  0.9045  0.3199 -0.4269
  992TIP3    H124467   4.299   1.769  15.415  0.1707  1.0244 -0.6173
  992TIP3    H224468   4.282   1.679  15.294  0.7199  0.3207 -0.1852
  993TIP3   OH224469   3.125   0.680  14.716 -0.3861 -0.1353 -0.1951
  993TIP3    H124470   3.097   0.740  14.785  1.0692  0.8024 -0.3702
  993TIP3    H224471   3.054   0.683  14.651 -0.4262  1.2906 -0.1218
  994TIP3   OH224472   2.010   6.452   3.920  0.7262  0.2531 -0.1378
  994TIP3    H124473   1.965   6.369   3.937  2.4299 -1.4568 -3.0408
  994TIP3    H224474   1.940   6.515   3.906 -0.6381 -0.9311  1.0119
  995TIP3   OH224475   5.403   6.540   0.871 -0.2011 -0.1306 -0.0596
  995TIP3    H124476   5.456   6.614   0.843 -0.6901 -0.2116 -1.2734
  995TIP3    H224477   5.384   6.557   0.963  1.6470  0.0508  0.3204
  996TIP3   OH224478   0.518   4.158   2.431  1.0037  0.0602 -0.1436
  996TIP3    H124479   0.499   4.242   2.389  1.6725  1.1262  1.5765
  996TIP3    H224480   0.432   4.117   2.443  0.3876  1.6232  1.1851
  997TIP3   OH224481   5.058   4.224  15.317  0.4697  0.1130 -0.1442
  997TIP3    H124482   5.005   4.199  15.241  1.0178  1.3020 -0.9440
  997TIP3    H224483   5.148   4.209  15.289  0.6392 -0.3802  0.6394
  998TIP3   OH224484   4.623   4.063  15.009  1.0465 -0.1085 -0.0843
  998TIP3    H124485   4.648   3.989  15.065  0.5274 -1.1930 -1.2279
  998TIP3    H224486   4.555   4.028  14.952  1.0096  1.1761 -0.8746
  999TIP3   OH224487   4.510   0.823  14.535  0.1057 -0.0520  0.5857
  999TIP3    H124488   4.519   0.918  14.532 -0.0856  0.0138  1.5588
  999TIP3    H224489   4.561   0.797  14.613 -0.6757 -0.6308  0.9127
 1000TIP3   OH224490   2.880   6.307   1.529  0.1644 -0.6437  0.1686
 1000TIP3    H124491   2.926   6.260   1.598  0.6404  2.6142  2.2735
 1000TIP3    H224492   2.809   6.354   1.574  0.2210  1.2549 -1.5626
 1001TIP3   OH224493   4.577   2.172  14.823 -0.5356  0.1537  0.5515
 1001TIP3    H124494   4.626   2.206  14.897  0.7650  0.5717 -0.4613
 1001TIP3    H224495   4.487   2.201  14.838 -0.3759 -0.1000  2.1360
 1002TIP3   OH224496   2.274   5.621  13.972  0.5745 -0.0735  0.3479
 1002TIP3    H124497   2.182   5.646  13.977  0.1993 -1.3971  0.4290
 1002TIP3    H224498   2.297   5.632  13.880  0.0941 -0.4938  0.1694
 1003TIP3   OH224499   3.552   1.266  12.159  0.1970  0.4593  0.1991
 1003TIP3    H124500   3.520   1.351  12.130 -1.3418  0.0270  0.5277
 1003TIP3    H224501   3.474   1.210  12.161  0.9526 -0.6109  1.2297
 1004TIP3   OH224502   6.319   2.605   4.185 -0.4316  0.8243 -0.1629
 1004TIP3    H124503   6.345   2.536   4.124 -0.5699  1.3952 -0.8953
 1004TIP3    H224504   6.308   2.561   4.269 -1.0700 -0.1394 -0.7398
 1005TIP3   OH224505   2.284   2.956  10.552  0.0599 -0.1451  0.5424
 1005TIP3    H124506   2.273   2.863  10.568  1.6471 -0.5914 -0.7338
 1005TIP3    H224507   2.201   2.983  10.513  0.4712 -1.6290 -1.5012
 1006TIP3   OH224508   1.982   3.339  16.007  0.7946  0.3845  0.3092
 1006TIP3    H124509   1.911   3.365  16.065 -0.6930 -0.5682 -1.0018
 1006TIP3    H224510   2.060   3.338  16.063  0.0573  2.7385  1.4974
 1007TIP3   OH224511   5.677   1.340   0.523 -0.1477  0.2371  0.0936
 1007TIP3    H124512   5.697   1.277   0.593 -1.2307 -0.4893 -0.2290
 1007TIP3    H224513   5.603   1.390   0.557 -1.3329 -0.7866 -0.9077
 1008TIP3   OH224514   2.165   2.491  12.192 -0.0699 -0.1631  0.1356
 1008TIP3    H124515   2.228   2.564  12.196 -0.0710 -0.1931  0.8481
 1008TIP3    H224516   2.163   2.457  12.282  1.7602 -2.5977 -0.6466
 1009TIP3   OH224517   5.181   2.403  12.085 -0.2058 -0.0829 -0.2630
 1009TIP3    H124518   5.087   2.397  12.098 -0.0969 -0.1612  0.5367
 1009TIP3    H224519   5.198   2.497  12.076 -0.3576 -0.0669 -0.3693
 1010TIP3   OH224520   5.204   6.488   0.398 -0.0162  0.3603  0.4428
 1010TIP3    H124521   5.241   6.563   0.444 -0.5927  0.2071  1.1757
 1010TIP3    H224522   5.219   6.507   0.306 -0.3473  1.4891  0.6022
 1011TIP3   OH224523   6.789   3.799   2.026 -0.3386  0.3226 -0.2183
 1011TIP3    H124524   6.763   3.866   2.089  0.1368 -1.1960  1.7036
 1011TIP3    H224525   6.757   3.717   2.064  2.0973 -0.9415 -0.6741
 1012TIP3   OH224526   5.319   4.374   4.706  0.0155  0.2151  0.1587
 1012TIP3    H124527   5.375   4.326   4.644  0.7138 -1.0176  1.6635
 1012TIP3    H224528   5.307   4.313   4.779 -0.1565  1.8850  1.5819
 1013TIP3   OH224529   0.459   1.684  14.182 -0.1556  0.3757  0.4255
 1013TIP3    H124530   0.401   1.614  14.210 -1.1966  1.8392  2.1107
 1013TIP3    H224531   0.519   1.698  14.256  2.5228 -1.1372 -1.2811
 1014TIP3   OH224532   5.227   2.403   1.350 -0.1659  0.2845  0.2209
 1014TIP3    H124533   5.306   2.356   1.326  0.5242  0.9869  1.0423
 1014TIP3    H224534   5.232   2.485   1.300 -0.2262  0.4553  0.4927
 1015TIP3   OH224535   0.729   2.603  14.827 -0.1589 -0.2481 -0.4708
 1015TIP3    H124536   0.734   2.626  14.920 -2.0929  2.5439 -0.9485
 1015TIP3    H224537   0.800   2.652  14.786 -1.3536  1.2142 -0.8595
 1016TIP3   OH224538   6.448   0.591  14.506  0.2880  0.1594  0.4103
 1016TIP3    H124539   6.357   0.594  14.533  0.4529  0.3896  0.9616
 1016TIP3    H224540   6.450   0.527  14.435 -0.0474 -0.9941  1.4047
 1017TIP3   OH224541   3.171   4.906   4.042 -0.7977 -0.4074  0.2612
 1017TIP3    H124542   3.188   4.872   3.954  1.5311 -1.2782  0.9682
 1017TIP3    H224543   3.171   5.001   4.031 -0.7306 -0.5103 -0.7241
 1018TIP3   OH224544   4.958   3.897   3.268 -0.2815 -0.1388 -0.0216
 1018TIP3    H124545   4.892   3.859   3.327 -0.2858  1.1564  0.8583
 1018TIP3    H224546   4.923   3.883   3.180 -1.8791  0.6966  0.4342
 1019TIP3   OH224547   3.512   4.879   2.223 -0.1913  0.9102  0.4396
 1019TIP3    H124548   3.525   4.860   2.316 -2.8333  1.0510  0.9049
 1019TIP3    H224549   3.539   4.971   2.214  2.3128  0.2521  0.4891
 1020TIP3   OH224550   5.226   6.803   4.921  0.2238  0.3128 -0.5165
 1020TIP3    H124551   5.146   6.792   4.869  0.2398 -0.7645 -0.3337
 1020TIP3    H224552   5.280   6.727   4.900 -0.3904 -1.0048  2.1504
 1021TIP3   OH224553   0.674   2.254   5.015 -0.3110  0.0632  0.0348
 1021TIP3    H124554   0.693   2.295   4.930 -0.6891  0.1964  0.0125
 1021TIP3    H224555   0.749   2.277   5.070  1.8229 -3.0457 -1.2679
 1022TIP3   OH224556   5.824   4.280  16.272 -0.0592 -0.0851 -0.6472
 1022TIP3    H124557   5.802   4.353  16.330  1.0117 -0.5420  0.3780
 1022TIP3    H224558   5.740   4.254  16.234 -0.9941 -0.3472  1.4109
 1023TIP3   OH224559   1.072   5.479   2.494 -0.0517  0.1910  0.4087
 1023TIP3    H124560   1.107   5.421   2.563  0.5840  0.6748  0.5028
 1023TIP3    H224561   1.040   5.419   2.427 -1.1243 -0.3110  1.3186
 1024TIP3   OH224562   2.755   4.140   0.062  0.0289 -0.0802 -0.2851
 1024TIP3    H124563   2.849   4.143   0.043 -0.2781  2.9592 -1.9132
 1024TIP3    H224564   2.747   4.183   0.147  0.0378  0.7655 -0.7027
 1025TIP3   OH224565   5.068   5.076  16.999 -0.0893  0.0656 -0.3043
 1025TIP3    H124566   4.982   5.089  16.959 -0.1433 -0.5658 -0.4118
 1025TIP3    H224567   5.051   5.019  17.074  0.1119  0.6768  0.2061
 1026TIP3   OH224568   2.648   0.093  10.846 -0.8279  0.4300  0.3119
 1026TIP3    H124569   2.583   0.118  10.780 -0.2968 -2.7243 -1.6465
 1026TIP3    H224570   2.731   0.129  10.813 -1.0412  1.7189  1.1160
 1027TIP3   OH224571   4.974   2.914  16.055  0.1600 -0.2525 -0.0991
 1027TIP3    H124572   5.050   2.894  16.110  0.4346 -0.1997 -0.4547
 1027TIP3    H224573   4.944   3.000  16.086 -0.2201 -0.6095  0.5502
 1028TIP3   OH224574   4.844   0.675  17.102  0.0240  0.1586  0.4376
 1028TIP3    H124575   4.821   0.748  17.159 -0.7279  0.6186 -0.4275
 1028TIP3    H224576   4.937   0.686  17.086  0.0556  0.5448  0.8590
 1029TIP3   OH224577   6.390   3.033   1.590  0.0002 -0.0951  0.6025
 1029TIP3    H124578   6.348   2.959   1.545 -0.0387 -0.7964  1.7262
 1029TIP3    H224579   6.431   2.993   1.667  1.5729  0.7887  0.2624
 1030TIP3   OH224580   5.782   5.075   4.531 -0.2377  0.1193  0.5134
 1030TIP3    H124581   5.856   5.018   4.554  0.1258  0.8281  1.1555
 1030TIP3    H224582   5.795   5.095   4.439 -0.0782 -0.4028  0.4154
 1031TIP3   OH224583   6.170   6.588   5.013 -0.2773 -0.1288  0.3289
 1031TIP3    H124584   6.135   6.505   4.981 -0.2381 -0.0823  0.1657
 1031TIP3    H224585   6.178   6.576   5.108  2.0206 -1.1764  0.0687
 1032TIP3   OH224586   6.267   3.263   4.975 -0.5108  0.1491  0.5989
 1032TIP3    H124587   6.224   3.302   4.898 -0.2146  1.8147  1.2379
 1032TIP3    H224588   6.209   3.285   5.048  1.8863  3.5800  1.6941
 1033TIP3   OH224589   6.826   2.258   4.834  0.1116  0.0756 -0.7222
 1033TIP3    H124590   6.740   2.278   4.870  0.7593  1.3475  0.2261
 1033TIP3    H224591   6.834   2.163   4.840 -0.3866  0.1164  1.2102
 1034TIP3   OH224592   5.559   4.875   1.455  0.2292 -0.0727  0.0561
 1034TIP3    H124593   5.486   4.924   1.494  1.1544  1.1827  0.2915
 1034TIP3    H224594   5.526   4.786   1.447 -2.5750  1.0295 -2.9267
 1035TIP3   OH224595   4.301   0.847   2.952  0.3477 -0.0551 -0.0825
 1035TIP3    H124596   4.259   0.789   3.015 -0.6447 -1.4022 -1.9158
 1035TIP3    H224597   4.393   0.848   2.979 -0.0710 -0.4302  1.4760
 1036TIP3   OH224598   1.691   0.411  15.356 -0.2569 -0.8282 -0.2850
 1036TIP3    H124599   1.676   0.320  15.329  0.7922 -1.5710  1.4355
 1036TIP3    H224600   1.701   0.406  15.451 -0.7098  1.1848 -0.1019
 1037TIP3   OH224601   4.955   5.754  12.701 -0.3289  0.5232 -0.7459
 1037TIP3    H124602   4.978   5.763  12.608  3.2250  1.3057  0.0575
 1037TIP3    H224603   4.898   5.829  12.719 -0.1850  0.9797 -2.0474
 1038TIP3   OH224604   5.656   4.142  13.234 -0.7250  0.3051 -0.6472
 1038TIP3    H124605   5.744   4.131  13.268 -1.6172 -3.5256  0.9521
 1038TIP3    H224606   5.667   4.148  13.139  1.2439 -0.9465 -0.5538
 1039TIP3   OH224607   4.344   2.126  13.056  0.2230  0.3687 -0.4746
 1039TIP3    H124608   4.286   2.187  13.102 -1.1027 -0.5664 -0.8354
 1039TIP3    H224609   4.432   2.148  13.087 -0.3284  1.7329  0.2106
 1040TIP3   OH224610   5.042   3.024   5.917 -0.0249  0.3536 -0.4075
 1040TIP3    H124611   5.065   2.944   5.965  0.3692 -0.4876 -1.9322
 1040TIP3    H224612   5.102   3.026   5.843  0.1050  2.1970 -0.2973
 1041TIP3   OH224613   4.829   2.300  13.906  0.1577 -0.1884  0.1539
 1041TIP3    H124614   4.873   2.377  13.869 -0.5515  0.1063 -0.0741
 1041TIP3    H224615   4.773   2.334  13.975 -0.2103 -0.4917  0.0113
 1042TIP3   OH224616   5.565   3.358   2.170  0.1892  0.1658 -0.4978
 1042TIP3    H124617   5.473   3.380   2.163 -0.7760 -3.3726 -0.7989
 1042TIP3    H224618   5.567   3.276   2.220  3.3172  0.8137  0.6933
 1043TIP3   OH224619   0.377   6.457   0.296 -0.4753  0.3216  1.0441
 1043TIP3    H124620   0.291   6.446   0.257 -1.0231  1.8493  1.7396
 1043TIP3    H224621   0.434   6.480   0.222 -0.7114 -0.4021  0.6261
 1044TIP3   OH224622   3.192   6.336  14.723 -0.0245  0.1645 -0.3934
 1044TIP3    H124623   3.242   6.412  14.752  0.7130 -0.2415 -0.5699
 1044TIP3    H224624   3.101   6.357  14.745  0.0428  1.4868 -1.2894
 1045TIP3   OH224625   1.225   3.883   4.603 -0.1240  0.3539  0.1254
 1045TIP3    H124626   1.180   3.965   4.622 -0.1036  0.2977  0.4196
 1045TIP3    H224627   1.286   3.904   4.533 -0.1268  0.5848  0.1929
 1046TIP3   OH224628   1.326   4.282  16.221  0.2212 -0.2888 -0.2707
 1046TIP3    H124629   1.409   4.305  16.180 -0.1062  1.1886 -0.1500
 1046TIP3    H224630   1.262   4.283  16.149  0.2327 -1.1353 -0.3113
 1047TIP3   OH224631   4.283   4.149  15.476  0.0935  0.4173  0.3301
 1047TIP3    H124632   4.223   4.166  15.403 -0.4811  0.0499  0.7077
 1047TIP3    H224633   4.336   4.228  15.482 -0.1172  0.6068 -0.2412
 1048TIP3   OH224634   2.683   6.774   6.004  0.0106 -0.3386  0.1162
 1048TIP3    H124635   2.693   6.757   6.097 -0.5870  0.9036  0.4280
 1048TIP3    H224636   2.588   6.772   5.989 -0.0731  1.6460  0.0186
 1049TIP3   OH224637   1.596   5.993  13.736 -0.1981 -0.2953 -0.0269
 1049TIP3    H124638   1.623   5.970  13.648 -0.1239  1.1898 -0.4219
 1049TIP3    H224639   1.532   6.063  13.724  0.5925  0.6762  1.1165
 1050TIP3   OH224640   4.248   0.523  13.833  0.6383  1.0078 -0.7936
 1050TIP3    H124641   4.178   0.579  13.866  0.4498 -0.5338  1.6349
 1050TIP3    H224642   4.324   0.544  13.887  0.2691 -1.7227  1.0020
 1051TIP3   OH224643   2.231   0.811  11.663  0.2789 -0.3491  0.6832
 1051TIP3    H124644   2.272   0.897  11.669  2.2378 -1.0395 -1.4265
 1051TIP3    H224645   2.179   0.814  11.583  1.1156 -1.3973  0.0762
 1052TIP3   OH224646   1.558   1.297  15.285  0.3481 -0.7717  0.0755
 1052TIP3    H124647   1.645   1.337  15.285  0.1126 -0.2510  0.0481
 1052TIP3    H224648   1.508   1.348  15.349 -0.1432 -0.5985 -0.4372
 1053TIP3   OH224649   0.010   2.399  15.616 -0.2837  0.1397  0.5400
 1053TIP3    H124650  -0.041   2.444  15.683 -3.7781 -0.7359 -1.2982
 1053TIP3    H224651   0.024   2.465  15.548  0.5714  0.2010  0.7617
 1054TIP3   OH224652   4.694   2.029   0.233 -0.3141 -0.2862 -0.5645
 1054TIP3    H124653   4.725   1.991   0.315 -0.3845  0.0703 -0.3729
 1054TIP3    H224654   4.674   2.120   0.254 -1.3426 -0.4608 -0.7201
 1055TIP3   OH224655   3.828   0.100  16.910 -0.0404  0.3031 -0.6828
 1055TIP3    H124656   3.761   0.057  16.858  1.9814 -1.0046 -2.3635
 1055TIP3    H224657   3.886   0.141  16.846  1.0553  0.9900  0.6778
 1056TIP3   OH224658   6.540   0.766   0.183  0.3052  0.0144 -0.0786
 1056TIP3    H124659   6.506   0.761   0.094 -0.0584  0.0376  0.0557
 1056TIP3    H224660   6.625   0.810   0.174  0.3432 -0.1250 -0.4293
 1057TIP3   OH224661   2.201   6.264   4.842  0.7083  0.4323  0.5772
 1057TIP3    H124662   2.144   6.324   4.793 -0.8050  0.2859  2.0726
 1057TIP3    H224663   2.272   6.244   4.781 -0.6315  0.9172 -1.2517
 1058TIP3   OH224664   3.772   1.898   0.054 -0.3741 -0.3274 -0.0664
 1058TIP3    H124665   3.736   1.834   0.116  0.2365 -0.1392  0.4926
 1058TIP3    H224666   3.711   1.897  -0.020 -1.2010 -0.4366  0.6072
 1059TIP3   OH224667   0.370   1.619   4.998  0.2676 -0.3438  0.3209
 1059TIP3    H124668   0.334   1.560   5.064 -0.9758  0.5458  0.4717
 1059TIP3    H224669   0.384   1.563   4.921 -0.4889 -0.9137  0.5857
 1060TIP3   OH224670   5.117   2.603  10.818  0.8076  0.2567 -0.2417
 1060TIP3    H124671   5.201   2.626  10.859  1.3009  0.3909 -1.2866
 1060TIP3    H224672   5.114   2.658  10.740  0.7412 -1.2821 -1.3539
 1061TIP3   OH224673   3.708   4.619  15.505  0.1658  0.0910  0.5258
 1061TIP3    H124674   3.762   4.696  15.524 -0.0366  0.1011  1.0723
 1061TIP3    H224675   3.707   4.614  15.409 -0.3978  1.1783  0.4599
 1062TIP3   OH224676   5.873   0.004  15.334 -0.0796 -0.1847  0.0677
 1062TIP3    H124677   5.780  -0.002  15.313 -0.4627  1.6157  0.9806
 1062TIP3    H224678   5.875   0.046  15.421  1.5583 -1.3570  0.6584
 1063TIP3   OH224679   2.258   1.281  13.733  0.1143  0.2148  0.8261
 1063TIP3    H124680   2.244   1.327  13.650  1.0325  1.4583  1.3316
 1063TIP3    H224681   2.351   1.294  13.751  0.4198 -1.9025  0.9751
 1064TIP3   OH224682   3.095   0.051  16.450  0.0812 -0.1138  0.1259
 1064TIP3    H124683   3.039   0.029  16.524  1.3580 -0.1539  1.1024
 1064TIP3    H224684   3.137  -0.032  16.427 -1.5649 -0.5001 -1.7889
 1065TIP3   OH224685   3.507   6.453  11.611 -0.3432 -0.6768  0.1615
 1065TIP3    H124686   3.414   6.437  11.594 -0.4493  0.8831 -0.9448
 1065TIP3    H224687   3.515   6.548  11.613  1.3584 -0.7657 -0.5181
 1066TIP3   OH224688   3.284   2.286   6.481 -0.4193 -0.0071 -0.1263
 1066TIP3    H124689   3.251   2.212   6.431 -0.2210 -0.5376  0.5130
 1066TIP3    H224690   3.305   2.250   6.567 -2.0622  1.1505  0.8134
 1067TIP3   OH224691   4.986   5.022   0.292 -0.6488  0.0521  0.0317
 1067TIP3    H124692   4.949   5.027   0.381 -0.9554  3.5822 -0.1605
 1067TIP3    H224693   4.948   4.943   0.255 -0.0595 -1.9038  3.1787
 1068TIP3   OH224694   2.881   6.427   6.228 -0.0983 -0.2877  0.8235
 1068TIP3    H124695   2.974   6.450   6.230  0.0739 -0.9786  1.1661
 1068TIP3    H224696   2.835   6.511   6.229  0.5375  0.1694 -1.7226
 1069TIP3   OH224697   0.994   1.099  13.520 -0.1186  0.2423  0.1796
 1069TIP3    H124698   1.070   1.116  13.576  2.6081 -2.7931 -2.1748
 1069TIP3    H224699   1.015   1.146  13.439 -1.2871  0.1789 -0.1689
 1070TIP3   OH224700   1.758   1.572  14.912 -0.1205  0.0146  0.2842
 1070TIP3    H124701   1.771   1.631  14.838  0.8315 -0.2991  0.1884
 1070TIP3    H224702   1.845   1.536  14.930 -0.8259 -2.1107 -0.2919
 1071TIP3   OH224703   5.608   6.138  13.040  1.1710  0.0846  0.4394
 1071TIP3    H124704   5.681   6.100  12.991  0.7437 -0.0123 -0.1441
 1071TIP3    H224705   5.537   6.075  13.029  0.6080  0.7912 -0.1053
 1072TIP3   OH224706   3.555   3.173   3.032 -0.2425  0.7206 -0.0679
 1072TIP3    H124707   3.554   3.130   2.946  1.1972  1.9385 -0.7310
 1072TIP3    H224708   3.488   3.241   3.025 -1.3354 -0.2656  0.4045
 1073TIP3   OH224709   3.454   4.052   5.082  0.4444 -0.5126 -0.6677
 1073TIP3    H124710   3.470   3.960   5.102 -0.1083 -0.5938 -0.5679
 1073TIP3    H224711   3.405   4.085   5.158  2.9771  0.5917  0.5836
 1074TIP3   OH224712   6.048   3.255  14.867  0.5143 -0.1566 -0.3884
 1074TIP3    H124713   6.032   3.201  14.789 -1.1716  0.6089 -0.6118
 1074TIP3    H224714   6.022   3.199  14.940  1.9935 -0.8360 -0.3492
 1075TIP3   OH224715   4.834   6.117   2.995  0.2060  0.0713  0.5504
 1075TIP3    H124716   4.879   6.032   2.993 -0.9772 -0.6151  1.3376
 1075TIP3    H224717   4.893   6.174   3.045  0.3509 -0.7291  1.3346
 1076TIP3   OH224718   0.397   4.497  14.329 -0.0658 -0.3482  0.0303
 1076TIP3    H124719   0.444   4.525  14.408 -0.0286 -2.1653  0.7065
 1076TIP3    H224720   0.308   4.478  14.359 -1.2893  2.8471 -1.2003
 1077TIP3   OH224721   5.876   2.618  12.660 -0.3060  0.4782  0.2037
 1077TIP3    H124722   5.937   2.691  12.651  1.6658 -1.1823 -0.9505
 1077TIP3    H224723   5.923   2.554  12.714 -2.1150  0.1579  1.4740
 1078TIP3   OH224724   3.342   5.484   0.990 -0.6674  0.1396  0.1300
 1078TIP3    H124725   3.395   5.416   0.947  0.1460  0.4904  0.5530
 1078TIP3    H224726   3.330   5.451   1.079 -0.9524  0.1851  0.1098
 1079TIP3   OH224727   3.071   4.509  16.216 -0.3374  0.2771 -0.4768
 1079TIP3    H124728   3.145   4.453  16.238 -0.4650  0.3376  0.1214
 1079TIP3    H224729   3.041   4.543  16.300 -0.4050  1.0601 -0.8122
 1080TIP3   OH224730   2.869   6.537  11.946 -0.0229  0.2600  0.3053
 1080TIP3    H124731   2.796   6.588  11.981 -0.4269  1.2444 -1.8530
 1080TIP3    H224732   2.946   6.571  11.991 -0.4794  1.6504  0.0663
 1081TIP3   OH224733   5.011   3.625  16.831  0.0041  0.0558  0.0556
 1081TIP3    H124734   4.917   3.603  16.836 -0.0578  0.3737  0.3206
 1081TIP3    H224735   5.047   3.590  16.912  0.1547 -0.2432 -0.1396
 1082TIP3   OH224736   1.634   3.130  12.551 -0.4428 -0.2590  0.4252
 1082TIP3    H124737   1.575   3.117  12.625  1.8858  1.8853  2.8603
 1082TIP3    H224738   1.721   3.131  12.590  0.9911  0.1039 -2.5300
 1083TIP3   OH224739   2.762   4.599   2.006 -0.8655  0.2382 -0.3040
 1083TIP3    H124740   2.777   4.514   2.047 -1.7754 -1.0440 -2.4311
 1083TIP3    H224741   2.837   4.611   1.948  0.5931  2.1949  1.8228
 1084TIP3   OH224742   5.637   3.998   5.413  0.2511  0.1856  0.2639
 1084TIP3    H124743   5.668   4.087   5.432 -0.9202  0.8983 -0.9522
 1084TIP3    H224744   5.590   4.007   5.330 -0.3070 -1.4891  0.3700
 1085TIP3   OH224745   6.438   1.892  11.406  0.0846 -0.5365 -0.0724
 1085TIP3    H124746   6.473   1.836  11.475  0.5005  0.0095  0.1726
 1085TIP3    H224747   6.504   1.961  11.396  0.1515 -0.7496 -1.1958
 1086TIP3   OH224748   1.525   3.779  13.747 -0.2359  0.1077 -0.7127
 1086TIP3    H124749   1.617   3.753  13.748 -0.0920  0.6093 -0.6325
 1086TIP3    H224750   1.525   3.867  13.709 -0.5629  0.5598  0.2964
 1087TIP3   OH224751   6.702   1.047   4.724  0.0419  0.5544 -0.1976
 1087TIP3    H124752   6.628   1.076   4.671 -0.6121 -0.5175  0.0985
 1087TIP3    H224753   6.676   1.063   4.814  0.6245  1.1787 -0.1340
 1088TIP3   OH224754   2.764   0.502   4.549 -0.0695  0.3523  0.2309
 1088TIP3    H124755   2.732   0.557   4.477 -1.3285 -2.5806 -1.6670
 1088TIP3    H224756   2.828   0.444   4.507  1.4802  0.5146  2.2219
 1089TIP3   OH224757   0.540   0.690   3.753  0.2047 -0.0186  0.4058
 1089TIP3    H124758   0.572   0.681   3.663  0.3600  0.0563  0.4531
 1089TIP3    H224759   0.570   0.776   3.781  0.3735 -0.1447  0.6167
 1090TIP3   OH224760   0.980   1.330   1.283 -0.4645  0.0224 -0.2243
 1090TIP3    H124761   0.961   1.243   1.248  0.6686  0.1765 -1.3084
 1090TIP3    H224762   0.905   1.351   1.338 -1.0535 -1.3703 -0.4554
 1091TIP3   OH224763   6.664   6.350  10.858  0.2950 -0.6486 -0.1476
 1091TIP3    H124764   6.572   6.325  10.854  0.4659 -1.3046 -0.0862
 1091TIP3    H224765   6.682   6.386  10.771 -0.0481 -0.4204 -0.1247
 1092TIP3   OH224766   6.399   2.902  14.337  0.4265  0.2098 -0.1938
 1092TIP3    H124767   6.315   2.948  14.334 -1.0777 -1.9975  2.7571
 1092TIP3    H224768   6.410   2.867  14.248 -1.7025  0.6898 -0.7027
 1093TIP3   OH224769   0.165   2.343   0.061 -0.4736  0.3604 -0.1868
 1093TIP3    H124770   0.183   2.329   0.154 -0.6249  0.5906 -0.1219
 1093TIP3    H224771   0.112   2.267   0.035 -1.3740  0.8449  0.1844
 1094TIP3   OH224772   5.096   2.769   0.317 -0.1871  0.0317  0.3587
 1094TIP3    H124773   5.149   2.848   0.301  1.3511 -1.3572 -1.8143
 1094TIP3    H224774   5.012   2.787   0.274 -0.6827  1.2529  1.7117
 1095TIP3   OH224775   3.368   6.807   2.013  0.2442 -0.1558 -0.1724
 1095TIP3    H124776   3.418   6.888   2.005 -1.9866  1.1355 -2.6869
 1095TIP3    H224777   3.425   6.740   1.975  0.7784  0.9354 -1.3954
 1096TIP3   OH224778   4.562   1.723  16.378 -0.4410 -0.2109 -0.3965
 1096TIP3    H124779   4.615   1.697  16.303 -0.5150 -1.8159  0.0659
 1096TIP3    H224780   4.604   1.679  16.453 -0.8021  0.7517  0.3998
 1097TIP3   OH224781   3.291   5.066   5.144 -0.1745  0.0268  0.0025
 1097TIP3    H124782   3.375   5.093   5.107  0.8127 -0.5842  1.6657
 1097TIP3    H224783   3.278   4.976   5.114 -0.5488  0.3219 -0.7416
 1098TIP3   OH224784   6.257   5.479   4.695  0.2474 -0.7840 -0.6970
 1098TIP3    H124785   6.228   5.560   4.738  1.2662 -1.2288  0.9092
 1098TIP3    H224786   6.178   5.425   4.689 -0.0629 -0.4202 -0.0235
 1099TIP3   OH224787   3.919   6.402  11.800 -0.0316 -0.0213 -0.1250
 1099TIP3    H124788   3.829   6.380  11.821 -0.1692  0.2661 -0.3958
 1099TIP3    H224789   3.915   6.433  11.709  0.3835 -0.2811 -0.2325
 1100TIP3   OH224790   5.499   4.259  13.749  0.2962  0.2938  0.0834
 1100TIP3    H124791   5.499   4.164  13.753 -1.5598  0.1169 -2.1078
 1100TIP3    H224792   5.478   4.287  13.838 -0.4915 -1.3867  0.4596
 1101TIP3   OH224793   3.422   0.293  13.737  0.5089 -0.6191 -0.0773
 1101TIP3    H124794   3.367   0.342  13.798  1.6879 -0.3917  0.8386
 1101TIP3    H224795   3.384   0.312  13.651 -1.7316 -1.6686  0.6150
 1102TIP3   OH224796   4.219   1.950  14.268  0.1833  0.0838 -0.0714
 1102TIP3    H124797   4.287   1.974  14.331  1.5443 -2.0232 -0.6224
 1102TIP3    H224798   4.183   1.868  14.302 -1.0736  0.3967 -0.5768
 1103TIP3   OH224799   2.441   1.389   2.790 -0.2238  0.0568  0.1653
 1103TIP3    H124800   2.480   1.303   2.779  0.5780  0.2093  1.5039
 1103TIP3    H224801   2.354   1.372   2.828  0.8694 -0.1720  2.8328
 1104TIP3   OH224802   0.467   1.995  17.045  0.5533 -0.0824 -0.0961
 1104TIP3    H124803   0.475   2.059  17.116  0.3529  1.6127 -1.5342
 1104TIP3    H224804   0.400   2.032  16.987  0.9744 -1.2381 -1.3753
 1105TIP3   OH224805   6.728   6.790   0.846  0.0998  0.2863 -0.8012
 1105TIP3    H124806   6.735   6.882   0.872  0.0506  0.0154  0.2126
 1105TIP3    H224807   6.815   6.768   0.813  0.8511  0.0766  1.1427
 1106TIP3   OH224808   1.729   4.928  14.380 -0.7185 -0.5234 -0.3380
 1106TIP3    H124809   1.769   4.877  14.450  0.6469  1.4573  0.4185
 1106TIP3    H224810   1.795   4.929  14.310  0.3579  2.0595  0.5879
 1107TIP3   OH224811   3.859   5.655  11.233  0.7633  0.0908  0.1095
 1107TIP3    H124812   3.918   5.591  11.273  2.1935  1.2834  0.0003
 1107TIP3    H224813   3.914   5.702  11.171 -0.4358  0.9708 -0.3222
 1108TIP3   OH224814   1.317   6.378  13.307  0.0387  0.2807 -0.3580
 1108TIP3    H124815   1.280   6.434  13.376 -0.7242 -1.0443  0.3597
 1108TIP3    H224816   1.403   6.416  13.289  0.0532  0.9620  0.9796
 1109TIP3   OH224817   1.957   6.118  13.544 -0.1831 -0.2327  0.0594
 1109TIP3    H124818   1.983   6.046  13.486 -1.2980  0.1674 -0.9846
 1109TIP3    H224819   1.864   6.103  13.560 -0.6387  1.3696 -0.8239
 1110TIP3   OH224820   2.588   4.378  12.187  0.3187  0.5115 -0.5639
 1110TIP3    H124821   2.654   4.416  12.245  0.1492  2.0134 -1.2995
 1110TIP3    H224822   2.506   4.384  12.236  0.4739  0.0972 -0.2563
 1111TIP3   OH224823   6.043   6.126   3.733  0.7027  0.4265  0.6080
 1111TIP3    H124824   5.987   6.203   3.731  0.3750  0.1799 -0.8425
 1111TIP3    H224825   6.132   6.161   3.731  0.5594  0.7769  0.3211
 1112TIP3   OH224826   0.794   6.143   1.795 -0.0268  0.1308 -0.6965
 1112TIP3    H124827   0.786   6.052   1.764 -0.9211 -0.1182  0.2274
 1112TIP3    H224828   0.866   6.139   1.859 -1.0383 -0.2579  0.4554
 1113TIP3   OH224829   0.998   6.092   2.966 -0.3222  0.1422 -0.3701
 1113TIP3    H124830   1.005   6.066   3.057 -1.2743  1.9195  0.2646
 1113TIP3    H224831   1.066   6.042   2.921  2.1770  1.3645  1.7808
 1114TIP3   OH224832   2.757   1.360   0.412  0.2043 -0.5470  0.2263
 1114TIP3    H124833   2.791   1.432   0.359  0.3928 -0.7755  0.0325
 1114TIP3    H224834   2.692   1.317   0.356 -0.5535  0.0101  0.6708
 1115TIP3   OH224835   4.443   0.952  12.616  0.2044  0.2709 -0.3749
 1115TIP3    H124836   4.384   0.878  12.606  0.9954 -0.5027  0.4425
 1115TIP3    H224837   4.420   1.012  12.545 -1.9322  0.2708  0.2518
 1116TIP3   OH224838   3.974   2.794   5.829  0.2866 -0.8095  0.7521
 1116TIP3    H124839   3.956   2.821   5.919  0.8352  0.2715  0.5625
 1116TIP3    H224840   4.024   2.713   5.837 -1.7016 -2.0329  1.3474
 1117TIP3   OH224841   1.490   6.063  14.043 -0.0455  0.2799 -0.0257
 1117TIP3    H124842   1.460   5.974  14.056 -0.4670  0.5896  1.2672
 1117TIP3    H224843   1.537   6.061  13.959 -0.4758 -1.0255 -0.2542
 1118TIP3   OH224844   6.307   2.269   4.604 -0.0364 -0.2160  0.4578
 1118TIP3    H124845   6.285   2.212   4.678  2.5242 -1.1788  0.5701
 1118TIP3    H224846   6.387   2.313   4.631 -0.3359  1.1878 -0.8488
 1119TIP3   OH224847   5.980   5.263   2.187 -0.1766  0.1905 -0.5991
 1119TIP3    H124848   6.038   5.249   2.262 -1.3440  1.0491  0.5104
 1119TIP3    H224849   5.897   5.289   2.226 -0.8665  0.4904 -2.2026
 1120TIP3   OH224850   5.896   1.713   3.969 -0.3870 -0.8419  0.7594
 1120TIP3    H124851   5.947   1.647   3.924 -1.1516 -0.0768 -1.3318
 1120TIP3    H224852   5.857   1.667   4.044  2.1178 -1.7701  1.5947
 1121TIP3   OH224853   4.214   5.307  12.917 -0.2472  0.8598 -0.2939
 1121TIP3    H124854   4.173   5.326  12.832  0.9839  0.4796 -1.0019
 1121TIP3    H224855   4.287   5.369  12.922  0.4194  0.0703 -0.0720
 1122TIP3   OH224856   3.459   0.822   2.631  0.2229  0.0939 -0.6940
 1122TIP3    H124857   3.370   0.788   2.629  0.3615 -0.5988  1.7168
 1122TIP3    H224858   3.450   0.915   2.614 -0.7477 -0.2254 -2.0916
 1123TIP3   OH224859   4.597   4.333  10.607 -0.4652  0.0479 -0.0922
 1123TIP3    H124860   4.688   4.310  10.587 -0.2905 -0.3178  1.0667
 1123TIP3    H224861   4.603   4.408  10.666 -0.9319  0.3127 -0.3772
 1124TIP3   OH224862   6.724   3.828  14.581 -0.7653 -0.0930 -0.3387
 1124TIP3    H124863   6.703   3.738  14.604  0.8032 -0.5098 -0.4047
 1124TIP3    H224864   6.641   3.875  14.589 -1.1391 -1.0182  2.1326
 1125TIP3   OH224865   1.422   3.070  16.269 -0.1502 -0.0757 -0.1358
 1125TIP3    H124866   1.382   3.141  16.320  0.9864  0.3943  0.1253
 1125TIP3    H224867   1.471   3.115  16.200  0.7265 -0.5924  0.1358
 1126TIP3   OH224868   4.540   3.367  15.116 -0.0576 -0.3525  0.1734
 1126TIP3    H124869   4.585   3.421  15.180  0.9205 -1.0280  0.0707
 1126TIP3    H224870   4.486   3.429  15.067  2.7681  0.9837 -1.4903
 1127TIP3   OH224871   1.319   6.769  12.764 -0.4777 -0.0801  0.1938
 1127TIP3    H124872   1.242   6.784  12.709 -0.5807 -1.3160 -0.0289
 1127TIP3    H224873   1.370   6.704  12.715  0.6405  0.6152  0.4052
 1128TIP3   OH224874   1.429   2.096   0.497  0.2124  0.0538 -0.1941
 1128TIP3    H124875   1.404   2.116   0.587  0.6610  0.7944 -0.2310
 1128TIP3    H224876   1.436   2.000   0.495 -0.6155 -0.0272  0.3331
 1129TIP3   OH224877   4.524   5.429  13.176  0.3837  0.5550 -0.2683
 1129TIP3    H124878   4.611   5.412  13.139  0.6611 -1.4852  1.1819
 1129TIP3    H224879   4.534   5.512  13.222  1.4882  0.4850 -0.3421
 1130TIP3   OH224880   5.266   2.970  17.026 -0.1110 -0.2680 -0.4902
 1130TIP3    H124881   5.347   2.942  17.070 -0.4688  1.9037  1.7977
 1130TIP3    H224882   5.197   2.947  17.087 -0.7094  2.2359 -0.1324
 1131TIP3   OH224883   6.225   4.147   4.442  0.3366 -0.0276  0.4611
 1131TIP3    H124884   6.210   4.061   4.481 -0.6225  0.4481  1.1715
 1131TIP3    H224885   6.318   4.164   4.457  1.1185 -1.9175 -1.7406
 1132TIP3   OH224886   5.077   5.095   3.340 -0.5369  0.4005  0.1017
 1132TIP3    H124887   5.158   5.093   3.289 -1.0709  0.3855 -0.7719
 1132TIP3    H224888   5.095   5.039   3.416  0.2009  0.2343 -0.1828
 1133TIP3   OH224889   1.084   5.246  16.341  0.0866 -0.0362 -0.0679
 1133TIP3    H124890   1.053   5.289  16.261  1.4414  1.1844  0.0032
 1133TIP3    H224891   1.069   5.311  16.410 -0.3371 -0.7650  0.5342
 1134TIP3   OH224892   0.059   5.387  11.665  0.0594  0.0094 -0.7790
 1134TIP3    H124893   0.024   5.416  11.580 -0.1111  2.6058  0.0864
 1134TIP3    H224894  -0.019   5.368  11.717  0.0728  0.5704 -0.5414
 1135TIP3   OH224895   1.969   3.516   1.612 -0.0577  0.5115 -0.5195
 1135TIP3    H124896   2.020   3.451   1.660  0.7566  0.2798 -1.6454
 1135TIP3    H224897   2.035   3.574   1.574 -0.6994  0.9334 -0.9981
 1136TIP3   OH224898   1.871   1.819   1.176  0.4950 -0.1151 -0.0515
 1136TIP3    H124899   1.883   1.885   1.108  1.4242 -0.5323 -0.3185
 1136TIP3    H224900   1.812   1.859   1.240  0.5368  0.7183 -0.5352
 1137TIP3   OH224901   3.568   1.192  14.811  0.2375  0.9778  0.0539
 1137TIP3    H124902   3.631   1.120  14.809  0.1950  0.9101  0.9165
 1137TIP3    H224903   3.619   1.270  14.790  0.5358  0.8653  0.3573
 1138TIP3   OH224904   3.266   4.098  14.984  0.0968 -0.6195  0.3878
 1138TIP3    H124905   3.223   4.069  15.065 -1.9943 -0.9408 -0.7872
 1138TIP3    H224906   3.248   4.028  14.921  1.3652 -0.1942 -0.4922
 1139TIP3   OH224907   3.247   5.953  16.866 -0.1435 -0.0011  0.0388
 1139TIP3    H124908   3.303   5.980  16.939  0.4195  1.7056 -0.9538
 1139TIP3    H224909   3.159   5.948  16.903  0.2952 -0.2787  1.0743
 1140TIP3   OH224910   2.803   2.642   5.270  0.3493 -0.0145  0.4817
 1140TIP3    H124911   2.827   2.555   5.303  1.4204  0.5869  1.3288
 1140TIP3    H224912   2.818   2.701   5.344 -0.3255  0.9119 -0.0984
 1141TIP3   OH224913   5.717   5.005   5.771 -0.0390  0.0323 -0.1713
 1141TIP3    H124914   5.795   5.056   5.752 -0.3772  0.1506 -1.2803
 1141TIP3    H224915   5.662   5.014   5.694 -1.4140  0.4185  0.8124
 1142TIP3   OH224916   6.258   0.550  11.680 -0.0644 -0.4140 -0.8609
 1142TIP3    H124917   6.208   0.621  11.640 -0.7555  0.4128  1.3320
 1142TIP3    H224918   6.197   0.476  11.682 -1.1767  0.4685  1.4204
 1143TIP3   OH224919   6.573   3.147   5.610  0.2360 -0.0896 -0.1893
 1143TIP3    H124920   6.565   3.202   5.532 -0.6924 -0.4860 -0.3953
 1143TIP3    H224921   6.634   3.078   5.586  2.1346  1.3317  0.3754
 1144TIP3   OH224922   3.352   2.022  16.405 -0.8077  0.4733 -0.6380
 1144TIP3    H124923   3.442   1.996  16.388 -0.4757  1.2081 -0.0792
 1144TIP3    H224924   3.354   2.059  16.494 -1.4778  1.2549 -0.9326
 1145TIP3   OH224925   1.299   3.468   1.133 -0.0172 -0.8676  0.0863
 1145TIP3    H124926   1.284   3.519   1.054 -0.2766 -0.9280  0.0953
 1145TIP3    H224927   1.261   3.382   1.114  1.9285 -1.6313 -0.5703
 1146TIP3   OH224928   1.022   5.631  15.567 -0.0704  0.1143  0.0477
 1146TIP3    H124929   0.997   5.585  15.648  0.0991 -0.7848 -0.4013
 1146TIP3    H224930   1.062   5.713  15.598 -0.0893 -0.1740  0.8729
 1147TIP3   OH224931   6.245   5.763  15.702 -0.0651 -0.4141 -0.8713
 1147TIP3    H124932   6.313   5.806  15.649 -0.1258  0.6463 -0.1208
 1147TIP3    H224933   6.210   5.833  15.756 -0.2390 -1.4145  0.3444
 1148TIP3   OH224934   5.150   5.359  14.342 -0.4938  0.1050 -0.0792
 1148TIP3    H124935   5.190   5.310  14.414  1.3310 -0.4323 -1.3913
 1148TIP3    H224936   5.061   5.378  14.373 -0.6483 -2.3634  1.2715
 1149TIP3   OH224937   6.355   2.399   2.588  0.2072 -0.2574  0.1266
 1149TIP3    H124938   6.390   2.427   2.503  0.3604 -0.2550  0.1918
 1149TIP3    H224939   6.320   2.312   2.571  1.3674 -0.7858  0.3607
 1150TIP3   OH224940   3.098   4.838  11.544  0.2417 -0.2912  0.3849
 1150TIP3    H124941   3.024   4.789  11.581  0.9935 -0.6803  1.3978
 1150TIP3    H224942   3.057   4.899  11.482 -0.7037 -2.5782 -1.4072
 1151TIP3   OH224943   0.707   2.405  15.857 -0.4131 -0.1564  0.5042
 1151TIP3    H124944   0.750   2.365  15.933 -0.2991 -0.3144  0.3570
 1151TIP3    H224945   0.766   2.389  15.784  0.7705  2.2891  0.8367
 1152TIP3   OH224946   3.671   0.716   3.993 -0.4178  0.8364 -0.0283
 1152TIP3    H124947   3.609   0.788   3.987  0.1287  1.2397 -1.2603
 1152TIP3    H224948   3.685   0.689   3.902  0.2508 -0.0757  0.3260
 1153TIP3   OH224949   5.543   4.101   2.832  0.0770  0.5439  0.1642
 1153TIP3    H124950   5.569   4.150   2.911 -2.2883  0.1222  1.3002
 1153TIP3    H224951   5.626   4.078   2.790  1.3631  2.8566  1.2100
 1154TIP3   OH224952   0.115   5.263   1.103  0.1590  0.2694  0.5719
 1154TIP3    H124953   0.031   5.296   1.136 -1.2156 -1.9130 -0.5210
 1154TIP3    H224954   0.132   5.185   1.156  0.3508 -0.5535 -0.6841
 1155TIP3   OH224955   0.505   2.474  13.378  0.3827 -0.0535 -0.9450
 1155TIP3    H124956   0.465   2.422  13.309  0.0298 -0.5774 -0.3529
 1155TIP3    H224957   0.434   2.495  13.438  0.7354  0.1564 -0.5889
 1156TIP3   OH224958   1.688   2.714   6.612  0.4325  0.0131 -0.5154
 1156TIP3    H124959   1.706   2.627   6.648 -0.9385 -0.3468 -0.6566
 1156TIP3    H224960   1.633   2.756   6.678  0.0018  0.2815 -1.0383
 1157TIP3   OH224961   1.172   0.961   0.056  0.3130 -0.0908  0.1389
 1157TIP3    H124962   1.097   1.012   0.086 -0.4685 -0.6477 -0.8169
 1157TIP3    H224963   1.204   1.008  -0.021  0.5612 -0.1914  0.1802
 1158TIP3   OH224964   6.565   4.817   2.757  0.6618 -0.4857 -0.0511
 1158TIP3    H124965   6.612   4.894   2.726  0.6644 -0.5496 -0.2067
 1158TIP3    H224966   6.593   4.746   2.698  0.1447 -0.4583 -0.3322
 1159TIP3   OH224967   2.735   2.534   3.994 -0.6731  0.0282 -0.1534
 1159TIP3    H124968   2.687   2.616   4.004 -1.0791 -0.2501  0.1886
 1159TIP3    H224969   2.817   2.549   4.041 -1.2034 -0.1312  0.8503
 1160TIP3   OH224970   1.995   3.975   2.261 -0.2785 -1.1009 -0.0496
 1160TIP3    H124971   2.021   4.015   2.178 -3.4869 -0.6499 -0.9742
 1160TIP3    H224972   2.027   3.885   2.254  1.6088 -0.4340 -0.6716
 1161TIP3   OH224973   1.002   0.578  12.724 -0.2201  0.3792  0.2249
 1161TIP3    H124974   1.003   0.487  12.755  0.9295  0.0525 -0.7018
 1161TIP3    H224975   0.910   0.596  12.706 -0.3880 -0.8932 -0.3309
 1162TIP3   OH224976   2.050   5.655   3.626 -0.0061 -0.0470 -0.0295
 1162TIP3    H124977   2.119   5.709   3.665 -0.5485 -0.1391  1.1036
 1162TIP3    H224978   1.975   5.667   3.684  0.0681 -2.5706  0.7287
 1163TIP3   OH224979   3.861   1.626  15.141  0.4682 -0.0486 -0.2104
 1163TIP3    H124980   3.926   1.679  15.188  0.7759 -1.4816  1.0822
 1163TIP3    H224981   3.807   1.589  15.211 -1.6158  0.8919 -1.2444
 1164TIP3   OH224982   2.806   3.958  15.057  0.0575 -0.0876 -0.0998
 1164TIP3    H124983   2.864   4.031  15.038  0.2279 -0.3040 -0.4218
 1164TIP3    H224984   2.803   3.908  14.975 -1.2623  0.3863 -0.3624
 1165TIP3   OH224985   1.928   6.794  11.176 -0.1151  0.1726  0.1750
 1165TIP3    H124986   1.990   6.772  11.106  2.9764  2.3849  1.9822
 1165TIP3    H224987   1.859   6.728  11.168  1.1471 -0.9536 -3.5614
 1166TIP3   OH224988   4.058   0.193  17.161  0.0387 -0.5956 -0.8911
 1166TIP3    H124989   4.009   0.111  17.161  1.1826 -1.3108 -1.5745
 1166TIP3    H224990   4.002   0.255  17.209  0.2427 -2.4086  1.8739
 1167TIP3   OH224991   1.619   5.224   2.001  0.2002 -0.1285 -0.0950
 1167TIP3    H124992   1.537   5.221   2.051  1.0892  0.6802  1.4967
 1167TIP3    H224993   1.609   5.157   1.934 -1.1093 -1.2321  1.1318
 1168TIP3   OH224994   4.957   6.726   0.074  0.5447 -0.1051  0.1051
 1168TIP3    H124995   4.974   6.746   0.167  0.4282  0.6523 -0.0270
 1168TIP3    H224996   5.044   6.724   0.035  0.5921 -0.3782  0.2252
 1169TIP3   OH224997   6.553   5.433  10.806 -0.4405 -0.3708 -0.1112
 1169TIP3    H124998   6.553   5.341  10.782  0.6541 -0.2734 -0.5330
 1169TIP3    H224999   6.510   5.477  10.732 -1.2644 -0.5662  0.2413
 1170TIP3   OH225000   6.799   0.615  16.432 -0.4580  0.1675  0.3838
 1170TIP3    H125001   6.857   0.559  16.380 -1.9429 -0.4115 -0.7453
 1170TIP3    H225002   6.755   0.554  16.492 -0.5746  0.4355  0.5701
 1171TIP3   OH225003   0.247   2.695   2.547 -0.1944  0.0380 -0.2616
 1171TIP3    H125004   0.296   2.742   2.614 -0.3100 -0.1290 -0.0587
 1171TIP3    H225005   0.309   2.684   2.475 -0.0269  0.0960 -0.1259
 1172TIP3   OH225006   0.071   4.508  11.397  0.4790 -0.4590 -0.3222
 1172TIP3    H125007   0.066   4.522  11.491 -0.9548  0.6495 -0.5221
 1172TIP3    H225008   0.164   4.491  11.380  0.9068  0.2371  1.1656
 1173TIP3   OH225009   4.145   5.607   5.186  0.0972 -0.2992 -0.0852
 1173TIP3    H125010   4.162   5.512   5.188  1.7478 -0.0290 -0.1744
 1173TIP3    H225011   4.139   5.628   5.093 -0.6128 -0.3478 -0.0606
 1174TIP3   OH225012   3.585   5.164   1.368  0.5253 -0.0086  0.2338
 1174TIP3    H125013   3.568   5.188   1.277  0.0786  1.4946  0.6892
 1174TIP3    H225014   3.657   5.221   1.395 -0.1676  0.4305  1.1814
 1175TIP3   OH225015   5.287   5.773   0.041 -0.1835  0.0992  0.1888
 1175TIP3    H125016   5.355   5.707   0.054  0.5774  0.8147 -0.0886
 1175TIP3    H225017   5.222   5.731  -0.015  1.0690  0.1016 -1.3102
 1176TIP3   OH225018   5.411   6.455   5.107 -0.3021  0.6971  0.1890
 1176TIP3    H125019   5.460   6.399   5.167  0.1179  2.1714  1.2888
 1176TIP3    H225020   5.343   6.398   5.071 -1.0708 -0.0771  2.6594
 1177TIP3   OH225021   0.481   3.691  14.957  0.1244 -0.2172 -0.0436
 1177TIP3    H125022   0.429   3.679  15.037  0.8668 -0.3012  0.4355
 1177TIP3    H225023   0.529   3.609  14.948 -1.8245 -1.2447 -1.9995
 1178TIP3   OH225024   6.779   0.629   4.919 -0.4967 -0.2418 -0.5620
 1178TIP3    H125025   6.808   0.565   4.853  0.4557 -0.5425  0.1272
 1178TIP3    H225026   6.857   0.680   4.939 -0.0002 -1.9511  2.3391
 1179TIP3   OH225027   1.659   3.986  12.382 -0.4272 -0.4159 -0.2584
 1179TIP3    H125028   1.660   4.074  12.344 -0.5414 -0.1182  0.4213
 1179TIP3    H225029   1.723   3.937  12.330 -0.2191  0.1176 -0.5164
 1180TIP3   OH225030   0.056   1.615   0.342 -0.5920 -0.4137 -0.7303
 1180TIP3    H125031  -0.034   1.587   0.360 -0.6132  0.3282  0.4041
 1180TIP3    H225032   0.053   1.711   0.350  0.3192 -0.3943 -0.5828
 1181TIP3   OH225033   0.396   4.045   4.797 -0.1459  0.0987  0.5064
 1181TIP3    H125034   0.452   4.122   4.783  0.3418 -0.3324  0.0620
 1181TIP3    H225035   0.423   4.011   4.883  1.2184 -0.8802 -0.2820
 1182TIP3   OH225036   5.576   1.854   0.566 -0.0087  0.4058 -0.2866
 1182TIP3    H125037   5.629   1.898   0.632 -0.4087 -0.3992  0.6002
 1182TIP3    H225038   5.618   1.875   0.483  1.2076  0.4819  0.3283
 1183TIP3   OH225039   3.652   0.849   5.393 -0.2120 -0.4491  0.2009
 1183TIP3    H125040   3.663   0.762   5.354 -0.2436 -1.2434  1.9006
 1183TIP3    H225041   3.558   0.865   5.388 -0.0242  0.3795 -1.8617
 1184TIP3   OH225042   0.460   6.529   3.815  0.2657  0.6689  0.3695
 1184TIP3    H125043   0.380   6.477   3.817  0.3065  0.6084  0.4347
 1184TIP3    H225044   0.431   6.619   3.826  0.0197  0.8596 -1.4443
 1185TIP3   OH225045   4.375   0.662  11.930  0.1427  0.9211  0.0714
 1185TIP3    H125046   4.281   0.664  11.950  0.4081 -0.4321  1.6356
 1185TIP3    H225047   4.418   0.666  12.015  1.4389 -0.8657 -0.4356
 1186TIP3   OH225048   4.509   5.776   1.322  0.5395 -0.2601  0.4097
 1186TIP3    H125049   4.423   5.812   1.299 -0.1257 -1.4885  0.8829
 1186TIP3    H225050   4.500   5.748   1.413  1.5597 -0.0851  0.5762
 1187TIP3   OH225051   0.861   3.576   0.697 -0.0053  0.3923 -0.1859
 1187TIP3    H125052   0.802   3.505   0.672  3.1018 -1.1662 -4.1576
 1187TIP3    H225053   0.846   3.644   0.632  0.6419  1.1909  0.4684
 1188TIP3   OH225054   1.104   4.399  13.416  0.4653  0.3756 -0.4264
 1188TIP3    H125055   1.178   4.456  13.396  0.1531  0.5643 -1.0691
 1188TIP3    H225056   1.031   4.459  13.431  0.1270  0.1512 -1.1338
 1189TIP3   OH225057   1.881   3.685  13.450  0.5718  0.4277  0.1670
 1189TIP3    H125058   1.789   3.708  13.435  0.9872  2.1219 -0.0191
 1189TIP3    H225059   1.900   3.618  13.385 -0.6471 -0.2951  0.5171
 1190TIP3   OH225060   1.559   5.379  13.531  0.6722 -0.5288  0.3119
 1190TIP3    H125061   1.483   5.437  13.520  1.3481  0.3403  0.1546
 1190TIP3    H225062   1.586   5.359  13.441  1.4151  0.2166  0.3629
 1191TIP3   OH225063   4.350   1.523  14.666  0.6328 -0.1808 -0.0189
 1191TIP3    H125064   4.383   1.601  14.622  0.1629 -0.5156 -0.9928
 1191TIP3    H225065   4.300   1.557  14.741 -1.6865  0.6439 -1.7929
 1192TIP3   OH225066   5.332   4.757  15.737 -0.4871 -0.1807  0.6796
 1192TIP3    H125067   5.364   4.817  15.669 -1.0992  1.7384  1.9901
 1192TIP3    H225068   5.251   4.721  15.700 -0.3287  0.1157  0.0148
 1193TIP3   OH225069   3.930   6.470  14.682 -0.2049  0.9300 -0.5168
 1193TIP3    H125070   3.988   6.405  14.721 -1.0339  0.8638  0.6549
 1193TIP3    H225071   3.890   6.426  14.607  0.1587  0.4976 -0.4560
 1194TIP3   OH225072   1.490   4.322  14.240  0.0877 -0.4049  0.4037
 1194TIP3    H125073   1.423   4.294  14.178  1.2715  0.4545 -1.3778
 1194TIP3    H225074   1.444   4.333  14.323 -1.7936 -0.5910 -0.5634
 1195TIP3   OH225075   3.244   3.037   3.026 -0.1269  0.6903  0.2056
 1195TIP3    H125076   3.274   3.127   3.042  0.7922  0.6412 -1.1268
 1195TIP3    H225077   3.316   2.982   3.058 -0.6216  0.4220  0.8761
 1196TIP3   OH225078   3.388   4.048   0.406 -0.2496  0.0895 -0.4370
 1196TIP3    H125079   3.332   4.073   0.480 -1.2602 -0.7099 -0.8948
 1196TIP3    H225080   3.477   4.070   0.434 -0.6922  0.4935  0.7112
 1197TIP3   OH225081   6.685   5.918  16.379  0.3659  0.4475  0.6183
 1197TIP3    H125082   6.733   5.847  16.422 -0.4949 -0.7030 -0.2423
 1197TIP3    H225083   6.743   5.948  16.310  0.0109 -0.7306 -0.2287
 1198TIP3   OH225084   5.828   3.148  14.227 -0.0044  0.0799 -0.2618
 1198TIP3    H125085   5.765   3.200  14.177  0.7272 -0.4208 -1.7649
 1198TIP3    H225086   5.908   3.150  14.174  1.0245  0.0543  1.2226
 1199TIP3   OH225087   0.094   6.168   3.012  0.2431  0.4359 -0.4662
 1199TIP3    H125088   0.055   6.086   2.980  1.2672  1.2189 -4.2399
 1199TIP3    H225089   0.187   6.148   3.020  0.4165  1.0768 -0.8604
 1200TIP3   OH225090   0.163   6.780  12.004  0.3524  0.1483  0.0520
 1200TIP3    H125091   0.114   6.845  11.953 -1.3443 -1.3036 -0.2983
 1200TIP3    H225092   0.155   6.809  12.094 -0.8825  0.1729 -0.0393
 1201TIP3   OH225093   1.353   3.439   3.194 -0.6802 -0.0104  0.6313
 1201TIP3    H125094   1.399   3.519   3.219  1.1103 -0.5628 -0.7083
 1201TIP3    H225095   1.368   3.378   3.266 -0.1415  0.1374  0.6400
 1202TIP3   OH225096   1.670   6.782  15.955  0.3526 -0.1645 -0.4223
 1202TIP3    H125097   1.727   6.777  15.877  3.7703  0.3876  1.8180
 1202TIP3    H225098   1.661   6.691  15.984  0.2956 -0.2288 -0.6390
 1203TIP3   OH225099   4.805   5.598   0.584  0.6595  0.0388 -0.1604
 1203TIP3    H125100   4.812   5.689   0.556 -1.0844 -0.2116 -1.6818
 1203TIP3    H225101   4.710   5.584   0.594  0.8328 -1.8028 -0.7504
 1204TIP3   OH225102   1.437   6.781  16.632  0.0079  0.1187  0.3197
 1204TIP3    H125103   1.462   6.814  16.546 -0.3701 -0.4624 -0.0270
 1204TIP3    H225104   1.486   6.699  16.642 -0.3420 -0.0829  0.4278
 1205TIP3   OH225105   2.313   5.274   4.481  0.5668  0.2612  0.6031
 1205TIP3    H125106   2.389   5.250   4.535  1.2721  0.7980 -0.1397
 1205TIP3    H225107   2.301   5.200   4.422  0.7211  0.3234  0.4942
 1206TIP3   OH225108   5.029   3.477   5.768  0.0152  0.1961  0.2630
 1206TIP3    H125109   5.095   3.429   5.818 -1.0224 -2.3050 -0.5756
 1206TIP3    H225110   4.977   3.523   5.835  1.1765  0.3425  1.0967
 1207TIP3   OH225111   6.191   4.064   4.184  0.6408 -0.4381  0.2836
 1207TIP3    H125112   6.191   4.105   4.271  0.4475  0.3878 -0.1007
 1207TIP3    H225113   6.250   4.118   4.132  0.3344 -0.6109 -0.2493
 1208TIP3   OH225114   2.498   1.169   4.504 -0.2199  0.5656 -0.0803
 1208TIP3    H125115   2.466   1.258   4.522 -1.3641  0.4376 -1.3074
 1208TIP3    H225116   2.593   1.179   4.495  0.5940  0.7096  5.2749
 1209TIP3   OH225117   1.388   3.172  12.991 -0.0855 -0.7854 -0.1161
 1209TIP3    H125118   1.320   3.193  12.927 -1.7761 -1.5138  1.3266
 1209TIP3    H225119   1.462   3.140  12.939 -1.7025 -2.2356 -1.6836
 1210TIP3   OH225120   4.923   6.467  16.100 -0.1506  0.0246 -0.1970
 1210TIP3    H125121   4.989   6.419  16.151 -0.1808  0.1329 -0.0530
 1210TIP3    H225122   4.937   6.439  16.010 -0.9429 -1.1792  0.0132
 1211TIP3   OH225123   4.511   2.148  13.558  0.2526 -0.3079 -0.0096
 1211TIP3    H125124   4.459   2.085  13.508  0.7663  0.4624 -1.5722
 1211TIP3    H225125   4.560   2.197  13.492 -1.6434  3.1633  0.9109
 1212TIP3   OH225126   5.188   1.811  12.411  1.1493  0.5735 -0.2053
 1212TIP3    H125127   5.192   1.717  12.393  1.9370  0.5509  0.0765
 1212TIP3    H225128   5.134   1.817  12.490 -1.2630  0.5849 -1.7304
 1213TIP3   OH225129   3.672   6.003   3.015  0.9132 -0.1466  0.6196
 1213TIP3    H125130   3.643   6.093   3.029  0.7971  0.3792 -2.4116
 1213TIP3    H225131   3.605   5.949   3.058 -0.4524  1.1704  0.2176
 1214TIP3   OH225132   4.464   0.501   2.788 -0.1597 -0.0468 -0.1348
 1214TIP3    H125133   4.397   0.460   2.843 -0.9374  0.2209 -0.8664
 1214TIP3    H225134   4.518   0.551   2.849 -2.7774  2.7088  0.1032
 1215TIP3   OH225135   5.740   1.818  12.442  0.1673 -0.0186 -0.2183
 1215TIP3    H125136   5.749   1.851  12.352 -1.1168  1.2191  0.0758
 1215TIP3    H225137   5.646   1.800  12.451  0.4625 -1.2575  0.5101
 1216TIP3   OH225138   2.371   0.432  12.305  0.1919  0.5156  0.2346
 1216TIP3    H125139   2.349   0.425  12.212  1.2836  0.2691 -0.0156
 1216TIP3    H225140   2.462   0.460  12.306  0.4360 -0.2743  1.2350
 1217TIP3   OH225141   2.959   2.467  10.598 -0.1058  0.0642  0.3308
 1217TIP3    H125142   3.034   2.447  10.543  0.5448 -0.1002  1.2556
 1217TIP3    H225143   2.976   2.556  10.630  0.1597 -0.3129  1.2658
 1218TIP3   OH225144   1.250   3.429  11.793 -0.1604  0.6283 -0.6766
 1218TIP3    H125145   1.341   3.403  11.781 -0.5447 -1.4816  0.5605
 1218TIP3    H225146   1.205   3.393  11.716 -0.1961  0.3608 -0.5292
 1219TIP3   OH225147   1.254   3.740  12.828 -0.9918  0.7677  0.4242
 1219TIP3    H125148   1.277   3.649  12.810 -1.8278  0.5479  0.4269
 1219TIP3    H225149   1.293   3.758  12.914 -0.2816  0.6136  0.1330
 1220TIP3   OH225150   0.547   3.217  16.346  0.2792  0.2130 -0.2384
 1220TIP3    H125151   0.495   3.139  16.361 -2.0317  1.2515 -2.1499
 1220TIP3    H225152   0.546   3.263  16.430 -1.7644  0.0620 -0.1202
 1221TIP3   OH225153   2.219   3.451   3.309  0.1322  0.3350  0.0418
 1221TIP3    H125154   2.223   3.358   3.290  1.5644  0.7097 -1.7812
 1221TIP3    H225155   2.195   3.456   3.401 -1.9396 -1.7716 -0.2968
 1222TIP3   OH225156   1.950   6.181  11.393 -0.0138  0.4341 -0.5303
 1222TIP3    H125157   2.018   6.232  11.348  0.5815  0.1132 -0.0056
 1222TIP3    H225158   1.924   6.114  11.330  0.8241 -0.0197 -0.4041
 1223TIP3   OH225159   0.179   5.750   5.126  0.1491  0.3654  0.2600
 1223TIP3    H125160   0.103   5.807   5.115  1.2984  1.6587 -1.3782
 1223TIP3    H225161   0.227   5.788   5.199  0.0448  0.4889  0.2644
 1224TIP3   OH225162   2.325   0.428  15.401 -0.4945 -0.3142 -0.1340
 1224TIP3    H125163   2.240   0.433  15.357  0.5706  1.5698 -2.1881
 1224TIP3    H225164   2.378   0.495  15.357  1.7362 -0.7114  1.7960
 1225TIP3   OH225165   2.800   3.451   1.827  0.3425 -0.7928 -0.2276
 1225TIP3    H125166   2.769   3.541   1.826 -0.2130 -0.9640  0.7600
 1225TIP3    H225167   2.751   3.407   1.757  0.1494 -0.4827 -0.2863
 1226TIP3   OH225168   1.608   5.242  14.233  0.9251 -0.0341  0.2731
 1226TIP3    H125169   1.569   5.162  14.267  0.8708  0.1097  0.5513
 1226TIP3    H225170   1.666   5.213  14.162  0.5966 -0.2803  0.1015
 1227TIP3   OH225171   3.246   1.615   4.888  0.1065  0.4974  0.2248
 1227TIP3    H125172   3.228   1.525   4.916 -0.3112  0.1915 -0.9268
 1227TIP3    H225173   3.211   1.619   4.799  1.8238  1.2320 -0.4724
 1228TIP3   OH225174   6.444   1.511   3.121  0.2041  0.3062  0.2173
 1228TIP3    H125175   6.484   1.460   3.051 -1.2703 -1.1101  0.3454
 1228TIP3    H225176   6.395   1.580   3.076 -1.3610 -1.0466 -0.2670
 1229TIP3   OH225177   0.511   4.064  12.586  0.1121  0.2822 -0.0170
 1229TIP3    H125178   0.591   4.058  12.639  0.0629  0.7922  0.1204
 1229TIP3    H225179   0.543   4.075  12.496  0.1944 -0.0180 -0.0270
 1230TIP3   OH225180   1.326   5.129  11.910  0.5895 -0.0897  0.5647
 1230TIP3    H125181   1.391   5.129  11.840  0.1948 -0.4459  0.1957
 1230TIP3    H225182   1.248   5.091  11.871  1.0208 -2.4239  1.7957
 1231TIP3   OH225183   5.312   4.779   6.250  0.4849  0.2331 -0.3410
 1231TIP3    H125184   5.406   4.793   6.262  0.5699 -0.4137 -0.1813
 1231TIP3    H225185   5.305   4.722   6.173  0.0726  2.2328 -1.8617
 1232TIP3   OH225186   4.906   5.240   1.608  0.4884  0.0265  0.3340
 1232TIP3    H125187   4.988   5.259   1.563  0.5301  0.5858  0.6341
 1232TIP3    H225188   4.931   5.230   1.700  0.2321  0.1336  0.4153
 1233TIP3   OH225189   4.712   4.612  14.412  0.0180 -0.3751  0.4730
 1233TIP3    H125190   4.704   4.706  14.399 -2.2659 -0.6118 -0.3463
 1233TIP3    H225191   4.801   4.599  14.446  0.5823  1.9841  0.0362
 1234TIP3   OH225192   0.633   6.192  13.800 -0.7693  0.3281  0.6891
 1234TIP3    H125193   0.577   6.160  13.871 -2.5611  2.5329  0.3996
 1234TIP3    H225194   0.669   6.274  13.834  0.7270 -0.0652  0.1068
 1235TIP3   OH225195   0.483   3.783   2.093 -0.3456 -0.0799 -0.4860
 1235TIP3    H125196   0.449   3.752   2.177  0.5353 -0.4943 -0.2650
 1235TIP3    H225197   0.572   3.748   2.090  0.1922  1.2910 -0.8700
 1236TIP3   OH225198   4.260   3.703  16.327 -0.7433  0.1990 -0.5427
 1236TIP3    H125199   4.184   3.761  16.331 -0.1909  0.9659 -0.9435
 1236TIP3    H225200   4.325   3.744  16.383 -0.6935 -0.5861 -0.0034
 1237TIP3   OH225201   6.412   6.812  10.553 -0.0476  0.0928 -0.7025
 1237TIP3    H125202   6.366   6.896  10.560  1.3505  0.9164 -0.9881
 1237TIP3    H225203   6.405   6.788  10.460 -0.6459 -0.2303 -0.5764
 1238TIP3   OH225204   2.499   4.920  14.834  0.3957  0.8438  0.0448
 1238TIP3    H125205   2.445   4.998  14.824 -1.3273 -0.4016 -0.9039
 1238TIP3    H225206   2.571   4.933  14.772  0.2777  1.7876  0.0943
 1239TIP3   OH225207   6.244   5.328   1.841  0.3428 -0.5494  0.1798
 1239TIP3    H125208   6.277   5.253   1.791  1.3902  0.8723 -1.3920
 1239TIP3    H225209   6.186   5.374   1.780 -0.1968 -0.0125  1.0743
 1240TIP3   OH225210   0.158   5.856  13.309 -0.5879  0.0113 -0.1816
 1240TIP3    H125211   0.249   5.865  13.281 -0.9925  0.3080 -1.4621
 1240TIP3    H225212   0.121   5.791  13.249 -1.5542  0.8606 -0.5411
 1241TIP3   OH225213   1.694   5.734   1.759  0.4479 -0.7664 -0.1505
 1241TIP3    H125214   1.708   5.786   1.680  2.6099 -0.7863  0.1468
 1241TIP3    H225215   1.782   5.708   1.786 -0.4957 -4.7830 -0.3909
 1242TIP3   OH225216   2.852   6.354   5.004 -0.2806  0.2071  0.3904
 1242TIP3    H125217   2.936   6.398   5.015 -0.3729  0.8267 -1.1585
 1242TIP3    H225218   2.797   6.391   5.073  0.1828  1.1723  0.2606
 1243TIP3   OH225219   4.479   5.004  11.524 -0.2432 -0.2152 -0.1983
 1243TIP3    H125220   4.399   4.983  11.573 -1.1614  0.3312 -1.4050
 1243TIP3    H225221   4.467   4.962  11.439 -1.3638  3.4375 -2.0707
 1244TIP3   OH225222   3.808   3.670   3.359 -0.2871  0.4506  1.0452
 1244TIP3    H125223   3.867   3.700   3.428  0.4398  1.7109 -0.0766
 1244TIP3    H225224   3.728   3.720   3.373 -0.0513  0.8943  0.8413
 1245TIP3   OH225225   2.753   4.140  12.166  0.3353  0.1475  0.0548
 1245TIP3    H125226   2.690   4.210  12.185 -0.1653 -0.5733  1.1787
 1245TIP3    H225227   2.837   4.175  12.194  0.5920  1.3416 -1.9884
 1246TIP3   OH225228   1.602   3.611  16.444  0.3757 -0.2973 -0.3187
 1246TIP3    H125229   1.562   3.688  16.404  0.7253 -0.8254 -1.7299
 1246TIP3    H225230   1.691   3.640  16.467 -0.9183  1.1953  3.7583
 1247TIP3   OH225231   0.753   1.470  16.863 -0.4116 -0.4228  0.2351
 1247TIP3    H125232   0.839   1.492  16.827 -0.5987 -0.3194 -0.1570
 1247TIP3    H225233   0.744   1.528  16.939 -0.3564 -0.0468 -0.0379
 1248TIP3   OH225234   0.906   0.495   3.490  0.2112  0.1948 -0.4172
 1248TIP3    H125235   0.958   0.527   3.416 -1.1449  0.2574 -1.3916
 1248TIP3    H225236   0.882   0.406   3.465  2.0029 -0.8146  1.2200
 1249TIP3   OH225237   6.543   0.545  14.872 -0.0493  0.1919  0.4917
 1249TIP3    H125238   6.451   0.518  14.865 -0.2348  0.9106  0.0658
 1249TIP3    H225239   6.548   0.625  14.820  0.6861  0.4857  1.0119
 1250TIP3   OH225240   2.053   2.027  11.648  1.0331  0.0657  0.5722
 1250TIP3    H125241   2.102   1.953  11.612  0.6660  0.0043  0.1911
 1250TIP3    H225242   1.970   2.025  11.602  1.0436  0.7571  0.5126
 1251TIP3   OH225243   1.751   1.837   2.768 -0.3661 -0.1684 -0.0608
 1251TIP3    H125244   1.820   1.812   2.706  1.9112  0.1615  2.1445
 1251TIP3    H225245   1.770   1.929   2.788 -1.0734 -0.2438  1.0497
 1252TIP3   OH225246   0.672   0.404  12.637  0.2973 -0.2873 -0.1257
 1252TIP3    H125247   0.699   0.485  12.593 -3.2144  2.3844  2.0903
 1252TIP3    H225248   0.602   0.369  12.582 -2.1081  1.4832  1.6072
 1253TIP3   OH225249   4.274   1.360  11.545 -0.3021 -0.1753 -0.2661
 1253TIP3    H125250   4.246   1.331  11.458  1.6321 -1.0637 -0.6569
 1253TIP3    H225251   4.269   1.281  11.599  2.0051 -0.5807 -0.5454
 1254TIP3   OH225252   1.999   1.048  12.239 -0.4049  0.0560 -0.1813
 1254TIP3    H125253   1.939   1.029  12.310 -0.5928  0.0235 -0.3489
 1254TIP3    H225254   1.976   0.985  12.171 -0.6419  0.4987 -0.5142
 1255TIP3   OH225255   1.262   2.378   4.475  0.3087  0.1532  0.2460
 1255TIP3    H125256   1.233   2.445   4.413 -1.5213  0.2919  1.2011
 1255TIP3    H225257   1.337   2.419   4.520 -0.3357  1.2928  0.3273
 1256TIP3   OH225258   2.048   2.966   6.208 -0.2343 -0.0296 -0.0232
 1256TIP3    H125259   2.117   2.925   6.156  0.0032 -0.0432  0.2996
 1256TIP3    H225260   1.971   2.912   6.192  0.5453 -1.8773  2.0119
 1257TIP3   OH225261   5.837   2.089   1.489 -0.8021 -0.2643  0.2926
 1257TIP3    H125262   5.890   2.077   1.567 -2.1454  1.4305  1.5389
 1257TIP3    H225263   5.888   2.147   1.433 -0.9988  0.8063  1.1849
 1258TIP3   OH225264   0.164   6.324   2.507 -0.7207  0.8998 -0.1398
 1258TIP3    H125265   0.110   6.253   2.541 -0.3949  0.7598  0.0874
 1258TIP3    H225266   0.249   6.283   2.489 -0.9406  0.9246 -1.2992
 1259TIP3   OH225267   5.061   0.902   2.997  0.3624 -0.6591 -0.3490
 1259TIP3    H125268   5.108   0.982   2.972  0.6467 -0.7851 -0.2116
 1259TIP3    H225269   4.990   0.933   3.053 -0.7862 -0.2732 -1.9335
 1260TIP3   OH225270   6.218   4.298   1.771  0.5670 -0.3972 -0.3373
 1260TIP3    H125271   6.260   4.231   1.716  0.9592 -1.0873  0.7701
 1260TIP3    H225272   6.290   4.355   1.798  0.6846 -1.0857  0.8696
 1261TIP3   OH225273   4.563   4.885  15.271 -0.3179  0.7941 -0.4467
 1261TIP3    H125274   4.607   4.825  15.211  0.3078  0.2290  0.5556
 1261TIP3    H225275   4.620   4.962  15.273  2.0435 -0.8208  2.6484
 1262TIP3   OH225276   2.856   1.055  11.429  0.4354 -0.4214 -0.1173
 1262TIP3    H125277   2.892   0.966  11.435  1.2784 -0.0885  0.0086
 1262TIP3    H225278   2.839   1.080  11.520 -0.2970 -0.6433 -0.1895
 1263TIP3   OH225279   5.517   6.337   2.278 -0.1664  0.4117 -0.4222
 1263TIP3    H125280   5.506   6.382   2.195 -1.0864 -0.9039 -1.0490
 1263TIP3    H225281   5.447   6.373   2.334 -1.0200 -0.3316 -0.9812
 1264TIP3   OH225282   2.688   6.204  12.572 -0.0619 -0.5196 -0.6533
 1264TIP3    H125283   2.732   6.288  12.581 -0.3345 -0.4587  0.2855
 1264TIP3    H225284   2.595   6.226  12.564 -0.5836 -0.7485  2.9821
 1265TIP3   OH225285   3.391   3.634  11.631  0.5609 -0.1406  0.3419
 1265TIP3    H125286   3.368   3.613  11.541 -1.3820  0.8264  0.5504
 1265TIP3    H225287   3.345   3.569  11.684 -1.2917  1.3902  0.7395
 1266TIP3   OH225288   2.754   0.695   0.539 -0.4355  0.4938 -0.2859
 1266TIP3    H125289   2.759   0.733   0.451  2.1834  1.0592  0.0413
 1266TIP3    H225290   2.791   0.608   0.530  1.9465  1.3408  0.5881
 1267TIP3   OH225291   4.749   1.193  15.725  0.0802  0.1001  0.0829
 1267TIP3    H125292   4.793   1.125  15.777  1.7344 -0.0848 -1.4613
 1267TIP3    H225293   4.724   1.149  15.644  1.4910  1.3485 -1.1024
 1268TIP3   OH225294   3.511   6.585   1.916 -0.1405 -0.0550  0.3894
 1268TIP3    H125295   3.594   6.582   1.964  0.1590 -1.2566 -0.1472
 1268TIP3    H225296   3.485   6.493   1.908 -2.0811  0.3374  1.4423
 1269TIP3   OH225297   1.252   6.308   6.553  0.6410  0.5276  0.5395
 1269TIP3    H125298   1.195   6.238   6.582 -0.0289  0.8648  0.0497
 1269TIP3    H225299   1.193   6.379   6.528  1.2998  1.1928  0.8412
 1270TIP3   OH225300   5.580   3.521  13.822 -0.1613  0.4353  0.1827
 1270TIP3    H125301   5.574   3.430  13.852 -0.9175  0.8727  1.4736
 1270TIP3    H225302   5.553   3.572  13.898  3.9539  1.9983  0.8622
 1271TIP3   OH225303   1.604   3.169  16.070  0.2062 -0.6471  0.3851
 1271TIP3    H125304   1.655   3.091  16.048  0.4026 -0.6499  0.8573
 1271TIP3    H225305   1.585   3.210  15.985  3.3543  0.8870  0.2943
 1272TIP3   OH225306   2.973   1.556   2.563 -1.0582  0.0843 -0.0532
 1272TIP3    H125307   2.908   1.615   2.524 -2.1903 -1.0897 -0.0030
 1272TIP3    H225308   2.939   1.468   2.546  0.2528 -0.5432  0.4616
 1273TIP3   OH225309   3.440   3.721  14.750 -0.0832  0.5097 -0.2413
 1273TIP3    H125310   3.484   3.799  14.715  0.3197  1.6502  2.5386
 1273TIP3    H225311   3.479   3.708  14.837 -0.9446 -2.1628 -0.1604
 1274TIP3   OH225312   4.650   3.481  16.323  0.0291 -0.1101  0.1903
 1274TIP3    H125313   4.724   3.421  16.332  0.0084 -0.2241 -0.3930
 1274TIP3    H225314   4.691   3.566  16.308  0.0469 -0.3426 -1.2045
 1275TIP3   OH225315   2.466   1.058   5.182 -0.1178 -0.2444  0.6504
 1275TIP3    H125316   2.385   1.036   5.135  0.0155 -0.2106  0.4040
 1275TIP3    H225317   2.474   0.991   5.250 -1.1148  0.5690  1.6193
 1276TIP3   OH225318   1.424   5.289   4.806  0.1509 -0.5482  0.3263
 1276TIP3    H125319   1.475   5.341   4.869 -1.1531 -0.4072  1.3139
 1276TIP3    H225320   1.448   5.198   4.825  0.4310 -0.4545  0.4242
 1277TIP3   OH225321   0.918   2.808   5.986 -0.2185  0.6868 -0.6080
 1277TIP3    H125322   0.992   2.863   5.963 -0.2189  0.6267 -0.7529
 1277TIP3    H225323   0.921   2.736   5.923  0.7030 -0.3215  0.5362
 1278TIP3   OH225324   5.666   3.987  11.727 -0.0344  0.4333  0.7635
 1278TIP3    H125325   5.705   4.062  11.684 -0.2681  0.3769  0.4481
 1278TIP3    H225326   5.619   3.941  11.658 -0.5735  0.4435  1.1129
 1279TIP3   OH225327   5.300   5.694   2.260  0.4533 -0.2471  0.8993
 1279TIP3    H125328   5.305   5.758   2.188 -1.5396 -1.2036 -0.1712
 1279TIP3    H225329   5.278   5.746   2.337 -1.0895  0.4252  0.0542
 1280TIP3   OH225330   1.503   1.390   4.886 -0.0810  0.4133  0.0392
 1280TIP3    H125331   1.409   1.407   4.898  0.5235  3.5033  1.4491
 1280TIP3    H225332   1.546   1.471   4.913  3.1510 -1.5310  1.4060
 1281TIP3   OH225333   6.090   6.497  15.945  0.0294  0.7392  0.1742
 1281TIP3    H125334   6.006   6.527  15.979  0.5046 -0.2115  2.3555
 1281TIP3    H225335   6.094   6.405  15.968  1.1770  0.4640 -0.9825
 1282TIP3   OH225336   3.441   0.191  11.612 -0.3827 -0.2690 -0.2875
 1282TIP3    H125337   3.426   0.109  11.565 -0.5208  0.0700 -0.8376
 1282TIP3    H225338   3.445   0.258  11.544  0.4178  0.0899  0.1033
 1283TIP3   OH225339   4.574   3.029   2.217 -0.1016  0.2058 -0.3690
 1283TIP3    H125340   4.655   2.988   2.188  0.4852  1.2353 -0.2212
 1283TIP3    H225341   4.536   3.068   2.138  1.1726  2.4500  0.0276
 1284TIP3   OH225342   0.562   4.786  16.129 -0.3182 -0.1423 -0.5094
 1284TIP3    H125343   0.587   4.705  16.172 -2.4014 -0.1556  0.8088
 1284TIP3    H225344   0.562   4.852  16.199  2.3876  1.3269 -1.7354
 1285TIP3   OH225345   6.715   6.304  12.251 -0.5924  0.6808 -0.3006
 1285TIP3    H125346   6.652   6.250  12.203 -0.3104  0.7080 -0.7093
 1285TIP3    H225347   6.776   6.334  12.184  0.7128 -0.5340  0.2861
 1286TIP3   OH225348   6.121   4.506  14.530 -0.5721  0.0866  0.1723
 1286TIP3    H125349   6.186   4.544  14.589  0.0120  0.2694 -0.5775
 1286TIP3    H225350   6.044   4.492  14.585  0.0619 -0.0280  1.0441
 1287TIP3   OH225351   3.809   3.369   2.995  0.0331  0.2716  0.1682
 1287TIP3    H125352   3.714   3.361   2.985 -0.0371  0.2938  0.7806
 1287TIP3    H225353   3.845   3.304   2.934 -0.3693  0.4210 -0.2284
 1288TIP3   OH225354   0.583   3.914  13.931  0.2747 -0.0801  0.0927
 1288TIP3    H125355   0.595   3.819  13.938  0.6736 -0.0537 -0.2102
 1288TIP3    H225356   0.585   3.945  14.022 -0.8061 -0.4695  0.2649
 1289TIP3   OH225357   3.272   4.990   4.799  0.1457  0.3604  0.6853
 1289TIP3    H125358   3.227   5.070   4.828 -0.7084 -0.2523  1.0902
 1289TIP3    H225359   3.260   4.928   4.870  0.1936 -0.3624  0.0792
 1290TIP3   OH225360   4.099   3.736   2.900 -0.2073  0.2620  0.2466
 1290TIP3    H125361   4.085   3.695   2.985 -2.4659  1.4468  0.5218
 1290TIP3    H225362   4.141   3.819   2.919 -2.4701  1.4408  0.5067
 1291TIP3   OH225363   1.674   4.038  12.664  0.0168 -0.0412  0.7920
 1291TIP3    H125364   1.665   4.018  12.571  0.4952  2.4736  0.1043
 1291TIP3    H225365   1.600   4.096  12.683  3.7376  5.8782 -0.2308
 1292TIP3   OH225366   5.956   6.767  15.044  0.2052  0.2926 -0.3923
 1292TIP3    H125367   5.978   6.816  15.123  1.5552  1.5183 -1.4614
 1292TIP3    H225368   5.958   6.833  14.974 -0.2214 -0.8897 -1.5525
 1293TIP3   OH225369   3.963   6.571   5.241 -0.3959  0.2801 -0.3061
 1293TIP3    H125370   4.028   6.505   5.217  0.3995  0.3907  1.4004
 1293TIP3    H225371   3.882   6.522   5.255  0.1237 -0.3361  0.6761
 1294TIP3   OH225372   0.129   4.015  16.335  0.3635 -0.1907 -0.0288
 1294TIP3    H125373   0.202   4.076  16.321  0.9686 -0.6794  0.8534
 1294TIP3    H225374   0.051   4.068  16.324  0.8793  0.6544  0.2786
 1295TIP3   OH225375   2.624   4.963   0.185 -0.3970 -0.7599 -0.2862
 1295TIP3    H125376   2.557   4.987   0.249  0.4482  1.6807 -0.1937
 1295TIP3    H225377   2.577   4.916   0.117 -2.0431  0.0471  0.2318
 1296TIP3   OH225378   1.953   2.721  11.226  0.2009 -0.4100 -0.1757
 1296TIP3    H125379   1.986   2.739  11.138  0.6427  0.5773  0.1755
 1296TIP3    H225380   2.030   2.728  11.282 -0.2788  0.1342  0.4280
 1297TIP3   OH225381   5.443   5.407   2.337 -0.0713  0.0406 -0.1961
 1297TIP3    H125382   5.363   5.440   2.295 -0.4105 -1.6419 -0.9811
 1297TIP3    H225383   5.412   5.337   2.394  0.6739  0.6214  0.9394
 1298TIP3   OH225384   4.164   3.488   4.129 -0.2538  0.4402 -0.2238
 1298TIP3    H125385   4.138   3.561   4.074 -2.2541  0.3473  0.5084
 1298TIP3    H225386   4.092   3.478   4.191  2.0946  0.9307  2.8375
 1299TIP3   OH225387   6.272   6.737  13.864 -0.2069  0.5333 -0.0343
 1299TIP3    H125388   6.354   6.783  13.844  0.3892  0.9269  2.8933
 1299TIP3    H225389   6.257   6.681  13.788  1.2139  2.5769 -1.9365
 1300TIP3   OH225390   4.129   4.353  13.411 -0.2107 -0.0952 -0.8947
 1300TIP3    H125391   4.133   4.395  13.497  0.4915 -1.4852 -0.2109
 1300TIP3    H225392   4.152   4.422  13.349  0.9102  0.5430  0.1916
 1301TIP3   OH225393   1.907   5.512   5.402 -0.0639  0.0894  0.1439
 1301TIP3    H125394   1.964   5.556   5.465  1.4049 -0.2632 -0.8777
 1301TIP3    H225395   1.862   5.445   5.453 -0.5920  1.2631  1.2442
 1302TIP3   OH225396   0.492   2.781  11.134  0.7755  0.1938 -0.4001
 1302TIP3    H125397   0.481   2.865  11.089  1.2952  1.1516  1.1727
 1302TIP3    H225398   0.461   2.798  11.223 -1.1821 -1.9126 -0.5963
 1303TIP3   OH225399   0.667   0.714  15.242  0.3984 -0.4045 -0.0161
 1303TIP3    H125400   0.704   0.798  15.217  1.2598 -0.9767 -0.7155
 1303TIP3    H225401   0.593   0.736  15.299  1.9972  0.7849  1.7048
 1304TIP3   OH225402   2.680   0.696  14.360  0.1194 -0.2055  0.0096
 1304TIP3    H125403   2.665   0.789  14.348 -1.0014 -0.1295  1.6933
 1304TIP3    H225404   2.702   0.687  14.453  1.8242 -1.4446 -0.4561
 1305TIP3   OH225405   0.299   5.565  15.908 -0.9939 -0.0176  0.0748
 1305TIP3    H125406   0.309   5.577  15.814 -1.8973 -2.0341 -0.3349
 1305TIP3    H225407   0.215   5.608  15.928 -2.1166 -1.8221 -0.5694
 1306TIP3   OH225408   4.216   0.925  16.976 -0.1857 -0.2334  0.2769
 1306TIP3    H125409   4.159   0.922  17.053 -0.4620  0.7461  0.1241
 1306TIP3    H225410   4.241   0.834  16.961  2.6504 -0.1816  3.5383
 1307TIP3   OH225411   0.811   1.665  17.024  0.0815 -0.3346 -0.2776
 1307TIP3    H125412   0.843   1.740  16.974 -0.2514  1.5781  2.2005
 1307TIP3    H225413   0.727   1.694  17.061  0.6675 -1.3182  1.9981
 1308TIP3   OH225414   5.131   0.071  14.874  0.1790  0.1083  0.0823
 1308TIP3    H125415   5.046   0.114  14.876  0.8249  1.4745 -0.6037
 1308TIP3    H225416   5.123   0.000  14.938 -1.8484 -0.5684 -0.8231
 1309TIP3   OH225417   6.078   5.138   1.955  0.2133  0.5577 -0.3010
 1309TIP3    H125418   6.133   5.205   1.915 -0.3673  1.2175 -0.0163
 1309TIP3    H225419   6.055   5.174   2.041  0.8076 -0.4965  0.3131
 1310TIP3   OH225420   2.025   5.710  15.208 -0.3884 -0.4637  0.3710
 1310TIP3    H125421   1.966   5.659  15.152  1.9677 -1.9606 -0.9128
 1310TIP3    H225422   2.050   5.785  15.154 -0.8292 -0.0034  0.7931
 1311TIP3   OH225423   1.391   2.301  11.581 -0.2062  0.6021 -0.3956
 1311TIP3    H125424   1.306   2.304  11.537  0.3240 -0.1490 -1.5039
 1311TIP3    H225425   1.407   2.208  11.595 -0.9350  0.8186  2.6150
 1312TIP3   OH225426   4.359   4.469   1.453 -0.3553 -0.1753  0.3879
 1312TIP3    H125427   4.348   4.546   1.397 -1.0723  0.2460  1.0894
 1312TIP3    H225428   4.272   4.431   1.459  0.4784 -3.0070 -2.6357
 1313TIP3   OH225429   1.739   3.930   3.918  0.3782 -0.2251  0.0982
 1313TIP3    H125430   1.691   3.857   3.879  0.8512 -0.3929 -0.1769
 1313TIP3    H225431   1.690   3.951   3.998 -0.3348 -0.1856 -0.3361
 1314TIP3   OH225432   2.844   4.607   2.975 -0.3464  0.5355  0.4152
 1314TIP3    H125433   2.865   4.691   2.934  1.8873 -1.0254 -1.9473
 1314TIP3    H225434   2.842   4.545   2.903 -0.8331 -1.6586  2.2078
 1315TIP3   OH225435   6.762   3.389  14.898 -0.1342  0.0765  0.1303
 1315TIP3    H125436   6.731   3.321  14.957  0.7434 -0.7897 -0.3828
 1315TIP3    H225437   6.846   3.417  14.935  0.0428  0.0871 -0.2759
 1316TIP3   OH225438   2.783   0.849   1.664 -0.0921  0.2926 -0.5522
 1316TIP3    H125439   2.873   0.864   1.633 -0.4093 -1.7101 -2.6893
 1316TIP3    H225440   2.731   0.914   1.617 -0.0460 -0.0200 -1.0376
 1317TIP3   OH225441   6.559   1.794   0.014 -0.1165  0.0459  0.3669
 1317TIP3    H125442   6.599   1.722   0.062  0.5748  0.7081  0.8102
 1317TIP3    H225443   6.550   1.864   0.078 -1.0662  0.2532  0.0199
 1318TIP3   OH225444   6.175   6.557  12.058 -0.0118  0.1939 -0.3267
 1318TIP3    H125445   6.080   6.570  12.060 -0.1387 -0.4418 -1.4214
 1318TIP3    H225446   6.208   6.605  12.134 -1.1504  0.9353 -0.2819
 1319TIP3   OH225447   1.457   1.783   4.267  0.1323 -0.4037 -0.0436
 1319TIP3    H125448   1.490   1.835   4.340  0.1173 -0.5682  0.0824
 1319TIP3    H225449   1.437   1.846   4.198  1.3283 -0.3440 -0.3651
 1320TIP3   OH225450   4.856   2.682   3.789 -0.4949 -0.4868  0.3521
 1320TIP3    H125451   4.918   2.614   3.816  0.5351  0.5323  0.6497
 1320TIP3    H225452   4.891   2.716   3.707 -1.5608 -0.9897 -0.3372
 1321TIP3   OH225453   0.248   5.262  15.061 -0.5514 -0.0412 -0.1786
 1321TIP3    H125454   0.268   5.195  14.995  0.5664  0.5315 -0.4461
 1321TIP3    H225455   0.225   5.339  15.010 -0.0196  0.3045  0.0991
 1322TIP3   OH225456   5.356   2.125  15.104 -0.5210  0.5704 -0.1458
 1322TIP3    H125457   5.357   2.060  15.174 -0.4122  1.1077  0.3634
 1322TIP3    H225458   5.409   2.197  15.138  4.2740 -1.2425 -2.8061
 1323TIP3   OH225459   3.890   1.907  11.650  0.0681 -0.3096 -0.3480
 1323TIP3    H125460   3.911   1.859  11.570  0.1420 -0.0327 -0.4961
 1323TIP3    H225461   3.934   1.992  11.639  0.6478 -0.5160  0.2781
 1324TIP3   OH225462   1.519   6.140   4.201  0.0689  0.4143  0.1278
 1324TIP3    H125463   1.551   6.133   4.111 -0.8553  1.3335 -0.2842
 1324TIP3    H225464   1.592   6.181   4.249  0.3577  0.4306 -0.3219
 1325TIP3   OH225465   5.445   2.694   5.437  0.1924  0.5678 -0.3185
 1325TIP3    H125466   5.410   2.656   5.518 -0.9603  2.1483 -0.0264
 1325TIP3    H225467   5.481   2.619   5.389  0.0218 -0.5456  1.2013
 1326TIP3   OH225468   0.161   3.552   4.503  0.4861 -0.0781 -0.4386
 1326TIP3    H125469   0.210   3.634   4.501  0.5492 -0.1225 -0.8220
 1326TIP3    H225470   0.182   3.514   4.588 -0.4336  0.8365  0.2234
 1327TIP3   OH225471   4.051   5.230  15.695 -0.6920 -0.4825  0.4544
 1327TIP3    H125472   3.963   5.216  15.660 -0.6323 -0.9332  0.4831
 1327TIP3    H225473   4.080   5.311  15.652 -0.8128 -0.7551 -0.1606
 1328TIP3   OH225474   4.200   5.028  11.575 -0.0523 -0.1943 -0.0596
 1328TIP3    H125475   4.106   5.027  11.555 -0.4418 -1.8791  1.5316
 1328TIP3    H225476   4.205   5.075  11.659  0.1446 -2.3330  1.1917
 1329TIP3   OH225477   2.186   0.616  11.838 -0.2088 -0.1998  0.0928
 1329TIP3    H125478   2.132   0.558  11.784  2.1169 -2.1020 -0.3783
 1329TIP3    H225479   2.202   0.693  11.783 -2.1934  0.3296  0.1846
 1330TIP3   OH225480   4.633   4.958  10.757 -0.2599  0.1300  0.0186
 1330TIP3    H125481   4.614   5.040  10.711  1.4668 -0.5935 -2.1826
 1330TIP3    H225482   4.599   4.890  10.699  1.8280 -0.8304 -0.1708
 1331TIP3   OH225483   2.687   1.313   0.744  0.1777  0.1862  0.3013
 1331TIP3    H125484   2.761   1.258   0.768 -0.7009 -0.8605  0.6677
 1331TIP3    H225485   2.726   1.387   0.697  1.2157 -2.0708 -2.6892
 1332TIP3   OH225486   5.720   1.256  11.891  0.1952  0.0783  0.0405
 1332TIP3    H125487   5.783   1.214  11.833  0.6028  1.2692 -0.4159
 1332TIP3    H225488   5.723   1.349  11.867 -1.4378  0.2323  0.2795
 1333TIP3   OH225489   6.235   2.159  16.514  0.7306  0.4067  0.0934
 1333TIP3    H125490   6.293   2.143  16.439  0.0786 -0.5525 -0.2159
 1333TIP3    H225491   6.148   2.135  16.482  0.8460 -3.6124  2.1935
 1334TIP3   OH225492   4.348   5.578   0.840  0.8563 -0.0516 -0.4626
 1334TIP3    H125493   4.307   5.661   0.865  1.4256  0.4544 -1.1763
 1334TIP3    H225494   4.391   5.548   0.920 -0.4240 -0.3239  0.1595
 1335TIP3   OH225495   4.403   0.546   0.707 -0.7628  0.5261  0.0614
 1335TIP3    H125496   4.365   0.579   0.626 -2.0408 -2.4807 -0.7184
 1335TIP3    H225497   4.329   0.545   0.769 -0.3439  0.6609  0.5738
 1336TIP3   OH225498   2.854   1.298   4.041 -0.4384  0.0335 -0.1884
 1336TIP3    H125499   2.829   1.227   4.099  1.7811 -0.2523  0.5156
 1336TIP3    H225500   2.813   1.276   3.957 -1.0042 -1.2866  0.4128
 1337TIP3   OH225501   1.527   6.688   3.823  0.0549 -0.1646  0.0436
 1337TIP3    H125502   1.496   6.638   3.748 -2.3531  0.1661  0.7546
 1337TIP3    H225503   1.537   6.777   3.790 -1.1736  0.0190  0.1290
 1338TIP3   OH225504   1.197   5.792  16.070 -0.1121  0.0062  0.5219
 1338TIP3    H125505   1.216   5.725  16.005 -1.0936  1.1205 -0.9777
 1338TIP3    H225506   1.154   5.745  16.142 -0.7491 -0.9586 -0.4725
 1339TIP3   OH225507   4.588   0.929  10.930  1.0029  0.5379 -0.0074
 1339TIP3    H125508   4.619   0.958  11.016  1.4397 -1.2595  0.4727
 1339TIP3    H225509   4.563   1.010  10.886  2.3292  1.6618  1.1892
 1340TIP3   OH225510   1.424   5.922  16.835 -0.6459  0.2593 -0.2625
 1340TIP3    H125511   1.345   5.967  16.805 -0.1071  0.7161 -1.0001
 1340TIP3    H225512   1.496   5.979  16.811 -0.0123 -0.5744 -0.3952
 1341TIP3   OH225513   2.292   1.499   0.396 -0.3319 -0.4213 -0.4372
 1341TIP3    H125514   2.202   1.484   0.425  0.4778 -0.3460  2.3507
 1341TIP3    H225515   2.300   1.445   0.317 -3.0879  0.4254 -1.4567
 1342TIP3   OH225516   1.093   3.349   2.471 -0.9811 -0.3461  0.1974
 1342TIP3    H125517   1.131   3.433   2.497 -2.0331 -0.3944  2.0118
 1342TIP3    H225518   1.031   3.372   2.401  2.1155 -0.2610 -2.8384
 1343TIP3   OH225519   3.638   1.986   2.516 -0.2057 -0.4601 -0.2396
 1343TIP3    H125520   3.549   1.953   2.506 -0.5171  0.4867 -0.7351
 1343TIP3    H225521   3.638   2.031   2.600 -0.2579 -0.3100 -0.3175
 1344TIP3   OH225522   4.355   2.469  13.494  0.0433 -0.3742 -0.0285
 1344TIP3    H125523   4.412   2.447  13.420  2.1420  0.6723  1.1888
 1344TIP3    H225524   4.397   2.428  13.570 -0.4005  1.0439  1.0300
 1345TIP3   OH225525   6.459   3.111  15.606 -0.2259 -0.3332 -0.2166
 1345TIP3    H125526   6.457   3.205  15.625 -0.0758 -0.3457 -0.1403
 1345TIP3    H225527   6.376   3.079  15.643 -0.8244 -0.0432 -1.2618
 1346TIP3   OH225528   2.112   0.935   0.322 -0.0626  0.1322 -0.1822
 1346TIP3    H125529   2.071   1.010   0.279 -0.1639  0.5915  0.6797
 1346TIP3    H225530   2.147   0.971   0.404 -1.1374 -0.9766  0.8098
 1347TIP3   OH225531   1.010   6.568   4.311 -0.2465  0.2987 -0.1689
 1347TIP3    H125532   1.086   6.601   4.359 -0.3431 -0.7534  0.7389
 1347TIP3    H225533   0.999   6.630   4.239  1.3933  0.5454 -0.2525
 1348TIP3   OH225534   4.305   0.829  15.957 -0.1847 -0.5558 -0.1804
 1348TIP3    H125535   4.375   0.847  16.020  1.0520 -1.2507 -1.2801
 1348TIP3    H225536   4.255   0.758  15.997 -0.4217  0.1288  0.7451
 1349TIP3   OH225537   4.429   3.387  17.077 -0.0161  0.6779  0.2390
 1349TIP3    H125538   4.407   3.368  17.168  3.2783  0.0218  1.0408
 1349TIP3    H225539   4.471   3.307  17.045 -2.3301  0.3652 -2.4096
 1350TIP3   OH225540   5.639   4.511  12.338  0.2545 -0.4344  0.2835
 1350TIP3    H125541   5.572   4.473  12.281 -0.0619 -0.6876  0.8172
 1350TIP3    H225542   5.613   4.602  12.349  1.1371  0.0310 -1.1837
 1351TIP3   OH225543   0.091   4.491  11.666 -0.7275 -0.1539 -0.4703
 1351TIP3    H125544   0.007   4.449  11.688  0.3432 -2.1050  0.1237
 1351TIP3    H225545   0.157   4.425  11.686  0.9101  0.9407 -1.9396
 1352TIP3   OH225546   1.104   6.422   5.852 -0.3529  0.6788 -0.5789
 1352TIP3    H125547   1.035   6.355   5.859 -0.8529  1.2899  0.5411
 1352TIP3    H225548   1.092   6.477   5.929  1.4637  0.7478 -0.3189
 1353TIP3   OH225549   4.868   2.005  12.405 -0.7055 -0.3963  0.9986
 1353TIP3    H125550   4.828   1.959  12.331 -0.3270 -0.2589  0.7036
 1353TIP3    H225551   4.959   2.021  12.377 -0.6465 -0.0699  1.3652
 1354TIP3   OH225552   2.823   6.031  14.872 -0.0848  0.2241 -0.1864
 1354TIP3    H125553   2.847   6.111  14.920  2.1324  0.2859 -1.2740
 1354TIP3    H225554   2.837   5.960  14.935 -0.3830  0.5465  0.2524
 1355TIP3   OH225555   1.797   6.126   2.024  0.0282  0.1969  0.3487
 1355TIP3    H125556   1.848   6.059   1.980 -1.8272 -1.1717  0.1518
 1355TIP3    H225557   1.845   6.207   2.007  2.3578 -1.0337  0.6310
 1356TIP3   OH225558   5.786   1.198  16.028 -0.5821  0.0534 -0.4678
 1356TIP3    H125559   5.704   1.243  16.049 -0.9682 -0.8414  0.0208
 1356TIP3    H225560   5.843   1.266  15.992 -0.3628  1.4146  2.2515
 1357TIP3   OH225561   0.858   1.931  15.521 -0.1144 -0.2792  0.4581
 1357TIP3    H125562   0.822   1.846  15.544 -0.1806 -0.8846 -1.7097
 1357TIP3    H225563   0.892   1.920  15.432  0.0755  1.8828  0.2093
 1358TIP3   OH225564   5.905   1.609  12.145 -0.1817  0.5522 -0.1625
 1358TIP3    H125565   5.911   1.600  12.240 -1.5519 -0.8519 -0.1580
 1358TIP3    H225566   5.812   1.630  12.129 -0.3992 -1.1051 -1.2767
 1359TIP3   OH225567   2.542   5.779  11.504  0.0572 -0.3008 -0.1937
 1359TIP3    H125568   2.612   5.837  11.473  0.4196 -1.1674 -1.0277
 1359TIP3    H225569   2.543   5.789  11.599  0.5120  0.5998 -0.2808
 1360TIP3   OH225570   2.046   1.390   1.405 -0.0272  0.1736  0.8021
 1360TIP3    H125571   2.074   1.325   1.470  0.5800  0.3470  0.7193
 1360TIP3    H225572   2.001   1.458   1.456 -0.4330 -0.1792  0.9180
 1361TIP3   OH225573   4.989   4.200   0.182  0.0275  0.0123 -0.3995
 1361TIP3    H125574   5.068   4.214   0.234 -1.0350 -0.8544  1.5411
 1361TIP3    H225575   4.987   4.105   0.167 -1.9362 -0.3878  1.8546
 1362TIP3   OH225576   2.366   1.512   3.084 -0.1792  0.2793  0.2366
 1362TIP3    H125577   2.358   1.600   3.047  0.1065  0.3063  0.2370
 1362TIP3    H225578   2.461   1.498   3.093 -0.2325  0.0903  0.5186
 1363TIP3   OH225579   4.460   5.439  11.878  0.3772 -0.3472  1.1955
 1363TIP3    H125580   4.526   5.502  11.849  0.0667 -0.8916 -0.9154
 1363TIP3    H225581   4.395   5.490  11.925  0.5920  0.7638  0.3170
 1364TIP3   OH225582   3.723   6.104   1.407 -0.0558 -0.4229 -0.3089
 1364TIP3    H125583   3.710   6.050   1.329  2.0893 -0.5917 -0.6061
 1364TIP3    H225584   3.805   6.150   1.391 -0.5388  1.0208  1.0467
 1365TIP3   OH225585   2.632   4.352  13.273  0.1993 -0.0124 -0.1868
 1365TIP3    H125586   2.653   4.430  13.221  0.6514  0.9440  1.3294
 1365TIP3    H225587   2.677   4.367  13.356 -2.7568 -0.0831  1.5725
 1366TIP3   OH225588   2.465   1.078   3.940 -0.1715 -0.2218  0.2625
 1366TIP3    H125589   2.466   1.135   4.017 -1.7245  1.0899 -0.6403
 1366TIP3    H225590   2.417   1.127   3.874  0.1685 -1.7802 -1.2141
 1367TIP3   OH225591   6.800   3.377  15.461  0.0762 -0.1186  0.3866
 1367TIP3    H125592   6.728   3.438  15.473  0.6280  0.3265  1.7216
 1367TIP3    H225593   6.801   3.357  15.368  1.4540  3.9489 -0.6606
 1368TIP3   OH225594   3.889   0.661   3.047 -0.2191 -0.0803  0.6292
 1368TIP3    H125595   3.878   0.756   3.042  0.5792  0.1500  2.4307
 1368TIP3    H225596   3.826   0.626   2.983 -0.7302  1.6292  0.1374
 1369TIP3   OH225597   5.923   5.589  11.009  0.1537 -0.7245 -0.8290
 1369TIP3    H125598   5.868   5.554  10.939 -3.0890  2.7466 -0.3455
 1369TIP3    H225599   5.893   5.544  11.088  0.3926 -1.2057 -1.0100
 1370TIP3   OH225600   1.007   2.954  12.573  0.0177  0.4545  0.0153
 1370TIP3    H125601   0.918   2.927  12.595 -1.3723  2.6902 -2.3757
 1370TIP3    H225602   1.027   2.911  12.490  1.3542 -0.3123  0.6968
 1371TIP3   OH225603   6.178   1.189   0.719 -0.1109 -0.2114 -0.1229
 1371TIP3    H125604   6.169   1.284   0.707 -2.1957 -0.5443 -1.6650
 1371TIP3    H225605   6.118   1.169   0.791  3.0979  0.0467  2.8559
 1372TIP3   OH225606   0.987   0.570  10.872  0.0854  0.3512  0.1229
 1372TIP3    H125607   0.951   0.554  10.785 -0.0684  1.3552 -0.0093
 1372TIP3    H225608   0.925   0.527  10.932  1.2241 -2.0737 -0.3211
 1373TIP3   OH225609   0.988   0.224  16.529 -0.1557  0.0409 -0.2608
 1373TIP3    H125610   1.064   0.232  16.587 -0.7368 -0.8615  0.6706
 1373TIP3    H225611   0.921   0.184  16.584 -1.7239  1.9698 -0.6958
 1374TIP3   OH225612   4.130   6.739  15.205  0.3607 -0.6940  0.0478
 1374TIP3    H125613   4.083   6.821  15.193  0.3698 -0.5673  0.8809
 1374TIP3    H225614   4.152   6.737  15.297 -1.1209 -2.4134  0.4312
 1375TIP3   OH225615   0.339   3.446  13.930  0.3098  0.4937  0.1640
 1375TIP3    H125616   0.390   3.501  13.871  0.0005  1.2299  0.5624
 1375TIP3    H225617   0.370   3.469  14.017 -1.9220  2.3194  0.5594
 1376TIP3   OH225618   3.890   6.437   0.577  0.1367  0.4674  0.1662
 1376TIP3    H125619   3.885   6.427   0.672 -1.1225  0.7691  0.1540
 1376TIP3    H225620   3.907   6.530   0.563  0.6157  0.3717  0.0945
 1377TIP3   OH225621   2.657   6.776  16.418 -0.6237  0.8665 -0.0951
 1377TIP3    H125622   2.663   6.868  16.390 -0.4530  0.8043 -0.2665
 1377TIP3    H225623   2.581   6.742  16.371  0.1409  0.5389 -1.1458
 1378TIP3   OH225624   6.267   6.164   2.048 -0.0127 -0.1856  0.4204
 1378TIP3    H125625   6.208   6.149   2.122 -1.8616 -0.8666 -1.1262
 1378TIP3    H225626   6.214   6.145   1.970  1.0937  2.8716 -1.2511
 1379TIP3   OH225627   6.080   3.792   0.159 -0.4145 -0.0632 -0.9455
 1379TIP3    H125628   5.987   3.804   0.175 -0.0630 -0.4496  2.0588
 1379TIP3    H225629   6.111   3.876   0.127 -1.5205  0.6164 -0.2657
 1380TIP3   OH225630   3.775   0.778  13.604 -0.7285  0.3506 -0.2637
 1380TIP3    H125631   3.753   0.771  13.697 -1.8715 -0.7729 -0.5753
 1380TIP3    H225632   3.848   0.838  13.601  0.3221 -0.7321  1.5274
 1381TIP3   OH225633   4.499   0.979   4.521 -0.5091  0.0314  0.0395
 1381TIP3    H125634   4.457   0.909   4.571 -1.9910 -0.4302 -1.7297
 1381TIP3    H225635   4.429   1.015   4.466  0.8375  1.0313 -1.1065
 1382TIP3   OH225636   3.644   3.424  13.594  0.4141  0.6810 -1.0199
 1382TIP3    H125637   3.604   3.369  13.661  1.0419 -1.5217 -2.3726
 1382TIP3    H225638   3.737   3.428  13.617  0.4534  0.7866 -1.1907
 1383TIP3   OH225639   3.891   3.380  12.289  0.1281 -0.2103 -0.7699
 1383TIP3    H125640   3.948   3.387  12.213 -0.0952  2.4879 -0.7907
 1383TIP3    H225641   3.950   3.364  12.362  0.6196 -0.2015 -1.1604
 1384TIP3   OH225642   3.544   5.016  12.153  0.3796 -0.5776  0.2857
 1384TIP3    H125643   3.454   4.987  12.138 -0.0383  0.5322  0.5301
 1384TIP3    H225644   3.583   4.948  12.208  0.2993 -2.0403 -1.3777
 1385TIP3   OH225645   3.195   3.852  14.837  0.5461  0.4457  0.3525
 1385TIP3    H125646   3.255   3.799  14.785  0.8906 -0.5014  1.6682
 1385TIP3    H225647   3.108   3.816  14.816  0.6234  0.4352  0.0367
 1386TIP3   OH225648   5.341   6.441  14.092  0.8160 -0.3523 -0.0441
 1386TIP3    H125649   5.390   6.359  14.094 -0.7459 -1.3473 -0.7864
 1386TIP3    H225650   5.273   6.427  14.026  0.0574  1.2783  0.3386
 1387TIP3   OH225651   2.539   1.538   3.685  0.4432  0.2889 -0.1932
 1387TIP3    H125652   2.584   1.552   3.768  3.7080 -0.9986 -1.6119
 1387TIP3    H225653   2.556   1.617   3.634  0.2017  0.2153 -0.3944
 1388TIP3   OH225654   0.676   2.600  11.102 -0.0141 -0.1288 -0.7788
 1388TIP3    H125655   0.593   2.647  11.111 -0.4738 -1.2106  1.1551
 1388TIP3    H225656   0.743   2.667  11.116 -0.6082  0.4110 -0.4930
 1389TIP3   OH225657   1.023   2.622  11.269 -0.1338  0.3603  0.1666
 1389TIP3    H125658   0.964   2.611  11.343 -0.6254 -0.1045 -0.2896
 1389TIP3    H225659   0.992   2.700  11.225 -0.2812  0.2309  0.0418
 1390TIP3   OH225660   1.095   0.963   5.382  0.3889  0.5798 -0.2293
 1390TIP3    H125661   1.154   1.001   5.317 -1.0286 -0.6366 -2.3578
 1390TIP3    H225662   1.010   1.001   5.362  0.0915  1.0391  1.7092
 1391TIP3   OH225663   4.619   6.516  15.424  0.8122  0.7076 -0.0669
 1391TIP3    H125664   4.589   6.521  15.333 -0.1955  0.6980  0.2539
 1391TIP3    H225665   4.541   6.533  15.476  1.1286 -0.4624  0.8267
 1392TIP3   OH225666   6.737   3.275   4.139 -0.4972 -0.4403 -0.0564
 1392TIP3    H125667   6.648   3.306   4.119  0.0460  0.9446 -0.4034
 1392TIP3    H225668   6.794   3.343   4.105  0.6167  0.8033  3.8523
 1393TIP3   OH225669   4.000   1.688  12.313  0.5071 -0.2942 -0.8630
 1393TIP3    H125670   4.030   1.736  12.390 -0.3273  0.5571 -1.0481
 1393TIP3    H225671   3.978   1.600  12.346 -0.1445  0.1533 -0.0607
 1394TIP3   OH225672   0.076   0.780  16.182 -0.2527  0.2791  0.4030
 1394TIP3    H125673   0.027   0.793  16.263 -0.5147  0.3527  0.2363
 1394TIP3    H225674   0.107   0.867  16.158 -2.5686  0.7932 -1.0731
 1395TIP3   OH225675   3.042   0.600   1.760 -0.4061  1.3531 -0.1598
 1395TIP3    H125676   2.965   0.545   1.773  0.4741  0.0878 -0.1672
 1395TIP3    H225677   3.031   0.637   1.672  0.5778 -1.5307 -1.6305
 1396TIP3   OH225678   5.747   0.648   0.414 -0.3717  0.3599 -0.1922
 1396TIP3    H125679   5.737   0.680   0.325 -1.2015 -0.2547 -0.3298
 1396TIP3    H225680   5.657   0.643   0.448 -0.2272 -1.2491  0.0174
 1397TIP3   OH225681   1.565   4.000  13.985 -0.1019 -0.2805 -0.3222
 1397TIP3    H125682   1.488   4.017  13.932 -0.7256  0.5651  0.8392
 1397TIP3    H225683   1.634   4.054  13.946 -0.2208 -0.6032 -1.0015
 1398TIP3   OH225684   2.018   3.156   2.553  0.3259 -0.3315  0.2643
 1398TIP3    H125685   2.090   3.219   2.551  0.4602 -0.5056 -0.6827
 1398TIP3    H225686   2.060   3.071   2.568  0.4477 -0.5754 -1.2746
 1399TIP3   OH225687   4.363   4.422  16.583 -0.8076  0.4344 -0.2798
 1399TIP3    H125688   4.283   4.464  16.613 -0.5664  1.7116 -1.3281
 1399TIP3    H225689   4.424   4.434  16.656 -1.3330  0.1682  0.2063
 1400TIP3   OH225690   1.481   2.181   0.242  0.3365 -0.1651  0.3102
 1400TIP3    H125691   1.445   2.133   0.317  0.3101  0.8572  0.9695
 1400TIP3    H225692   1.559   2.225   0.277  0.0046  0.7784 -0.1081
 1401TIP3   OH225693   5.504   4.428  16.818 -0.1422 -0.3730  0.5247
 1401TIP3    H125694   5.508   4.394  16.907 -2.3769 -0.2139  0.7302
 1401TIP3    H225695   5.559   4.368  16.767  2.1752  0.2302  2.1419
 1402TIP3   OH225696   5.314   4.177   4.896  0.5911  0.1868 -0.2094
 1402TIP3    H125697   5.308   4.106   4.831  2.0410  0.6459 -0.8879
 1402TIP3    H225698   5.242   4.159   4.957  0.0601 -1.0676 -1.1449
 1403TIP3   OH225699   2.438   0.511   1.478  0.0750  0.5331 -0.0142
 1403TIP3    H125700   2.453   0.425   1.517  1.2233  1.5690  2.0262
 1403TIP3    H225701   2.500   0.516   1.405  0.7827  0.0284  0.5364
 1404TIP3   OH225702   0.950   0.335   1.892 -0.2976 -0.7675 -0.4141
 1404TIP3    H125703   1.019   0.396   1.919 -2.2313  1.4956 -0.2616
 1404TIP3    H225704   0.934   0.281   1.970  0.9733 -1.0506 -0.3301
 1405TIP3   OH225705   0.972   3.064   5.530  0.0185  0.2675  0.0374
 1405TIP3    H125706   0.985   3.159   5.523  0.8471  0.1604 -0.0032
 1405TIP3    H225707   1.015   3.041   5.613 -2.6453  0.3381  1.5343
 1406TIP3   OH225708   1.735   0.014  12.291 -0.0042 -0.5619 -0.1279
 1406TIP3    H125709   1.717   0.049  12.378 -0.3655 -0.4509 -0.2470
 1406TIP3    H225710   1.753   0.091  12.237  0.2299 -0.6311 -0.1495
 1407TIP3   OH225711   4.482   5.489  14.828  0.4892 -0.0260 -0.0028
 1407TIP3    H125712   4.391   5.477  14.800  0.9377  1.4978 -2.3787
 1407TIP3    H225713   4.499   5.414  14.886 -1.3484 -2.0476 -1.8654
 1408TIP3   OH225714   0.169   0.181   2.174 -0.0246 -0.4513  0.1872
 1408TIP3    H125715   0.225   0.223   2.109  2.8137 -2.2642  1.2729
 1408TIP3    H225716   0.134   0.253   2.226  1.2088  0.7813 -0.6272
 1409TIP3   OH225717   5.233   4.016  13.755 -0.4736  0.1783  0.0588
 1409TIP3    H125718   5.196   4.087  13.807 -2.2970 -0.4389 -0.3269
 1409TIP3    H225719   5.319   4.000  13.794 -0.1217  2.3905  0.3177
 1410TIP3   OH225720   1.697   0.096   2.082 -0.1537 -0.2691 -0.3543
 1410TIP3    H125721   1.615   0.057   2.112  0.2736 -2.0351 -1.3910
 1410TIP3    H225722   1.765   0.042   2.122  0.4582 -0.4415 -1.6021
 1411TIP3   OH225723   1.805   1.176  15.002 -0.5240  0.3711 -0.3550
 1411TIP3    H125724   1.821   1.269  14.987 -2.3628  0.7797  0.0282
 1411TIP3    H225725   1.742   1.151  14.935 -2.1390  0.0938  1.1929
 1412TIP3   OH225726   6.103   4.061  12.493 -0.4130 -0.3557  0.1963
 1412TIP3    H125727   6.027   4.093  12.443  1.3999  3.7913 -0.3550
 1412TIP3    H225728   6.082   4.082  12.584  0.0317  0.8884  0.0329
 1413TIP3   OH225729   3.706   1.431   2.673 -0.0832 -0.2854  0.1255
 1413TIP3    H125730   3.685   1.349   2.627  1.1495 -1.0463  0.8766
 1413TIP3    H225731   3.783   1.464   2.629 -1.8276  1.7062 -1.6297
 1414TIP3   OH225732   3.073   0.984  15.308 -0.3640 -0.0141 -0.3362
 1414TIP3    H125733   3.047   0.892  15.309  0.0093 -0.1165 -0.1017
 1414TIP3    H225734   3.167   0.984  15.326 -0.3650  0.4139 -0.3056
 1415TIP3   OH225735   2.307   1.437  16.851  0.1706 -0.5331 -0.4289
 1415TIP3    H125736   2.262   1.365  16.896  0.0609  0.0489  0.4235
 1415TIP3    H225737   2.261   1.445  16.767 -0.5976 -0.6701 -0.0305
 1416TIP3   OH225738   1.327   0.192   3.510 -0.0361 -0.0583 -0.1396
 1416TIP3    H125739   1.324   0.114   3.455 -0.5418 -0.5727  0.5988
 1416TIP3    H225740   1.417   0.224   3.500  1.2715 -2.5992  2.0534
 1417TIP3   OH225741   0.647   1.080   5.096  0.6430 -0.2296 -0.1918
 1417TIP3    H125742   0.732   1.071   5.053  1.0572  1.2932  0.2780
 1417TIP3    H225743   0.596   1.136   5.037  0.8302  0.9250  0.7250
 1418TIP3   OH225744   0.845   0.230  11.958 -0.4357  0.0200  0.0144
 1418TIP3    H125745   0.750   0.228  11.971 -0.3988 -0.2338  0.2729
 1418TIP3    H225746   0.862   0.163  11.892 -0.2347 -1.3894  1.4349
 1419TIP3   OH225747   2.887   1.292   0.933  0.1546 -0.5303  0.2585
 1419TIP3    H125748   2.796   1.318   0.945 -0.4535 -1.9155 -1.0314
 1419TIP3    H225749   2.907   1.238   1.009  0.6580  1.5139  1.6829
 1420TIP3   OH225750   5.952   5.011  16.906 -0.0128  0.1268 -0.2982
 1420TIP3    H125751   5.903   4.949  16.960 -2.0840  0.6410 -1.4671
 1420TIP3    H225752   5.958   5.090  16.960 -0.2918 -0.0204 -0.0477
 1421TIP3   OH225753   5.416   2.017   0.179 -0.3011 -0.3164 -0.2668
 1421TIP3    H125754   5.338   2.072   0.188  0.4976  0.7150  0.5675
 1421TIP3    H225755   5.474   2.045   0.249  0.8882 -0.9857 -0.9398
 1422TIP3   OH225756   0.571   6.645  12.901  0.2010  0.0803  0.3256
 1422TIP3    H125757   0.526   6.561  12.907 -0.2289  0.3436  0.8493
 1422TIP3    H225758   0.664   6.623  12.912  0.4290 -0.6609 -2.2660
 1423TIP3   OH225759   2.496   3.037   2.881 -0.1972  0.1034 -0.6015
 1423TIP3    H125760   2.480   2.945   2.905 -2.2732 -0.0019 -2.1915
 1423TIP3    H225761   2.514   3.080   2.965  1.5262 -1.8385  0.1129
 1424TIP3   OH225762   5.747   1.504  11.781  0.2105 -0.1824 -0.1403
 1424TIP3    H125763   5.667   1.481  11.734  1.5927 -2.0427 -1.7471
 1424TIP3    H225764   5.736   1.596  11.804 -1.8039 -0.0377 -1.4678
 1425TIP3   OH225765   2.862   5.824   2.367 -0.2769 -0.4803  0.4214
 1425TIP3    H125766   2.892   5.745   2.411  2.5476  0.9711  1.3711
 1425TIP3    H225767   2.939   5.856   2.320 -1.1935  1.9065  0.3821
 1426TIP3   OH225768   0.830   2.174   0.591  0.3755 -0.4154  0.6381
 1426TIP3    H125769   0.772   2.102   0.568  0.4140 -0.3970  0.4827
 1426TIP3    H225770   0.778   2.253   0.576  0.8363 -0.3386 -0.7065
 1427TIP3   OH225771   2.177   0.692  16.184 -0.4147 -0.2618 -0.2111
 1427TIP3    H125772   2.236   0.631  16.140 -0.2953 -0.1640 -0.1864
 1427TIP3    H225773   2.157   0.758  16.119  1.3280  0.9802  0.4449
 1428TIP3   OH225774   2.534   1.371  11.470 -0.0850 -0.0893  0.3074
 1428TIP3    H125775   2.597   1.431  11.430  2.1483 -0.4293  3.0468
 1428TIP3    H225776   2.465   1.428  11.504 -0.0221  0.5350 -0.5755
 1429TIP3   OH225777   2.455   4.628   0.435 -0.1296 -0.3241  0.1085
 1429TIP3    H125778   2.545   4.637   0.404  0.0636  0.4089  0.8512
 1429TIP3    H225779   2.445   4.535   0.452  0.3747 -0.4615 -0.3135
 1430TIP3   OH225780   1.566   3.333  14.589  0.5225  0.5952  0.2575
 1430TIP3    H125781   1.596   3.253  14.632 -1.0684  0.6903  1.6507
 1430TIP3    H225782   1.554   3.308  14.497 -0.9331 -1.0910  0.8511
 1431TIP3   OH225783   1.094   6.138  13.667  0.3005 -0.4430  0.2396
 1431TIP3    H125784   1.013   6.089  13.682  1.1812 -1.5570  1.6538
 1431TIP3    H225785   1.096   6.152  13.572 -2.6343  1.6418  0.3562
 1432TIP3   OH225786   0.382   0.658  10.674  0.2612  0.2984 -0.0028
 1432TIP3    H125787   0.477   0.661  10.669  0.3337 -0.0866  1.0347
 1432TIP3    H225788   0.362   0.570  10.705 -0.2309  1.5117  3.5036
 1433TIP3   OH225789   2.281   2.504  17.020  0.5195  0.3211 -0.3156
 1433TIP3    H125790   2.244   2.503  17.108 -0.3601  1.6160 -0.6441
 1433TIP3    H225791   2.213   2.464  16.965  0.1160  1.5474 -0.7297
 1434TIP3   OH225792   4.860   3.604  14.734  0.0287 -0.0119 -0.3830
 1434TIP3    H125793   4.940   3.556  14.709  1.5724  2.9998 -1.7464
 1434TIP3    H225794   4.798   3.584  14.663  0.3942 -0.5035 -0.5743
 1435TIP3   OH225795   6.331   5.086   4.380  0.0855 -0.0712 -0.3260
 1435TIP3    H125796   6.326   5.111   4.288 -1.1950  0.3325 -0.1677
 1435TIP3    H225797   6.338   5.170   4.427  1.1465 -0.2935 -0.0697
 1436TIP3   OH225798   0.996   6.598   5.321 -1.2591  0.4184  0.4398
 1436TIP3    H125799   0.920   6.586   5.378 -0.7713 -0.4549  0.9051
 1436TIP3    H225800   1.054   6.656   5.370 -0.9879 -0.0664  0.6951
 1437TIP3   OH225801   3.903   3.749  16.752 -0.1404  0.2055  0.6120
 1437TIP3    H125802   3.994   3.721  16.741 -0.2785 -0.3383  0.8157
 1437TIP3    H225803   3.856   3.669  16.776 -0.8754  0.2628 -0.5597
 1438TIP3   OH225804   6.295   3.171   2.144  0.3029  0.2319 -0.4683
 1438TIP3    H125805   6.240   3.236   2.187 -2.1164 -0.8806 -1.6910
 1438TIP3    H225806   6.293   3.194   2.051 -0.5876 -1.4853 -0.9284
 1439TIP3   OH225807   0.727   3.930   4.540 -0.1120 -0.3040  0.0938
 1439TIP3    H125808   0.699   4.013   4.578  0.1112 -0.8232  1.4354
 1439TIP3    H225809   0.649   3.898   4.494 -0.5639  0.0663  0.5879
 1440TIP3   OH225810   3.480   0.333   1.111  0.9260 -0.7622 -0.2374
 1440TIP3    H125811   3.461   0.328   1.205  0.0163 -2.5659 -0.4932
 1440TIP3    H225812   3.576   0.336   1.107  1.0488 -2.2923  0.7212
 1441TIP3   OH225813   1.189   4.099  16.603  0.4809  0.0762  0.2627
 1441TIP3    H125814   1.259   4.071  16.544 -0.2960 -0.1498 -0.5783
 1441TIP3    H225815   1.235   4.133  16.680  1.5481  1.2808 -0.8502
 1442TIP3   OH225816   6.597   2.208  11.530  0.0547  0.0692 -0.4054
 1442TIP3    H125817   6.660   2.141  11.505  0.1095  0.6426 -1.8848
 1442TIP3    H225818   6.565   2.180  11.616  1.1174 -1.0835 -0.3621
 1443TIP3   OH225819   4.622   0.495   4.133 -0.5270  0.1427  0.1397
 1443TIP3    H125820   4.590   0.570   4.083 -0.6316 -0.4196 -0.6764
 1443TIP3    H225821   4.598   0.419   4.078  2.6902 -0.3117 -0.8133
 1444TIP3   OH225822   5.722   1.459  13.142 -0.1662  0.5907 -0.0363
 1444TIP3    H125823   5.817   1.472  13.148  0.1660 -1.3526 -0.4987
 1444TIP3    H225824   5.697   1.503  13.061  0.7623 -0.8331 -1.1418
 1445TIP3   OH225825   2.223   2.635  10.959 -0.4417 -0.1675  0.1412
 1445TIP3    H125826   2.284   2.699  10.922  0.1585  0.2505  1.7634
 1445TIP3    H225827   2.140   2.683  10.964 -0.1753  0.2575  0.6474
 1446TIP3   OH225828   5.348   0.374  15.850  0.3904  0.0772 -0.1718
 1446TIP3    H125829   5.391   0.368  15.935  0.9774  0.8737 -0.4076
 1446TIP3    H225830   5.351   0.467  15.827 -0.7469  0.0388 -0.5629
 1447TIP3   OH225831   5.302   5.067  13.918 -0.3141  0.2090 -0.0034
 1447TIP3    H125832   5.330   5.158  13.923  0.3709  0.0700 -0.9827
 1447TIP3    H225833   5.262   5.059  13.831  0.7651 -0.7136 -0.4407
 1448TIP3   OH225834   6.819   2.471  14.781 -0.1324  0.1724  0.2139
 1448TIP3    H125835   6.904   2.440  14.813 -0.4726 -1.0850 -0.0269
 1448TIP3    H225836   6.838   2.508  14.695  0.0935 -0.6844 -0.1158
 1449TIP3   OH225837   6.140   3.413   4.741 -0.2311 -0.2169  0.2963
 1449TIP3    H125838   6.119   3.494   4.696 -0.2762 -0.9288 -1.0081
 1449TIP3    H225839   6.215   3.377   4.694 -0.0633 -0.8279  0.9989
 1450TIP3   OH225840   2.095   5.107   3.542 -0.0870 -0.2132  0.1009
 1450TIP3    H125841   2.012   5.105   3.589 -0.6597 -0.7657 -0.9026
 1450TIP3    H225842   2.144   5.032   3.576 -0.6657 -0.8565 -0.4668
 1451TIP3   OH225843   6.201   2.823   0.107 -0.3654  0.1561  0.2583
 1451TIP3    H125844   6.261   2.892   0.133  2.1879 -0.7236 -2.6096
 1451TIP3    H225845   6.159   2.856   0.027  1.5905 -1.7704 -1.7031
 1452TIP3   OH225846   0.636   0.773  10.656 -0.1750  0.0062 -0.3268
 1452TIP3    H125847   0.726   0.742  10.671 -0.1728 -0.3684 -1.0302
 1452TIP3    H225848   0.629   0.854  10.705 -0.2501 -1.2287  1.8112
 1453TIP3   OH225849   3.334   1.068  10.954 -0.6230 -0.0221  0.6256
 1453TIP3    H125850   3.294   1.121  11.023 -1.2124  1.7016 -0.9563
 1453TIP3    H225851   3.364   1.132  10.890  0.9081 -1.5198 -0.2233
 1454TIP3   OH225852   6.239   2.439  11.454  0.3521  0.4154  0.2383
 1454TIP3    H125853   6.185   2.511  11.424  0.0330 -1.0055 -3.0825
 1454TIP3    H225854   6.320   2.480  11.484 -0.4690  2.2327  0.0666
 1455TIP3   OH225855   5.103   5.290   1.433 -0.3031 -0.1072  0.1153
 1455TIP3    H125856   5.180   5.253   1.477  0.0810  0.5163 -0.0272
 1455TIP3    H225857   5.123   5.383   1.424  0.5977 -0.4710 -3.2027
 1456TIP3   OH225858   1.853   3.072  12.696  0.2302 -0.2276  0.1301
 1456TIP3    H125859   1.851   2.976  12.695 -1.3275 -0.2136 -0.8240
 1456TIP3    H225860   1.915   3.094  12.766  2.2573 -1.9328 -1.0038
 1457TIP3   OH225861   4.770   2.488   1.339  0.5356  0.0888  0.2369
 1457TIP3    H125862   4.821   2.567   1.353 -1.0851  0.9368  1.7292
 1457TIP3    H225863   4.776   2.440   1.422  0.4466 -0.7195 -0.2130
 1458TIP3   OH225864   4.489   3.007  13.428  0.1822  0.7205 -0.2137
 1458TIP3    H125865   4.407   3.027  13.473 -0.3531 -0.7306 -0.4840
 1458TIP3    H225866   4.534   2.946  13.486  0.4487  0.4582 -0.6840
 1459TIP3   OH225867   1.096   1.641   5.915  0.3473  0.2483  0.7920
 1459TIP3    H125868   1.027   1.606   5.971  1.3116  0.8602  2.4413
 1459TIP3    H225869   1.163   1.672   5.976  2.9166 -1.8891 -0.7237
 1460TIP3   OH225870   3.786   4.504  15.985 -0.2553  0.5623 -0.2968
 1460TIP3    H125871   3.856   4.443  15.963 -1.1413 -0.5258 -0.1610
 1460TIP3    H225872   3.830   4.574  16.034  0.7951  0.1044 -0.5616
 1461TIP3   OH225873   4.443   0.818   5.246  0.2311  0.4925  0.0253
 1461TIP3    H125874   4.443   0.896   5.190 -1.9793  0.4927 -0.0616
 1461TIP3    H225875   4.386   0.840   5.319 -0.6144 -1.0834 -0.1034
 1462TIP3   OH225876   0.752   0.322  14.394  0.3241  0.0637 -0.5307
 1462TIP3    H125877   0.668   0.303  14.353  0.6918  0.8550 -1.7062
 1462TIP3    H225878   0.814   0.262  14.352  0.4357 -0.2033  0.0029
 1463TIP3   OH225879   2.456   0.740   0.982  0.0746 -0.8519  0.4226
 1463TIP3    H125880   2.483   0.651   0.958 -1.3771 -0.8786 -1.3049
 1463TIP3    H225881   2.374   0.727   1.031  0.4745 -0.5027  1.2070
 1464TIP3   OH225882   0.647   3.140  15.730 -0.2723 -0.1970 -0.5728
 1464TIP3    H125883   0.667   3.103  15.644 -0.3371 -1.1130 -0.1977
 1464TIP3    H225884   0.653   3.066  15.790  1.1173  0.6733  0.4237
 1465TIP3   OH225885   0.835   3.601   4.313 -0.2350 -0.3521 -0.5284
 1465TIP3    H125886   0.880   3.516   4.309  3.1542  1.1451  1.0863
 1465TIP3    H225887   0.793   3.601   4.399 -0.9714 -0.7199 -0.8889
 1466TIP3   OH225888   2.242   1.613  15.752 -0.4345  0.0801 -0.1765
 1466TIP3    H125889   2.330   1.623  15.788  0.0257 -0.3326 -1.1478
 1466TIP3    H225890   2.197   1.556  15.814  0.3883 -0.7399 -0.3092
 1467TIP3   OH225891   0.731   2.838   2.244  0.0052  0.2640  0.5658
 1467TIP3    H125892   0.825   2.856   2.240  0.0840 -0.3596 -1.1808
 1467TIP3    H225893   0.720   2.757   2.194 -1.6354  0.9999 -0.3192
 1468TIP3   OH225894   0.562   4.262   5.237 -0.6228  0.4184  0.0560
 1468TIP3    H125895   0.601   4.322   5.300  1.6196 -1.8254  0.9670
 1468TIP3    H225896   0.471   4.252   5.266 -1.4882  4.0698 -0.7993
 1469TIP3   OH225897   2.946   3.544   0.285 -0.1944 -0.6687  0.0341
 1469TIP3    H125898   3.041   3.541   0.286 -0.1526 -0.4664 -1.2371
 1469TIP3    H225899   2.921   3.477   0.221 -0.9147 -0.7655  0.4047
 1470TIP3   OH225900   2.729   1.045  16.984 -0.1658 -0.9565 -0.6629
 1470TIP3    H125901   2.732   1.081  17.073 -1.5740 -2.3845  0.0256
 1470TIP3    H225902   2.786   1.102  16.933 -0.8277  1.0696  0.7326
 1471TIP3   OH225903   5.414   4.440   5.443 -0.3339  0.2631  0.5289
 1471TIP3    H125904   5.319   4.449   5.432 -0.2759  1.5336  0.8972
 1471TIP3    H225905   5.450   4.516   5.398  0.5490 -0.4037  0.0857
 1472TIP3   OH225906   3.402   6.367   2.325  0.4714  0.6206  0.3664
 1472TIP3    H125907   3.474   6.307   2.304  0.0545  0.4989 -0.8272
 1472TIP3    H225908   3.445   6.449   2.349  1.0222  0.3399  0.3472
 1473TIP3   OH225909   3.494   4.207  11.403  0.0102 -0.2299 -0.6496
 1473TIP3    H125910   3.501   4.111  11.398 -1.3823 -0.3100 -1.5366
 1473TIP3    H225911   3.405   4.226  11.375 -1.0892  1.1013  3.1243
 1474TIP3   OH225912   2.650   1.863   1.478  0.0535 -0.0443  0.6052
 1474TIP3    H125913   2.582   1.924   1.451  1.2740  0.6135 -1.2504
 1474TIP3    H225914   2.615   1.776   1.457 -0.3905  0.2474  0.1274
 1475TIP3   OH225915   5.244   3.508   0.749  0.0863  0.2658  0.3506
 1475TIP3    H125916   5.289   3.592   0.746  1.0652 -0.2710 -1.0603
 1475TIP3    H225917   5.296   3.450   0.693 -0.9349 -1.0994  0.7438
 1476TIP3   OH225918   5.851   1.418  13.514 -0.1734  0.2264 -0.4885
 1476TIP3    H125919   5.907   1.495  13.512  0.8523 -0.4712  0.3171
 1476TIP3    H225920   5.909   1.345  13.493 -0.9938 -0.4077 -0.6385
 1477TIP3   OH225921   0.369   4.795  14.276 -0.5557 -0.1580  0.5712
 1477TIP3    H125922   0.316   4.774  14.353  0.6656 -0.2603  1.4111
 1477TIP3    H225923   0.376   4.713  14.228 -0.8526 -0.2233  0.6361
 1478TIP3   OH225924   0.545   2.048   1.597  0.5894 -0.5613 -0.0897
 1478TIP3    H125925   0.559   2.013   1.509 -0.8866 -0.8184 -0.2490
 1478TIP3    H225926   0.450   2.055   1.605  0.7442  0.6226  1.0380
 1479TIP3   OH225927   0.730   2.873   4.729 -0.0886 -0.5627  0.3836
 1479TIP3    H125928   0.730   2.817   4.651 -1.4489 -1.6978  1.1505
 1479TIP3    H225929   0.660   2.837   4.784  1.9766 -0.9610  2.9697
 1480TIP3   OH225930   3.271   1.186  12.075 -0.1882 -0.1022  0.2153
 1480TIP3    H125931   3.210   1.125  12.117  0.2042 -1.1347 -0.6577
 1480TIP3    H225932   3.222   1.268  12.067 -0.9658 -0.4972  0.7955
 1481TIP3   OH225933   1.867   5.397   0.685  0.2975 -0.4128  0.1211
 1481TIP3    H125934   1.917   5.409   0.765 -0.7914  0.6833  0.6614
 1481TIP3    H225935   1.803   5.329   0.706  2.2587 -2.7504 -0.9506
 1482TIP3   OH225936   1.251   4.798  13.171  0.1367 -0.3811 -0.2885
 1482TIP3    H125937   1.256   4.847  13.090  0.9000 -2.7455 -1.7876
 1482TIP3    H225938   1.162   4.761  13.171  0.1498 -0.4151 -0.0758
 1483TIP3   OH225939   5.753   4.929  16.140 -0.5809 -0.2670  0.7474
 1483TIP3    H125940   5.829   4.950  16.193 -0.1738  0.2299 -0.0103
 1483TIP3    H225941   5.761   4.985  16.063  0.0466 -2.4781 -0.9238
 1484TIP3   OH225942   4.046   5.383   1.377 -0.1639  0.6776  0.5918
 1484TIP3    H125943   4.071   5.311   1.319 -1.8557 -0.0840  0.7572
 1484TIP3    H225944   4.127   5.404   1.424  0.3080 -1.3277  0.7748
 1485TIP3   OH225945   1.357   0.672   4.777 -0.0377 -0.2109  0.0416
 1485TIP3    H125946   1.307   0.656   4.697  2.8654  0.1237 -2.0125
 1485TIP3    H225947   1.296   0.653   4.848 -2.8794 -0.1929 -2.2150
 1486TIP3   OH225948   5.980   5.016   2.703 -0.2576  0.5859 -0.1853
 1486TIP3    H125949   6.033   4.943   2.735 -0.0762  0.7365 -0.1473
 1486TIP3    H225950   5.906   4.973   2.658  0.5906  0.3730 -1.4214
 1487TIP3   OH225951   1.271   0.553   3.712  0.3645 -0.0242 -0.6312
 1487TIP3    H125952   1.187   0.511   3.731  0.1665  0.8058  0.3804
 1487TIP3    H225953   1.311   0.567   3.797  1.3925 -0.0950 -1.0855
 1488TIP3   OH225954   3.732   4.693  16.620  0.2581 -0.5350  0.3474
 1488TIP3    H125955   3.720   4.671  16.527  1.1985 -1.0832  0.3467
 1488TIP3    H225956   3.671   4.765  16.635 -0.2406 -0.7409 -0.5804
 1489TIP3   OH225957   3.028   6.661   1.244 -0.1160  0.0349  0.5041
 1489TIP3    H125958   3.075   6.720   1.302  1.1264  0.4420 -0.8489
 1489TIP3    H225959   3.051   6.573   1.275  0.1702  0.2425  0.8846
 1490TIP3   OH225960   1.735   3.576   5.884 -0.3458 -0.1220  0.5818
 1490TIP3    H125961   1.654   3.578   5.935 -0.9284  0.6702 -0.3308
 1490TIP3    H225962   1.803   3.603   5.944 -1.3364  3.1526  0.4243
 1491TIP3   OH225963   6.545   5.407  15.330 -0.1706  0.3325  0.1340
 1491TIP3    H125964   6.480   5.366  15.387  0.1235 -0.6793 -0.2234
 1491TIP3    H225965   6.626   5.360  15.350  0.4241  1.4735  0.4601
 1492TIP3   OH225966   0.108   3.207   3.053  0.5019  0.5261 -0.4157
 1492TIP3    H125967   0.149   3.199   2.966 -2.4941 -2.7962 -1.7396
 1492TIP3    H225968   0.090   3.301   3.061  0.3021  0.8972 -3.7015
 1493TIP3   OH225969   5.140   3.181  10.991  0.1222  0.0335  0.6999
 1493TIP3    H125970   5.170   3.269  10.971  2.2106 -0.8064 -0.2089
 1493TIP3    H225971   5.167   3.167  11.082  0.1161  0.2030  0.7274
 1494TIP3   OH225972   0.378   5.608  12.131  0.0522 -0.3997  0.1770
 1494TIP3    H125973   0.354   5.625  12.222 -0.3862 -1.2343  0.2286
 1494TIP3    H225974   0.408   5.692  12.098 -0.0960 -0.0138  0.9990
 1495TIP3   OH225975   4.640   0.567  15.123  0.4794  0.1839  0.1451
 1495TIP3    H125976   4.607   0.490  15.076 -0.1418 -0.7397  1.9810
 1495TIP3    H225977   4.732   0.574  15.097  0.1389 -0.2289 -1.2384
 1496TIP3   OH225978   0.063   2.168   4.216 -0.1375 -0.1071  0.1006
 1496TIP3    H125979   0.018   2.125   4.289  1.6419 -1.6514  0.3526
 1496TIP3    H225980   0.066   2.101   4.148  1.5219  0.0257  0.0137
 1497TIP3   OH225981   2.337   0.232   2.519  0.4255  0.5587  0.4670
 1497TIP3    H125982   2.423   0.271   2.503  0.0373  0.9525 -0.8305
 1497TIP3    H225983   2.340   0.149   2.471  0.2571  0.3197  0.8629
 1498TIP3   OH225984   6.438   5.389  15.688  0.3105  0.0333  0.1991
 1498TIP3    H125985   6.435   5.468  15.741  1.0721  0.7822 -0.8479
 1498TIP3    H225986   6.526   5.355  15.700  0.8631  0.8266 -1.4372
 1499TIP3   OH225987   1.266   1.499  16.810 -0.2725  0.2997  0.4631
 1499TIP3    H125988   1.337   1.457  16.859  0.7237  0.2116 -0.9952
 1499TIP3    H225989   1.287   1.592  16.813  2.5919  0.0257 -3.7634
 1500TIP3   OH225990   3.560   6.242   4.199  0.1299  0.2647 -0.0228
 1500TIP3    H125991   3.604   6.261   4.282 -0.3925  0.7732  0.1452
 1500TIP3    H225992   3.469   6.268   4.214  0.1703  1.0229 -0.9729
 1501TIP3   OH225993   5.230   6.553  15.270  0.3585  0.0148  0.2582
 1501TIP3    H125994   5.232   6.457  15.261  1.4062  0.0521 -0.0920
 1501TIP3    H225995   5.248   6.569  15.362  2.8018 -0.0943 -0.1407
 1502TIP3   OH225996   1.115   2.698  16.245 -0.4559  0.5712 -0.4304
 1502TIP3    H125997   1.130   2.619  16.298 -0.6208  0.9122  0.1293
 1502TIP3    H225998   1.202   2.735  16.234 -0.5786  1.3252  0.9089
 1503TIP3   OH225999   2.408   0.609  14.658 -0.6952  0.0566 -0.6335
 1503TIP3    H126000   2.405   0.574  14.748 -2.7081 -0.2634 -0.7848
 1503TIP3    H226001   2.469   0.551  14.613 -0.0758 -0.1212  0.3792
 1504TIP3   OH226002   6.173   5.965  14.445 -0.3534  0.1766 -0.0559
 1504TIP3    H126003   6.103   5.927  14.391 -0.2554  0.6444 -0.5196
 1504TIP3    H226004   6.180   5.905  14.519 -0.8921 -0.1626 -0.2641
 1505TIP3   OH226005   5.356   1.064   1.103  0.2686 -0.0012 -0.4135
 1505TIP3    H126006   5.352   1.087   1.010 -0.2962  0.5457 -0.2620
 1505TIP3    H226007   5.448   1.044   1.119  0.1702 -1.3537 -1.3890
 1506TIP3   OH226008   0.550   3.199   0.925  0.9158  0.1346 -0.3392
 1506TIP3    H126009   0.548   3.288   0.890  0.5816  0.7020  1.0487
 1506TIP3    H226010   0.495   3.203   1.003 -1.2621 -1.9297 -1.6324
 1507TIP3   OH226011   1.793   3.431   2.464 -0.4721 -0.4999 -0.2946
 1507TIP3    H126012   1.707   3.408   2.499 -1.4289  1.5995 -1.0881
 1507TIP3    H226013   1.855   3.376   2.512 -2.2896 -2.4324 -0.0666
 1508TIP3   OH226014   6.728   2.732  16.578 -0.4099 -0.3759 -0.3447
 1508TIP3    H126015   6.653   2.680  16.549 -0.1161 -2.4054  2.1398
 1508TIP3    H226016   6.797   2.712  16.515 -1.4344  0.1950 -1.6951
 1509TIP3   OH226017   4.901   6.383  13.105  0.1981 -0.4961 -0.4278
 1509TIP3    H126018   4.951   6.455  13.065  1.1068  0.1606  1.7522
 1509TIP3    H226019   4.945   6.304  13.076 -0.3537 -0.1781 -2.2579
 1510TIP3   OH226020   4.641   5.337  15.152 -0.1813 -0.0293 -0.1461
 1510TIP3    H126021   4.720   5.347  15.205 -0.2302 -1.0625  0.1346
 1510TIP3    H226022   4.600   5.424  15.154  1.1370  0.6385 -0.6368
 1511TIP3   OH226023   1.222   1.176  14.759  0.3072  0.2005 -0.3518
 1511TIP3    H126024   1.277   1.242  14.800 -2.3216  2.0798  0.4504
 1511TIP3    H226025   1.227   1.195  14.665  0.1194  1.1360 -0.1834
 1512TIP3   OH226026   3.378   0.339  12.025 -0.6703  0.2059 -0.0186
 1512TIP3    H126027   3.344   0.310  12.110 -2.2308 -1.9997 -1.3310
 1512TIP3    H226028   3.304   0.382  11.982  0.5361  2.7934  0.2675
 1513TIP3   OH226029   2.375   4.112   6.010 -0.8773  0.1877 -0.2027
 1513TIP3    H126030   2.412   4.179   5.952 -3.1901  1.8706  0.1235
 1513TIP3    H226031   2.378   4.152   6.097 -2.0717 -0.2231  0.0436
 1514TIP3   OH226032   1.008   1.339  15.310 -0.7986 -0.0341  0.2922
 1514TIP3    H126033   0.975   1.427  15.294  0.3603  0.3095 -0.3621
 1514TIP3    H226034   1.055   1.316  15.229 -0.0981 -0.7778  0.8892
 1515TIP3   OH226035   2.416   6.764  14.519  0.0452 -0.1282 -0.2344
 1515TIP3    H126036   2.403   6.845  14.568  1.1607 -1.2137  2.0434
 1515TIP3    H226037   2.335   6.714  14.533  0.1346 -0.1956  0.0685
 1516TIP3   OH226038   3.233   1.347  11.570 -0.5301  0.4714 -0.1511
 1516TIP3    H126039   3.239   1.251  11.573 -0.0093  0.4875 -0.5886
 1516TIP3    H226040   3.291   1.376  11.640 -0.9720  0.4705  0.2295
 1517TIP3   OH226041   2.591   4.842   2.385 -0.0347  0.2293 -0.0877
 1517TIP3    H126042   2.510   4.813   2.428  0.4480 -1.0943 -0.0295
 1517TIP3    H226043   2.579   4.820   2.293 -0.6650  2.1746 -0.5249
 1518TIP3   OH226044   4.191   3.600   5.381  0.2643 -0.0051  0.4199
 1518TIP3    H126045   4.196   3.513   5.341 -2.1705 -0.3883  0.8231
 1518TIP3    H226046   4.283   3.626   5.392  1.1842 -3.3030  1.9491
 1519TIP3   OH226047   3.356   5.264   1.784 -0.0921  0.4122 -0.1004
 1519TIP3    H126048   3.280   5.282   1.840  1.8568 -1.2522  3.4811
 1519TIP3    H226049   3.355   5.169   1.773  1.3795  0.3710 -0.0715
 1520TIP3   OH226050   5.927   1.535  11.211 -0.4847 -0.4912 -0.0286
 1520TIP3    H126051   5.955   1.602  11.273 -0.8586  0.7533 -1.1806
 1520TIP3    H226052   5.846   1.500  11.247  0.6131 -1.6229  1.4927
 1521TIP3   OH226053   0.434   6.160   5.646  0.1393  0.6637  0.5929
 1521TIP3    H126054   0.378   6.236   5.633 -0.7529 -0.0611  0.0662
 1521TIP3    H226055   0.499   6.189   5.711 -1.7850  1.0515  2.4626
 1522TIP3   OH226056   3.836   4.852  12.294 -0.1638  0.1899  0.6388
 1522TIP3    H126057   3.803   4.794  12.225 -0.2437  0.6318  0.3015
 1522TIP3    H226058   3.760   4.868  12.350 -0.1222 -0.0929  0.7765
 1523TIP3   OH226059   4.593   2.731   2.497 -0.1419  0.0822 -0.0323
 1523TIP3    H126060   4.507   2.758   2.529 -0.1423 -0.4598  0.4556
 1523TIP3    H226061   4.626   2.671   2.565  0.0881 -0.6813 -0.7989
 1524TIP3   OH226062   6.364   1.885   4.811  0.4417  0.3889  0.4793
 1524TIP3    H126063   6.419   1.836   4.751 -1.8643 -2.3701  0.3774
 1524TIP3    H226064   6.403   1.871   4.897  1.5012  0.9369  0.0926
 1525TIP3   OH226065   2.028   6.105   4.950 -0.1177  0.4324  0.1841
 1525TIP3    H126066   2.070   6.028   4.913 -1.1776  0.6566 -1.6099
 1525TIP3    H226067   2.086   6.178   4.927  0.0916  0.3649  0.4944
 1526TIP3   OH226068   3.162   4.408   3.568 -0.1129  0.2973  0.1110
 1526TIP3    H126069   3.073   4.407   3.534 -0.6560 -0.4752  1.4637
 1526TIP3    H226070   3.208   4.341   3.518 -0.2142  0.8369 -0.7289
 1527TIP3   OH226071   2.438   3.933   0.728 -0.2346 -0.0588  0.3799
 1527TIP3    H126072   2.477   4.002   0.674 -2.1898  0.3426 -0.6351
 1527TIP3    H226073   2.388   3.981   0.794  0.8718 -0.5570  1.6270
 1528TIP3   OH226074   4.132   5.473  15.596  0.0321  0.5102 -0.0073
 1528TIP3    H126075   4.212   5.459  15.547  1.1473 -0.4840  1.9414
 1528TIP3    H226076   4.150   5.549  15.652 -0.7786  0.9342 -0.3035
 1529TIP3   OH226077   5.451   6.654  14.205 -0.0437 -0.4100 -1.0471
 1529TIP3    H126078   5.401   6.584  14.163  3.0097 -0.9314 -4.3268
 1529TIP3    H226079   5.456   6.723  14.138 -0.8699  2.0366  1.1975
 1530TIP3   OH226080   2.856   2.010   0.118 -0.3153 -0.0835 -0.0752
 1530TIP3    H126081   2.863   2.056   0.202  0.8076  1.5051 -0.9945
 1530TIP3    H226082   2.770   2.032   0.085 -1.0729 -1.3307  0.9699
 1531TIP3   OH226083   1.587   1.310   5.682  0.3530 -0.3387 -0.3543
 1531TIP3    H126084   1.569   1.220   5.708  1.0500 -0.8868 -1.6750
 1531TIP3    H226085   1.649   1.342   5.749 -0.1072 -0.7349  0.2699
 1532TIP3   OH226086   4.272   1.961  15.134  0.6274 -0.2115  1.1184
 1532TIP3    H126087   4.289   2.035  15.193  0.2338 -0.7857  1.9681
 1532TIP3    H226088   4.288   1.884  15.188  0.5133 -0.7531  0.3856
 1533TIP3   OH226089   0.439   2.957  15.417 -0.3041 -1.0798 -0.2832
 1533TIP3    H126090   0.385   2.958  15.338  0.1228 -2.9637 -0.6542
 1533TIP3    H226091   0.529   2.965  15.384 -0.0114 -3.2981 -0.1817
 1534TIP3   OH226092   5.439   0.675  11.735 -0.7634  0.3195  0.0204
 1534TIP3    H126093   5.472   0.743  11.793 -1.8779  2.6501 -1.9093
 1534TIP3    H226094   5.374   0.629  11.788 -0.5242  1.2510  1.1692
 1535TIP3   OH226095   4.764   0.521   2.092 -0.4032 -0.1683 -0.2618
 1535TIP3    H126096   4.715   0.469   2.028  0.4209 -2.9298  1.1560
 1535TIP3    H226097   4.713   0.514   2.173  0.9545 -0.9239  0.5751
 1536TIP3   OH226098   3.375   1.526  12.765 -0.3336 -0.5598 -0.2651
 1536TIP3    H126099   3.376   1.431  12.777  0.0512 -0.8757 -2.4142
 1536TIP3    H226100   3.283   1.549  12.762 -0.4423 -1.0725 -1.0420
 1537TIP3   OH226101   2.226   6.689  13.991  0.0150  0.0702  0.3585
 1537TIP3    H126102   2.309   6.641  13.990 -0.0585 -0.0521 -0.1658
 1537TIP3    H226103   2.205   6.700  14.084 -0.0425 -1.0422  0.4809
 1538TIP3   OH226104   5.455   0.080   4.802  0.3887  0.4515  0.0884
 1538TIP3    H126105   5.393   0.068   4.873  0.3730  0.9539  0.1644
 1538TIP3    H226106   5.518   0.008   4.812 -0.8448 -0.7741 -0.7135
 1539TIP3   OH226107   6.749   6.461  12.635 -0.0111  0.1241 -0.4026
 1539TIP3    H126108   6.678   6.499  12.687 -0.3393  0.8336 -1.3346
 1539TIP3    H226109   6.828   6.504  12.667 -0.1842  0.4180 -0.3658
 1540TIP3   OH226110   1.258   4.505   2.162 -0.4576  0.1408 -0.7221
 1540TIP3    H126111   1.305   4.577   2.202 -1.3311  0.1189  0.3822
 1540TIP3    H226112   1.238   4.536   2.073  2.6479 -0.3260 -1.6942
 1541TIP3   OH226113   2.891   5.513   6.049 -0.1913  0.3846 -0.5644
 1541TIP3    H126114   2.938   5.567   6.113  1.3310 -0.3032 -1.0588
 1541TIP3    H226115   2.940   5.523   5.968 -1.7272  0.7193 -1.4877
 1542TIP3   OH226116   2.737   2.858  14.551  0.5200  0.7283  0.1565
 1542TIP3    H126117   2.798   2.859  14.625 -1.4807 -1.3700  1.9778
 1542TIP3    H226118   2.659   2.903  14.583 -0.9592 -1.5473 -0.0231
 1543TIP3   OH226119   1.990   3.839   1.636 -0.5861 -0.0856  0.1128
 1543TIP3    H126120   2.057   3.833   1.705  0.5971 -0.0292 -0.9973
 1543TIP3    H226121   2.030   3.797   1.560 -0.9351  1.8893 -1.2383
 1544TIP3   OH226122   1.788   3.904   2.965 -0.7515  0.2267  0.0863
 1544TIP3    H126123   1.693   3.895   2.974 -0.7198 -1.5544 -0.8059
 1544TIP3    H226124   1.811   3.843   2.894  0.7536  2.4517 -1.4968
 1545TIP3   OH226125   5.984   2.375  13.153 -0.5414  0.3509  0.0820
 1545TIP3    H126126   5.893   2.361  13.129 -0.6731 -1.1643  1.3337
 1545TIP3    H226127   6.023   2.417  13.076 -2.1069  0.3341 -0.7513
 1546TIP3   OH226128   5.833   5.308   5.461 -0.3164 -0.6163  0.2016
 1546TIP3    H126129   5.865   5.387   5.417 -1.8988 -0.3531 -0.5356
 1546TIP3    H226130   5.770   5.340   5.526 -1.8029 -1.3083 -0.8504
 1547TIP3   OH226131   4.027   5.751   4.746  0.2164  1.0170  0.2424
 1547TIP3    H126132   3.989   5.684   4.802  0.3930  0.0037 -0.8214
 1547TIP3    H226133   3.972   5.753   4.668  2.0076 -0.1995 -1.1484
 1548TIP3   OH226134   0.310   3.249  12.226  0.2838 -0.1644 -0.5777
 1548TIP3    H126135   0.321   3.199  12.307  0.7926 -1.0827 -1.1822
 1548TIP3    H226136   0.373   3.321  12.233  0.0332 -0.0044  0.0170
 1549TIP3   OH226137   2.183   6.524  15.440 -0.5932  0.0824  0.2456
 1549TIP3    H126138   2.228   6.597  15.398  0.5152 -0.2085  0.8895
 1549TIP3    H226139   2.115   6.499  15.378  0.7078 -0.0516 -1.1842
 1550TIP3   OH226140   4.156   3.849   0.973 -0.0389 -0.4615 -0.1277
 1550TIP3    H126141   4.139   3.927   0.919  0.3909 -0.3720 -0.1368
 1550TIP3    H226142   4.092   3.854   1.044  1.3829  1.0852  1.1246
 1551TIP3   OH226143   1.201   1.653   3.984  0.6142 -0.8261 -0.0902
 1551TIP3    H126144   1.233   1.563   3.987  2.8976 -0.0916 -0.3067
 1551TIP3    H226145   1.246   1.696   4.056  1.5662  0.6942 -1.5171
 1552TIP3   OH226146   2.449   0.151   4.559  0.0268 -0.3330  0.0930
 1552TIP3    H126147   2.409   0.070   4.591  0.3497 -0.4850  0.1121
 1552TIP3    H226148   2.507   0.179   4.629 -0.7282  0.3801  0.4459
 1553TIP3   OH226149   1.836   5.172   2.184 -0.6902  0.1318  0.0082
 1553TIP3    H126150   1.775   5.169   2.110  0.1160  1.7704 -0.7823
 1553TIP3    H226151   1.920   5.147   2.146 -0.5789 -0.6836  0.7690
 1554TIP3   OH226152   4.414   5.957  12.715 -0.1766 -0.0668  0.0183
 1554TIP3    H126153   4.420   5.910  12.631  0.2190 -0.6847  0.3799
 1554TIP3    H226154   4.321   5.955  12.737 -0.3386  0.4352 -0.5890
 1555TIP3   OH226155   0.660   0.256  13.004  0.7091  0.0852 -1.1627
 1555TIP3    H126156   0.610   0.331  12.973  1.1304  0.0325 -1.9893
 1555TIP3    H226157   0.741   0.294  13.039  0.3846  0.1147 -0.4257
 1556TIP3   OH226158   1.050   1.228   3.238 -0.7080  0.0827 -0.3455
 1556TIP3    H126159   0.969   1.189   3.207 -2.2253  2.1303  0.8440
 1556TIP3    H226160   1.063   1.305   3.182  0.3904 -0.1607 -0.4638
 1557TIP3   OH226161   5.254   4.793  16.190  0.3788  0.5349  0.3311
 1557TIP3    H126162   5.320   4.808  16.122 -0.6346 -0.1306 -0.8291
 1557TIP3    H226163   5.223   4.880  16.214  0.0004  0.7279 -0.8214
 1558TIP3   OH226164   3.761   0.983  16.143  0.1010  0.1097  0.3249
 1558TIP3    H126165   3.804   1.045  16.085  0.0698 -1.8484 -1.9428
 1558TIP3    H226166   3.667   0.994  16.126 -0.1006  1.2952  1.9787
 1559TIP3   OH226167   3.207   5.190   5.405 -0.3304  0.6504 -0.7301
 1559TIP3    H126168   3.236   5.149   5.323  0.1261 -0.6698  0.0537
 1559TIP3    H226169   3.159   5.120   5.450 -1.6863  1.7333 -0.4220
 1560TIP3   OH226170   4.730   0.399   4.380  0.1736 -0.1495 -0.4582
 1560TIP3    H126171   4.688   0.433   4.301 -0.3341  1.5910  0.5013
 1560TIP3    H226172   4.662   0.346   4.423 -0.3892  0.9523  0.0420
 1561TIP3   OH226173   2.396   1.886   0.945  0.4168  0.3035  0.4934
 1561TIP3    H126174   2.330   1.889   0.876  1.3624  3.1111 -0.4215
 1561TIP3    H226175   2.382   1.801   0.988 -1.8106 -0.4644 -1.5288
 1562TIP3   OH226176   3.480   0.445  10.665 -0.4401  0.7955  0.0991
 1562TIP3    H126177   3.471   0.518  10.603  1.4772  1.4238  0.4903
 1562TIP3    H226178   3.572   0.421  10.660 -1.0129 -1.6127  0.0175
 1563TIP3   OH226179   4.257   3.672   0.530  0.6066  0.0108 -0.0608
 1563TIP3    H126180   4.273   3.687   0.624 -1.6601  0.8192  0.2687
 1563TIP3    H226181   4.331   3.714   0.486  2.6006 -1.7773  1.3453
 1564TIP3   OH226182   6.391   0.875  16.091  0.6680  0.0602  0.4098
 1564TIP3    H126183   6.466   0.818  16.105 -0.0299 -1.0440 -0.2199
 1564TIP3    H226184   6.362   0.898  16.179  1.0725 -0.3892  0.6696
 1565TIP3   OH226185   6.778   0.482   1.787  0.0405 -0.1550 -0.7056
 1565TIP3    H126186   6.830   0.440   1.719  0.1008  0.1583 -0.8541
 1565TIP3    H226187   6.841   0.534   1.837 -0.1588  0.3821 -1.0080
 1566TIP3   OH226188   4.456   3.882  16.360 -0.6466  0.0378  0.3507
 1566TIP3    H126189   4.487   3.956  16.412 -1.1413  2.0458 -2.0514
 1566TIP3    H226190   4.533   3.826  16.349 -0.0578  0.5710  1.5256
 1567TIP3   OH226191   2.010   2.034   6.477  0.0589  0.0302 -0.5121
 1567TIP3    H126192   2.024   2.098   6.408  0.7866 -0.8444 -1.1980
 1567TIP3    H226193   2.090   1.982   6.478 -0.7240 -1.2101 -0.3440
 1568TIP3   OH226194   4.423   4.886   6.026 -0.1858  0.1922 -0.3283
 1568TIP3    H126195   4.379   4.969   6.013  0.2104  0.3307 -0.7872
 1568TIP3    H226196   4.352   4.821   6.031 -0.5674  0.6708  1.0938
 1569TIP3   OH226197   4.380   4.219  16.362  0.0473 -0.4361 -0.3797
 1569TIP3    H126198   4.434   4.236  16.285 -0.9719 -0.1451 -1.0542
 1569TIP3    H226199   4.389   4.298  16.416  2.9890 -1.7124  1.2365
 1570TIP3   OH226200   3.105   3.307  11.730  0.4643  0.0974 -0.0232
 1570TIP3    H126201   3.064   3.393  11.740  0.5039  0.1531 -0.3440
 1570TIP3    H226202   3.067   3.255  11.801 -0.2375  0.1210 -0.3751
 1571TIP3   OH226203   0.364   3.700   0.172 -0.2006 -0.6298  0.4484
 1571TIP3    H126204   0.290   3.753   0.144 -1.2913 -1.5229  1.4837
 1571TIP3    H226205   0.415   3.686   0.093 -0.9201  0.3417 -0.2125
 1572TIP3   OH226206   3.611   6.295  15.948 -0.3459 -0.1969  0.6107
 1572TIP3    H126207   3.657   6.236  16.007 -0.3941 -0.0766  0.7680
 1572TIP3    H226208   3.531   6.249  15.924 -1.3948  0.6332  2.3482
 1573TIP3   OH226209   4.323   1.720  11.796  0.2857  0.3700 -0.0369
 1573TIP3    H126210   4.295   1.702  11.707  0.5627 -0.1077 -0.0329
 1573TIP3    H226211   4.415   1.744  11.789  1.0967 -2.3283  0.3661
 1574TIP3   OH226212   2.119   1.793  12.876  0.0238  0.1089 -0.1967
 1574TIP3    H126213   2.068   1.761  12.801  0.2319  1.0031 -0.7313
 1574TIP3    H226214   2.198   1.739  12.876 -0.6400 -0.8893  0.2798
 1575TIP3   OH226215   1.351   5.473   1.864  0.0341 -0.0344  0.4431
 1575TIP3    H126216   1.398   5.496   1.943 -2.4080  1.0825  1.6667
 1575TIP3    H226217   1.360   5.549   1.807 -0.9188  0.5199  1.0110
 1576TIP3   OH226218   0.628   2.608   1.471 -0.3935 -0.0007 -0.0326
 1576TIP3    H126219   0.722   2.590   1.478 -0.4769 -1.0309 -1.1725
 1576TIP3    H226220   0.623   2.702   1.453  0.5107 -0.1460 -1.1854
 1577TIP3   OH226221   3.497   4.409   5.878 -0.0647  0.4619 -0.6778
 1577TIP3    H126222   3.554   4.335   5.900 -1.7894 -0.9544 -0.8125
 1577TIP3    H226223   3.516   4.474   5.946  0.3969 -0.7162  0.3626
 1578TIP3   OH226224   1.163   1.371   3.990  0.2202 -0.0571 -0.4155
 1578TIP3    H126225   1.144   1.283   4.021 -1.6822 -0.2223 -1.8648
 1578TIP3    H226226   1.233   1.360   3.926 -0.8917 -0.7124 -1.5413
 1579TIP3   OH226227   2.026   6.738   0.463 -0.3285 -0.2545 -0.4700
 1579TIP3    H126228   2.122   6.747   0.464 -0.4167  1.4252  1.7592
 1579TIP3    H226229   2.010   6.646   0.484  0.7899 -0.6229 -1.1647
 1580TIP3   OH226230   5.153   1.923  12.752  0.3477  0.1177  0.4906
 1580TIP3    H126231   5.161   1.829  12.735  0.6810  0.6246 -2.6241
 1580TIP3    H226232   5.060   1.941  12.739  0.3215  0.2914  0.8926
 1581TIP3   OH226233   3.416   0.264   3.837  0.0068  0.3003 -0.9008
 1581TIP3    H126234   3.327   0.235   3.815 -0.5508  1.2246  0.0851
 1581TIP3    H226235   3.471   0.223   3.770 -0.9916 -1.3485 -0.7743
 1582TIP3   OH226236   5.601   1.333  12.749  0.3188  0.2437 -0.0458
 1582TIP3    H126237   5.633   1.404  12.804 -1.5797  1.2137 -0.0892
 1582TIP3    H226238   5.663   1.330  12.676  1.6367  0.3922  1.0259
 1583TIP3   OH226239   3.331   3.312   0.121 -0.2805 -0.1718 -0.5535
 1583TIP3    H126240   3.318   3.234   0.067 -1.0544 -0.1949 -0.3499
 1583TIP3    H226241   3.421   3.339   0.103  0.5098 -1.9522  0.4593
 1584TIP3   OH226242   0.050   2.818   4.291 -0.4316 -0.0773 -0.1890
 1584TIP3    H126243   0.051   2.725   4.269  3.3526 -0.2099 -0.1817
 1584TIP3    H226244   0.009   2.860   4.216 -0.4759 -1.6379 -1.0770
 1585TIP3   OH226245   1.729   0.788   2.700 -0.4884 -0.1749 -0.3911
 1585TIP3    H126246   1.735   0.839   2.780  3.0601  0.5230 -0.8988
 1585TIP3    H226247   1.687   0.846   2.637 -0.2127  0.5866  0.1080
 1586TIP3   OH226248   3.685   4.255   4.977 -0.4275 -0.3750  0.1492
 1586TIP3    H126249   3.680   4.218   5.065  0.1529 -0.6986  0.0521
 1586TIP3    H226250   3.672   4.181   4.919 -0.0558 -0.2939 -0.0417
 1587TIP3   OH226251   2.721   5.216   2.098  0.2727 -0.0557 -0.4711
 1587TIP3    H126252   2.739   5.126   2.070  0.9023  0.3393 -1.3768
 1587TIP3    H226253   2.635   5.236   2.062  0.0856 -0.3197 -0.1798
 1588TIP3   OH226254   3.576   2.008  13.973 -0.4320  0.3280  0.0069
 1588TIP3    H126255   3.512   2.026  13.904 -1.2823  0.4052  0.7958
 1588TIP3    H226256   3.608   1.920  13.954 -0.9377  0.1989 -0.2716
 1589TIP3   OH226257   5.273   1.038  13.739  0.0902  0.3008 -0.2424
 1589TIP3    H126258   5.229   0.967  13.786 -0.0482  0.0352 -0.7585
 1589TIP3    H226259   5.364   1.010  13.732 -0.2367 -0.5228 -1.6918
 1590TIP3   OH226260   3.167   5.206   3.437 -0.2299 -0.4388 -0.1954
 1590TIP3    H126261   3.121   5.206   3.353 -2.3869 -2.4625  0.8674
 1590TIP3    H226262   3.259   5.192   3.414 -0.4626  0.9418 -2.2779
 1591TIP3   OH226263   2.716   5.634   0.577 -0.4174  1.0375 -0.3402
 1591TIP3    H126264   2.623   5.626   0.598 -0.4628 -0.7949 -1.0276
 1591TIP3    H226265   2.733   5.560   0.519  1.3062  1.8045 -0.8550
 1592TIP3   OH226266   3.338   5.786   5.147  0.3852 -0.2305 -0.4535
 1592TIP3    H126267   3.283   5.839   5.204  1.3330  0.5526 -0.2460
 1592TIP3    H226268   3.427   5.801   5.179  0.7873 -0.9381 -1.2123
 1593TIP3   OH226269   5.221   1.167   0.877  0.3565 -0.2922  0.1370
 1593TIP3    H126270   5.153   1.122   0.825  0.4696  0.5063 -0.7187
 1593TIP3    H226271   5.251   1.238   0.821  1.8032 -0.5314  0.5757
 1594TIP3   OH226272   2.718   0.018   4.497  0.5419 -0.5034 -0.2966
 1594TIP3    H126273   2.753  -0.027   4.573  1.2417 -1.4990 -1.1751
 1594TIP3    H226274   2.781   0.089   4.481  0.8158 -0.7583 -0.3790
 1595TIP3   OH226275   4.775   3.574   0.290  0.5228  0.6779 -0.1326
 1595TIP3    H126276   4.856   3.619   0.268  0.4839  1.2072  0.7431
 1595TIP3    H226277   4.730   3.563   0.206 -0.2933  3.8949 -0.2697
 1596TIP3   OH226278   4.280   6.355   0.261  0.8463 -0.0299  0.7412
 1596TIP3    H126279   4.233   6.368   0.344  0.8996 -0.4408  0.8408
 1596TIP3    H226280   4.214   6.372   0.193  1.4465  2.9059  0.7833
 1597TIP3   OH226281   0.876   5.793   0.582 -0.1617  0.3138  0.2722
 1597TIP3    H126282   0.808   5.778   0.648 -0.4402  0.7001  0.0818
 1597TIP3    H226283   0.930   5.714   0.584 -0.8087 -0.1402  0.2022
 1598TIP3   OH226284   4.831   1.000   4.954 -0.9163  0.2588  0.1854
 1598TIP3    H126285   4.851   1.056   4.879 -1.5815 -0.6677 -0.7143
 1598TIP3    H226286   4.803   1.061   5.023 -2.4811  1.0226 -1.0491
 1599TIP3   OH226287   6.656   0.965  13.183 -0.9074  0.7306  0.3385
 1599TIP3    H126288   6.591   0.987  13.251 -2.4109  0.9194 -1.0930
 1599TIP3    H226289   6.632   1.021  13.109 -1.3285 -1.6983 -1.4716
 1600TIP3   OH226290   2.699   1.775   0.802  0.1670  0.3545  0.6489
 1600TIP3    H126291   2.663   1.706   0.747  2.3181 -0.2365 -0.0873
 1600TIP3    H226292   2.737   1.730   0.877  0.0082  0.9093  1.0789
 1601TIP3   OH226293   5.602   2.133  16.893  0.1443 -0.2713  0.8199
 1601TIP3    H126294   5.651   2.069  16.841  1.4151  0.2599  1.3326
 1601TIP3    H226295   5.584   2.088  16.975  1.0899  0.0165  1.2033
 1602TIP3   OH226296   4.896   1.211   1.542  0.7500  0.7200  0.2706
 1602TIP3    H126297   4.899   1.234   1.449 -2.0872 -1.4859 -0.5161
 1602TIP3    H226298   4.969   1.151   1.554  0.7876  0.5435 -0.7202
 1603TIP3   OH226299   5.199   1.282   4.645 -0.1807 -0.4598  0.1418
 1603TIP3    H126300   5.154   1.298   4.728  2.1563 -0.2553  1.4732
 1603TIP3    H226301   5.225   1.369   4.616  0.6065 -0.6719  0.1878
 1604TIP3   OH226302   6.672   4.082  15.328  0.3104 -0.1050 -0.2350
 1604TIP3    H126303   6.705   3.992  15.316 -2.5586 -0.8702 -4.4351
 1604TIP3    H226304   6.585   4.070  15.366  0.8165  1.1810  1.4498
 1605TIP3   OH226305   0.064   2.233   0.891 -0.6758  0.2246 -0.4957
 1605TIP3    H126306   0.068   2.211   0.798  0.4989 -1.6288 -0.0686
 1605TIP3    H226307   0.155   2.227   0.920 -1.2096 -0.7683  1.0671
 1606TIP3   OH226308   5.046   5.973  16.195 -0.6055 -0.5905  0.1966
 1606TIP3    H126309   5.054   6.068  16.191 -2.5557 -0.4275 -1.4115
 1606TIP3    H226310   5.128   5.944  16.236  1.4361  1.5569 -2.0126
 1607TIP3   OH226311   1.950   0.212   4.330 -0.7009  0.0353  0.4651
 1607TIP3    H126312   1.984   0.152   4.264  0.5717  0.6173  0.5428
 1607TIP3    H226313   1.929   0.157   4.405  3.5513 -0.1154  1.7929
 1608TIP3   OH226314   1.441   4.266   5.722 -0.1791  0.6191 -0.6612
 1608TIP3    H126315   1.388   4.228   5.792 -0.7774  2.6128  0.0234
 1608TIP3    H226316   1.380   4.279   5.649  0.0503  0.1671 -0.9379
 1609TIP3   OH226317   6.779   2.957  13.262 -0.0714 -0.5292 -0.1862
 1609TIP3    H126318   6.690   2.992  13.273 -0.3099 -1.3082  0.5080
 1609TIP3    H226319   6.781   2.880  13.319  0.9433 -0.7217 -0.4676
 1610TIP3   OH226320   6.513   4.520   2.383  0.2405  0.0541 -0.6562
 1610TIP3    H126321   6.583   4.534   2.447  0.9628  0.2601 -1.4590
 1610TIP3    H226322   6.539   4.573   2.308  0.2762 -1.4415 -1.7502
 1611TIP3   OH226323   5.910   5.111  13.242 -0.5373  0.0393  0.1780
 1611TIP3    H126324   5.866   5.116  13.157  1.3196  0.7437 -0.8022
 1611TIP3    H226325   5.892   5.023  13.274 -0.8539 -0.4102 -1.1835
 1612TIP3   OH226326   3.607   2.329   3.569 -0.2651  0.0844  0.3064
 1612TIP3    H126327   3.548   2.328   3.645 -0.6098 -0.8522  0.0316
 1612TIP3    H226328   3.572   2.262   3.510 -0.2782  1.1276 -0.9035
 1613TIP3   OH226329   6.098   2.681  12.193  0.7923  0.2107  0.0019
 1613TIP3    H126330   6.128   2.749  12.253  1.7948 -1.9607  2.1022
 1613TIP3    H226331   6.168   2.672  12.129  1.7122 -0.3941  1.0734
 1614TIP3   OH226332   1.052   4.486  13.998  0.0694  0.3922 -0.0050
 1614TIP3    H126333   1.025   4.577  13.993 -0.2153  0.2675 -0.9395
 1614TIP3    H226334   0.971   4.436  13.987  0.0988  0.0219  1.3638
 1615TIP3   OH226335   6.661   6.485   1.903 -0.0022 -0.3261  0.8537
 1615TIP3    H126336   6.632   6.491   1.812  1.7228  0.8664  0.3411
 1615TIP3    H226337   6.584   6.512   1.954 -0.4170  0.8864 -0.3505
 1616TIP3   OH226338   3.303   4.901  12.202 -0.0559  0.1279  0.2305
 1616TIP3    H126339   3.238   4.831  12.200  0.0095 -0.0467  2.2381
 1616TIP3    H226340   3.362   4.876  12.273  1.1921  1.1683 -0.4167
 1617TIP3   OH226341   4.815   1.531   0.786 -0.2301  0.5758  0.4541
 1617TIP3    H126342   4.784   1.449   0.747  1.9963 -1.1833  2.1167
 1617TIP3    H226343   4.762   1.541   0.865  1.0663 -0.6723  1.5503
 1618TIP3   OH226344   1.833   3.100   3.021 -0.2988 -0.5579  0.5093
 1618TIP3    H126345   1.897   3.078   3.089  0.7375 -0.7101 -0.4863
 1618TIP3    H226346   1.850   3.037   2.951 -0.5559  0.3572 -0.3877
 1619TIP3   OH226347   2.298   6.263   5.572 -0.5706 -0.5076 -0.0953
 1619TIP3    H126348   2.306   6.193   5.507  3.1006  0.0029 -0.4104
 1619TIP3    H226349   2.372   6.248   5.632 -1.8720  0.9953  2.0272
 1620TIP3   OH226350   6.255   0.348   5.775  0.2384 -0.0669 -0.4397
 1620TIP3    H126351   6.236   0.261   5.812  0.9374  0.2790  0.7688
 1620TIP3    H226352   6.184   0.363   5.712 -1.4865 -0.3285  1.3608
 1621TIP3   OH226353   1.773   4.637  15.910  0.0011  0.0255 -0.3230
 1621TIP3    H126354   1.756   4.706  15.847  0.6479  0.3081 -0.1943
 1621TIP3    H226355   1.837   4.674  15.971 -0.8822 -0.1051  0.7241
 1622TIP3   OH226356   2.614   3.123   2.196  0.1938 -1.0353  0.1353
 1622TIP3    H126357   2.571   3.108   2.112 -0.0709  0.4266 -0.0184
 1622TIP3    H226358   2.698   3.161   2.174 -0.4038  0.5831  0.5298
 1623TIP3   OH226359   3.286   5.869  14.411  0.6871 -0.3090 -0.1862
 1623TIP3    H126360   3.209   5.830  14.370  0.6823 -0.1377 -0.3437
 1623TIP3    H226361   3.276   5.963  14.395  0.5441 -0.2092  0.4479
 1624TIP3   OH226362   0.992   4.161  15.455 -0.2172 -0.2786  0.3757
 1624TIP3    H126363   0.964   4.173  15.364  0.0231 -1.6609  0.0856
 1624TIP3    H226364   1.088   4.154  15.449 -0.1093  0.6337  0.8778
 1625TIP3   OH226365   2.166   5.159   4.000  0.6090 -0.4921  0.1676
 1625TIP3    H126366   2.119   5.226   3.950 -0.3436 -0.1789  1.4130
 1625TIP3    H226367   2.234   5.207   4.047  2.5303 -1.0035 -1.9392
 1626TIP3   OH226368   3.820   6.753  16.174  0.3266  0.2767 -0.7688
 1626TIP3    H126369   3.808   6.745  16.268  1.0704  0.3189 -0.6619
 1626TIP3    H226370   3.761   6.687  16.137  0.7188 -0.3958 -0.2294
 1627TIP3   OH226371   1.832   1.950   6.207  0.6464 -0.0305 -0.2734
 1627TIP3    H126372   1.779   1.984   6.279  0.8259  0.0776 -0.1926
 1627TIP3    H226373   1.807   2.004   6.131 -2.3299 -2.4822 -1.2531
 1628TIP3   OH226374   6.812   2.798  11.864 -0.3889  0.0189  0.0695
 1628TIP3    H126375   6.784   2.737  11.795  0.1151  0.2755 -0.3708
 1628TIP3    H226376   6.788   2.884  11.830 -1.1775  0.0702  0.7266
 1629TIP3   OH226377   3.263   3.903   3.344 -0.0423 -0.3015  0.2641
 1629TIP3    H126378   3.266   3.808   3.356 -0.1861 -0.4508 -0.8225
 1629TIP3    H226379   3.176   3.928   3.376 -0.6298 -0.7643 -0.8960
 1630TIP3   OH226380   4.116   3.210   4.348 -1.1472 -0.5221 -0.2288
 1630TIP3    H126381   4.133   3.122   4.382  0.4048 -0.0510  0.3129
 1630TIP3    H226382   4.203   3.249   4.338 -1.6517  0.0881 -2.8968
 1631TIP3   OH226383   0.559   3.542  13.057 -0.3018  0.2037  0.0192
 1631TIP3    H126384   0.586   3.451  13.060  1.3013  0.4900 -2.5309
 1631TIP3    H226385   0.600   3.582  13.134  0.9606 -0.7664 -0.1196
 1632TIP3   OH226386   2.831   2.383   4.667 -0.4386  0.1932 -0.3777
 1632TIP3    H126387   2.857   2.471   4.693 -0.0130  0.0054 -0.1516
 1632TIP3    H226388   2.770   2.354   4.734 -0.1266  0.0953 -0.1353
 1633TIP3   OH226389   2.094   0.819   4.353  0.2606  0.0329  0.1003
 1633TIP3    H126390   2.186   0.818   4.329  0.5656  1.0207  1.1165
 1633TIP3    H226391   2.048   0.785   4.276  1.2398  2.1333 -1.5107
 1634TIP3   OH226392   0.266   1.844  13.370  0.3818  0.1022 -0.1821
 1634TIP3    H126393   0.331   1.898  13.415  1.8269 -0.8485 -1.0643
 1634TIP3    H226394   0.317   1.778  13.323 -1.2630 -1.2958 -0.1229
 1635TIP3   OH226395   6.728   4.246   4.899  0.2464 -0.4037  0.3809
 1635TIP3    H126396   6.684   4.213   4.978 -0.3782 -1.7739 -0.5016
 1635TIP3    H226397   6.735   4.340   4.913  0.4335 -0.6534  2.2091
 1636TIP3   OH226398   1.808   0.168  13.468  1.1271  0.0261 -0.2336
 1636TIP3    H126399   1.862   0.221  13.528  0.7040  0.5908 -0.3441
 1636TIP3    H226400   1.718   0.185  13.495  0.9236  0.3591 -1.0789
 1637TIP3   OH226401   5.834   4.466  13.060  0.1948  0.1873 -1.4297
 1637TIP3    H126402   5.790   4.385  13.032  0.6541  0.0011 -1.6272
 1637TIP3    H226403   5.918   4.436  13.096 -0.6704  0.3200  0.8940
 1638TIP3   OH226404   2.534   4.403  12.892 -0.4399  0.1974 -0.5019
 1638TIP3    H126405   2.530   4.343  12.818 -0.2560 -1.3530  0.7098
 1638TIP3    H226406   2.462   4.377  12.948 -2.1403  2.9434 -1.2173
 1639TIP3   OH226407   2.321   2.469   6.861 -0.8095  0.2853  0.0980
 1639TIP3    H126408   2.348   2.541   6.803  1.1114  0.5612  1.2561
 1639TIP3    H226409   2.244   2.432   6.818  0.1835  0.8322 -2.3521
 1640TIP3   OH226410   2.475   3.997  14.185  0.0688 -0.2425 -0.2727
 1640TIP3    H126411   2.438   4.054  14.253 -0.1902  0.8389 -1.2817
 1640TIP3    H226412   2.556   3.964  14.223 -0.7109 -0.7035  1.0556
 1641TIP3   OH226413   6.077   1.623   2.210 -0.3854 -0.5716  0.3076
 1641TIP3    H126414   6.051   1.714   2.222 -0.8704 -0.5265 -0.8787
 1641TIP3    H226415   5.996   1.577   2.187  0.2411 -0.7679 -1.7296
 1642TIP3   OH226416   2.487   0.847   5.352 -0.2216  0.0293  0.5253
 1642TIP3    H126417   2.497   0.841   5.447  1.1810  0.3819  0.4228
 1642TIP3    H226418   2.484   0.755   5.323  0.3980 -0.0916  0.8251
 1643TIP3   OH226419   5.278   3.238  12.162  0.1216 -0.2225  0.2226
 1643TIP3    H126420   5.335   3.296  12.111  0.0069  0.0608  0.4156
 1643TIP3    H226421   5.205   3.218  12.102 -0.6041  1.0284  0.6411
 1644TIP3   OH226422   3.269   3.331   5.446  0.4420 -0.3237  0.4258
 1644TIP3    H126423   3.316   3.301   5.369 -0.2252 -1.5458  0.4798
 1644TIP3    H226424   3.285   3.426   5.448  0.4007 -0.2628 -1.2377
 1645TIP3   OH226425   5.052   1.361  12.793 -0.4168  0.4471  0.5291
 1645TIP3    H126426   5.113   1.319  12.854 -0.3582 -1.4632 -0.7461
 1645TIP3    H226427   4.967   1.353  12.836 -0.0690  1.4423  1.4699
 1646TIP3   OH226428   2.023   3.283  16.384 -0.2101  0.9295 -0.0813
 1646TIP3    H126429   2.090   3.325  16.438 -0.9226 -0.4548  2.0021
 1646TIP3    H226430   1.943   3.331  16.404 -0.7327 -0.4013  1.1629
 1647TIP3   OH226431   3.012   0.881   4.861  0.1239 -0.1972 -0.0983
 1647TIP3    H126432   2.932   0.829   4.868 -0.4359  0.7306  0.5013
 1647TIP3    H226433   3.071   0.827   4.808 -1.1890 -0.5277 -1.2554
 1648TIP3   OH226434   4.381   6.500   2.468  0.4378  0.3766  0.3266
 1648TIP3    H126435   4.447   6.445   2.508 -1.3556 -1.3772  1.0542
 1648TIP3    H226436   4.314   6.511   2.536 -0.1477  1.9038 -0.4347
 1649TIP3   OH226437   5.987   6.211   5.486  0.2154  0.1206  0.1630
 1649TIP3    H126438   5.898   6.176   5.484  0.5484 -0.8759 -2.8788
 1649TIP3    H226439   6.042   6.134   5.470  1.7232  0.6551  2.3529
 1650TIP3   OH226440   1.886   0.611  15.908 -0.1856  0.6144  0.0967
 1650TIP3    H126441   1.905   0.625  15.815  0.6604 -0.1114  0.1482
 1650TIP3    H226442   1.836   0.529  15.910  0.4096  0.2516  0.3349
 1651TIP3   OH226443   5.499   3.106   1.914  0.3314  0.2290  0.1081
 1651TIP3    H126444   5.587   3.078   1.942 -0.8879 -2.1069  2.0211
 1651TIP3    H226445   5.465   3.031   1.866 -0.6350  1.1286 -0.6436
 1652TIP3   OH226446   3.157   2.423  10.813  0.5103  0.0000  0.2490
 1652TIP3    H126447   3.243   2.465  10.819 -0.2652  1.4509  3.5802
 1652TIP3    H226448   3.130   2.437  10.722  3.4642  0.0335 -0.7456
 1653TIP3   OH226449   3.823   5.997  15.555 -0.1525  0.1976 -0.1541
 1653TIP3    H126450   3.743   6.050  15.549 -0.9880 -1.1815 -1.8795
 1653TIP3    H226451   3.792   5.907  15.553  1.2662 -0.4514  2.5844
 1654TIP3   OH226452   4.108   2.829  15.801 -0.0176 -0.0261  0.5558
 1654TIP3    H126453   4.133   2.897  15.864 -0.2381  2.8725 -2.2508
 1654TIP3    H226454   4.173   2.836  15.731 -1.3252 -1.2690 -0.8412
 1655TIP3   OH226455   6.677   3.666   4.058 -0.0442 -0.1063  0.1507
 1655TIP3    H126456   6.620   3.742   4.045 -0.4609 -0.4213  0.1545
 1655TIP3    H226457   6.758   3.704   4.094 -0.9950  0.1230  2.1708
 1656TIP3   OH226458   0.745   5.322   3.278 -0.8265 -0.1111 -0.2061
 1656TIP3    H126459   0.824   5.289   3.234  1.0774  1.9639  1.4684
 1656TIP3    H226460   0.694   5.362   3.207  0.2772 -0.2741 -1.1293
 1657TIP3   OH226461   1.321   0.598   5.979  0.2980 -0.2634  0.2830
 1657TIP3    H126462   1.262   0.572   5.908  1.6475 -1.0250 -0.6036
 1657TIP3    H226463   1.365   0.677   5.945  0.0268  0.1185  0.8079
 1658TIP3   OH226464   4.466   0.822  11.498  0.0166 -0.2005  0.4764
 1658TIP3    H126465   4.469   0.918  11.507 -1.6431 -0.1924  1.3737
 1658TIP3    H226466   4.388   0.796  11.547 -0.6300 -1.8441 -1.3115
 1659TIP3   OH226467   3.896   3.056   3.859  0.1024 -0.3124 -0.1495
 1659TIP3    H126468   3.835   3.108   3.807 -0.0616 -1.3545 -1.0496
 1659TIP3    H226469   3.975   3.109   3.865  0.3859 -0.4403 -2.1075
 1660TIP3   OH226470   1.726   4.432   4.129  0.0898  0.3357  0.0121
 1660TIP3    H126471   1.753   4.516   4.091 -0.9724 -0.1762 -2.0252
 1660TIP3    H226472   1.641   4.450   4.169  1.1113  0.8227  2.1228
 1661TIP3   OH226473   6.145   1.146  10.762  0.0485 -0.1929  0.1310
 1661TIP3    H126474   6.193   1.115  10.685  1.4865 -1.1873  1.3623
 1661TIP3    H226475   6.065   1.184  10.726  0.4829 -0.9679 -1.8216
 1662TIP3   OH226476   0.420   5.908  16.033  0.2988  0.5046 -0.1223
 1662TIP3    H126477   0.451   5.956  16.110  1.3440  0.0753 -0.2725
 1662TIP3    H226478   0.469   5.826  16.034 -0.2961  0.1333 -0.7857
 1663TIP3   OH226479   1.872   6.521   5.049 -0.3744  0.1576  0.0367
 1663TIP3    H126480   1.837   6.432   5.043 -1.9924  0.8140 -0.7143
 1663TIP3    H226481   1.804   6.577   5.012 -0.4501  1.9967  2.6744
 1664TIP3   OH226482   0.854   5.106   4.004  0.3529  0.0314 -0.7329
 1664TIP3    H126483   0.766   5.105   3.967  0.0373 -0.7141  0.0118
 1664TIP3    H226484   0.884   5.196   3.992  0.1423 -0.0900 -2.4930
 1665TIP3   OH226485   2.038   4.779   0.155  0.2646 -0.1546 -0.6351
 1665TIP3    H126486   2.124   4.769   0.195 -0.3548  0.0082  0.8335
 1665TIP3    H226487   2.019   4.873   0.162  0.5334  0.0413 -2.2327
 1666TIP3   OH226488   0.146   1.276  11.272  0.3736 -0.3962 -0.5705
 1666TIP3    H126489   0.207   1.349  11.276 -0.2081  0.0831 -0.1845
 1666TIP3    H226490   0.148   1.248  11.181  0.8193 -0.0832 -0.6583
 1667TIP3   OH226491   6.772   3.978   1.288  0.3725 -0.3073 -0.2462
 1667TIP3    H126492   6.864   4.005   1.284  0.4311 -0.2656  1.0116
 1667TIP3    H226493   6.776   3.887   1.317  0.0028 -0.2081  0.1150
 1668TIP3   OH226494   6.356   3.395  10.900  0.1489  0.1580 -0.1981
 1668TIP3    H126495   6.411   3.336  10.848  0.0353 -0.9261  0.8511
 1668TIP3    H226496   6.286   3.338  10.934 -0.0110  0.9094  0.7854
 1669TIP3   OH226497   4.605   0.383   1.886  0.1891  0.2970 -0.5491
 1669TIP3    H126498   4.609   0.340   1.801  1.4636 -0.4406 -0.1363
 1669TIP3    H226499   4.544   0.330   1.937  2.7551 -1.9869  0.4088
 1670TIP3   OH226500   1.851   4.467  15.158 -0.3467 -0.1404 -0.3748
 1670TIP3    H126501   1.866   4.387  15.210 -1.4537  0.9141  1.6747
 1670TIP3    H226502   1.909   4.456  15.083  0.4945 -2.2986  0.4707
 1671TIP3   OH226503   1.829   6.320   0.775  0.2357 -0.5876 -0.8104
 1671TIP3    H126504   1.740   6.336   0.806  0.4563  0.8535 -0.8590
 1671TIP3    H226505   1.880   6.308   0.855 -0.0961 -2.1031 -0.7971
 1672TIP3   OH226506   0.270   0.094   3.356 -0.8223 -0.0171  0.5943
 1672TIP3    H126507   0.287   0.030   3.287  0.8288  0.6527  0.3067
 1672TIP3    H226508   0.274   0.179   3.310 -0.6729  0.3893  1.3489
 1673TIP3   OH226509   6.396   4.763  16.181  0.0963  0.2006 -0.1952
 1673TIP3    H126510   6.409   4.680  16.226 -2.6508 -0.5728 -0.6560
 1673TIP3    H226511   6.483   4.785  16.146  1.5231 -0.9897  2.2975
 1674TIP3   OH226512   3.823   4.331   1.634 -0.0151 -0.0796  0.0875
 1674TIP3    H126513   3.854   4.357   1.547 -0.4030  0.6872  0.1740
 1674TIP3    H226514   3.898   4.344   1.692 -0.1982  0.8649  0.1282
 1675TIP3   OH226515   3.125   6.556  14.163  0.2657 -0.3068 -0.2055
 1675TIP3    H126516   3.150   6.466  14.183  0.5868 -0.0994  0.3578
 1675TIP3    H226517   3.120   6.559  14.067  0.8421 -0.7666 -0.2547
 1676TIP3   OH226518   1.697   6.323  10.995  0.5739 -0.0169  0.2607
 1676TIP3    H126519   1.648   6.405  10.996 -0.5664 -0.6766  0.0033
 1676TIP3    H226520   1.688   6.288  11.084 -1.3224 -1.2036 -0.3405
 1677TIP3   OH226521   0.390   6.674  11.275  0.2449 -0.1101 -0.7822
 1677TIP3    H126522   0.463   6.618  11.251  2.1844  1.9443  0.0006
 1677TIP3    H226523   0.362   6.641  11.361  2.4447  1.0183  0.4473
 1678TIP3   OH226524   3.005   5.102   0.382  0.4080  0.3677  0.1985
 1678TIP3    H126525   2.993   5.114   0.288 -1.4422 -1.6412  0.0797
 1678TIP3    H226526   3.063   5.026   0.389 -0.3815 -0.2102  0.6345
 1679TIP3   OH226527   3.087   0.792  13.902  0.2251 -0.2316 -0.2509
 1679TIP3    H126528   3.059   0.704  13.925  0.7601 -0.3240  0.0729
 1679TIP3    H226529   3.109   0.833  13.986  1.7493 -0.4110 -0.5292
 1680TIP3   OH226530   3.204   4.680   6.632 -0.1424 -0.3618 -0.0579
 1680TIP3    H126531   3.132   4.698   6.693  0.8787 -0.1860  1.1378
 1680TIP3    H226532   3.283   4.685   6.686  0.8806  0.6471 -1.5814
 1681TIP3   OH226533   2.890   4.075   0.955  0.6852 -0.3265 -0.1044
 1681TIP3    H126534   2.962   4.033   0.906  0.1677 -1.4657  0.0802
 1681TIP3    H226535   2.934   4.138   1.013  1.3917  0.2349 -1.2130
 1682TIP3   OH226536   3.026   2.505   1.286 -0.7705 -0.2786  0.1346
 1682TIP3    H126537   3.076   2.587   1.277  0.5698 -1.0312  0.4850
 1682TIP3    H226538   2.944   2.523   1.240  0.7997  0.1679 -2.8181
 1683TIP3   OH226539   4.664   1.088   4.709 -0.0956  0.3867 -0.0603
 1683TIP3    H126540   4.757   1.073   4.694 -0.5366 -0.7498 -2.0670
 1683TIP3    H226541   4.621   1.049   4.633 -2.1419  2.0501  0.1428
 1684TIP3   OH226542   5.560   5.045   6.561  0.5177 -0.3489  0.5837
 1684TIP3    H126543   5.611   5.098   6.622  0.3794  0.0364  0.3742
 1684TIP3    H226544   5.485   5.014   6.612 -0.5550  1.4261  0.1948
 1685TIP3   OH226545   1.149   1.298   4.600  0.5168 -1.0692 -0.5183
 1685TIP3    H126546   1.091   1.340   4.663  0.3462 -0.2107 -1.2270
 1685TIP3    H226547   1.127   1.205   4.605 -1.3515 -0.7084 -1.1676
 1686TIP3   OH226548   3.894   3.638  16.446  0.1986  0.0795  0.1796
 1686TIP3    H126549   3.804   3.657  16.471 -0.2385 -0.3597 -0.9858
 1686TIP3    H226550   3.941   3.721  16.460  0.1300 -0.2273  2.8096
 1687TIP3   OH226551   2.397   3.828   1.485 -0.6565  0.3140 -0.6941
 1687TIP3    H126552   2.415   3.874   1.403 -0.7309 -0.4063 -1.1150
 1687TIP3    H226553   2.454   3.871   1.549  0.7454 -0.2911 -1.4926
 1688TIP3   OH226554   3.317   1.189   5.896 -0.1502  0.2288  0.5038
 1688TIP3    H126555   3.270   1.151   5.821 -0.1445  0.5567  0.3325
 1688TIP3    H226556   3.285   1.139   5.971 -0.3026  0.0254  0.3069
 1689TIP3   OH226557   2.246   3.896  10.834 -0.4048 -0.3634 -0.4101
 1689TIP3    H126558   2.221   3.835  10.765 -2.4053 -0.1322  0.0475
 1689TIP3    H226559   2.274   3.840  10.907 -0.8627 -0.6837 -0.4788
 1690TIP3   OH226560   6.171   6.389  10.167  0.1339 -0.2597  0.6715
 1690TIP3    H126561   6.149   6.299  10.143  1.1882 -0.1244 -0.9523
 1690TIP3    H226562   6.264   6.398  10.146  0.4515  0.7567  2.3145
 1691TIP3   OH226563   3.614   6.765   0.525  0.0639  0.2847 -0.0658
 1691TIP3    H126564   3.568   6.694   0.480  1.0199  0.6204 -1.6299
 1691TIP3    H226565   3.705   6.758   0.495  0.7216  0.6202  1.7267
 1692TIP3   OH226566   6.184   6.777  15.581 -0.0185  0.0862  0.4777
 1692TIP3    H126567   6.119   6.839  15.612  0.4654  1.0429 -0.3925
 1692TIP3    H226568   6.160   6.759  15.491 -0.1314 -0.9731  0.7050
 1693TIP3   OH226569   4.970   2.242   3.756 -0.1411  0.3663  0.1068
 1693TIP3    H126570   5.013   2.171   3.707  1.0878  0.3685  1.1530
 1693TIP3    H226571   4.876   2.227   3.742  0.1501 -0.3770 -1.1918
 1694TIP3   OH226572   2.896   6.477   6.740  0.3447  0.0742  0.1118
 1694TIP3    H126573   2.941   6.544   6.687 -0.0875 -0.5063 -1.0330
 1694TIP3    H226574   2.813   6.462   6.693 -0.2545 -0.1395  1.2156
 1695TIP3   OH226575   0.121   1.810   2.058 -0.5318 -0.0859  0.0179
 1695TIP3    H126576   0.146   1.802   2.150  0.6224 -1.3703 -0.3722
 1695TIP3    H226577   0.045   1.752   2.049  0.0249 -0.8139 -0.0617
 1696TIP3   OH226578   4.702   4.192   5.082  0.1720 -0.6105  0.2936
 1696TIP3    H126579   4.774   4.219   5.026  0.0075  0.7955  0.7170
 1696TIP3    H226580   4.742   4.175   5.167  0.0354  0.1455  0.5220
 1697TIP3   OH226581   3.924   0.737  16.756 -0.3202  0.0752  0.0049
 1697TIP3    H126582   3.836   0.713  16.785 -0.3014  1.3180  1.1722
 1697TIP3    H226583   3.912   0.814  16.700  0.0927  0.9196  1.0468
 1698TIP3   OH226584   3.269   5.214  15.685  1.3297 -0.1962 -0.4583
 1698TIP3    H126585   3.281   5.134  15.737  2.1144 -0.5504 -1.1665
 1698TIP3    H226586   3.273   5.184  15.595  3.1402  0.8424 -0.7591
 1699TIP3   OH226587   1.915   5.212  14.931 -0.5706  0.3865  0.0758
 1699TIP3    H126588   1.859   5.189  14.856 -0.6750  1.0719 -0.0650
 1699TIP3    H226589   1.924   5.131  14.980 -1.0552  0.0837 -0.3258
 1700TIP3   OH226590   1.551   5.041   0.348  0.3557 -0.4932  0.0836
 1700TIP3    H126591   1.607   5.116   0.366  0.2693  0.0463 -1.6774
 1700TIP3    H226592   1.465   5.067   0.381  0.6493 -0.4482  0.8369
 1701TIP3   OH226593   3.801   4.343  12.892 -0.1592 -0.5297 -0.3634
 1701TIP3    H126594   3.709   4.358  12.867 -0.2229  2.5768  1.2464
 1701TIP3    H226595   3.852   4.384  12.822 -0.2004  1.9751  0.9602
 1702TIP3   OH226596   1.655   2.237   2.463  0.3446  0.1038  0.1283
 1702TIP3    H126597   1.604   2.159   2.444 -2.2963  1.2067  1.9393
 1702TIP3    H226598   1.599   2.310   2.434  2.5047  1.3871 -1.0786
 1703TIP3   OH226599   2.701   4.095   6.177  0.1808 -0.8004 -0.3780
 1703TIP3    H126600   2.640   4.140   6.119  1.1032  0.0948 -0.6747
 1703TIP3    H226601   2.775   4.155   6.186  0.0386 -0.8691  1.8027
 1704TIP3   OH226602   1.256   6.320   4.683 -0.4269  0.3332 -0.5512
 1704TIP3    H126603   1.209   6.370   4.750 -0.0079 -0.1155  0.0894
 1704TIP3    H226604   1.291   6.244   4.730  0.1846  0.2020 -1.2037
 1705TIP3   OH226605   5.559   3.292   3.300  0.6204  0.4205 -0.0627
 1705TIP3    H126606   5.575   3.274   3.207 -0.0613 -0.0335 -0.0916
 1705TIP3    H226607   5.522   3.380   3.301 -1.6875 -0.4918 -0.4558
 1706TIP3   OH226608   2.723   4.664  13.797  0.2235 -0.0595  0.1063
 1706TIP3    H126609   2.780   4.665  13.720  0.5258 -0.1683  0.3251
 1706TIP3    H226610   2.759   4.733  13.854  1.2386 -1.2967  1.0303
 1707TIP3   OH226611   0.174   5.298  14.645  0.4310  0.5949  0.2846
 1707TIP3    H126612   0.132   5.383  14.654 -0.4410  0.3056 -0.7558
 1707TIP3    H226613   0.103   5.235  14.662  1.2536  0.0463  1.8987
 1708TIP3   OH226614   0.221   4.672  14.966 -0.0865  0.7464  0.0462
 1708TIP3    H126615   0.248   4.734  15.033  0.1436  0.8866 -0.1736
 1708TIP3    H226616   0.255   4.588  14.996 -0.6111  0.6795  0.4682
 1709TIP3   OH226617   6.790   6.724  13.276 -0.0167 -0.2788  0.3552
 1709TIP3    H126618   6.793   6.675  13.358 -0.4894  0.4398  0.8144
 1709TIP3    H226619   6.871   6.774  13.274  1.0930 -2.0525 -0.7522
 1710TIP3   OH226620   6.396   4.775  12.405 -0.3995  0.2884 -0.7538
 1710TIP3    H126621   6.347   4.856  12.396 -0.2021  0.2749 -2.1557
 1710TIP3    H226622   6.425   4.774  12.496 -0.5241  1.7166 -0.6840
 1711TIP3   OH226623   6.274   6.772  12.681 -0.1295  0.3749  0.2536
 1711TIP3    H126624   6.341   6.838  12.695  1.2500 -0.0413 -3.3350
 1711TIP3    H226625   6.207   6.817  12.629 -0.3269 -0.4260 -0.2007
 1712TIP3   OH226626   3.613   5.522  12.148  0.1670 -0.0298  0.6622
 1712TIP3    H126627   3.554   5.452  12.120 -0.1108  0.5992 -0.4054
 1712TIP3    H226628   3.659   5.547  12.068 -0.3429  1.5727  0.8514
 1713TIP3   OH226629   0.258   5.593  12.843  0.0374 -0.6298 -0.5797
 1713TIP3    H126630   0.307   5.668  12.810  0.2073 -0.3067  0.3635
 1713TIP3    H226631   0.323   5.540  12.889 -0.6713  0.5805  2.0214
 1714TIP3   OH226632   4.124   5.917   5.009  0.1233 -0.4845 -0.2968
 1714TIP3    H126633   4.087   5.979   5.071  0.5502 -1.6730  1.2130
 1714TIP3    H226634   4.195   5.965   4.966 -0.9392  0.7233 -0.7383
 1715TIP3   OH226635   3.821   4.721   1.475 -0.0876 -0.1274  0.6290
 1715TIP3    H126636   3.765   4.794   1.447  0.2853 -0.5401 -1.3793
 1715TIP3    H226637   3.892   4.763   1.523 -0.1875  0.8070 -0.0017
 1716TIP3   OH226638   5.452   4.606   3.438  0.2460 -0.1427  0.3250
 1716TIP3    H126639   5.479   4.530   3.386  0.6424  0.5990 -0.5678
 1716TIP3    H226640   5.473   4.581   3.528  0.6584 -0.9699  0.0127
 1717TIP3   OH226641   3.224   0.382  15.629 -0.3336  0.2888  0.0882
 1717TIP3    H126642   3.199   0.309  15.572 -0.6276  0.9748 -0.6735
 1717TIP3    H226643   3.262   0.340  15.706  0.0075 -0.6566 -0.5823
 1718TIP3   OH226644   0.730   3.610  11.142 -0.6373  0.1351  0.4626
 1718TIP3    H126645   0.641   3.637  11.165 -0.6848 -0.2385  0.7184
 1718TIP3    H226646   0.728   3.514  11.145 -1.0931 -0.0624 -2.7484
 1719TIP3   OH226647   1.759   6.280   5.017 -0.2139  0.0037  0.2682
 1719TIP3    H126648   1.803   6.198   4.994  0.0307  0.4316 -0.8639
 1719TIP3    H226649   1.666   6.261   5.010 -0.1831  0.6091 -3.1711
 1720TIP3   OH226650   3.103   2.902  12.833  0.3012 -0.3548  0.0994
 1720TIP3    H126651   3.124   2.986  12.875 -0.8525  1.0523 -1.9721
 1720TIP3    H226652   3.177   2.884  12.776  0.5413 -0.7431  0.5325
 1721TIP3   OH226653   4.422   2.745   1.915  0.9429  0.1923 -0.5005
 1721TIP3    H126654   4.457   2.679   1.855  1.6309  0.4659 -0.4164
 1721TIP3    H226655   4.496   2.766   1.973  0.2560 -0.1887  0.5535
 1722TIP3   OH226656   1.996   5.918   2.630 -0.1509 -0.3790  0.0938
 1722TIP3    H126657   1.940   5.982   2.674 -1.8540 -0.6072 -1.6324
 1722TIP3    H226658   2.080   5.963   2.620 -1.7865  2.3944 -2.7035
 1723TIP3   OH226659   3.623   6.084   3.370 -0.0354  0.9543 -0.4131
 1723TIP3    H126660   3.551   6.022   3.355  0.1338  0.9835 -1.4775
 1723TIP3    H226661   3.699   6.028   3.386 -0.0466  0.8900 -0.5706
 1724TIP3   OH226662   5.016   3.549   1.736 -0.3599 -0.0721  0.3242
 1724TIP3    H126663   5.107   3.521   1.724 -0.6792 -1.3709  0.8598
 1724TIP3    H226664   5.014   3.585   1.825  0.0785  1.9060 -0.3991
 1725TIP3   OH226665   4.316   5.791  11.561  0.5494 -0.1368  0.1504
 1725TIP3    H126666   4.406   5.801  11.591  0.8948 -1.5835 -0.3263
 1725TIP3    H226667   4.323   5.773  11.467 -0.1838 -0.8195  0.2066
 1726TIP3   OH226668   3.884   3.256   4.496  0.2706 -0.5011 -0.4549
 1726TIP3    H126669   3.973   3.260   4.462  0.7332 -0.2667  0.7344
 1726TIP3    H226670   3.880   3.326   4.561 -0.3919 -1.3017  0.3975
 1727TIP3   OH226671   0.296   2.005   2.700  0.4607  0.2269  0.3177
 1727TIP3    H126672   0.264   2.091   2.725  0.8735  0.7706 -0.9296
 1727TIP3    H226673   0.236   1.976   2.631  0.6869 -0.2087  0.3022
 1728TIP3   OH226674   0.405   0.584   0.959 -0.1175  0.1177 -1.3335
 1728TIP3    H126675   0.357   0.622   1.033 -0.0579  0.8745 -1.6742
 1728TIP3    H226676   0.489   0.630   0.958  0.6386 -1.2034 -0.7436
 1729TIP3   OH226677   5.568   1.879   4.221  0.2998 -0.3657 -0.1816
 1729TIP3    H126678   5.543   1.912   4.135  0.8639 -0.5415 -0.4117
 1729TIP3    H226679   5.636   1.940   4.252  1.5449 -1.4413 -0.7254
 1730TIP3   OH226680   0.570   0.362  14.201  0.2297  0.0097  0.4860
 1730TIP3    H126681   0.614   0.302  14.141  0.8185  1.0324 -0.1237
 1730TIP3    H226682   0.522   0.422  14.144 -0.1357  0.2868  1.0767
 1731TIP3   OH226683   1.378   1.304  13.086  0.0340  0.0031 -0.3492
 1731TIP3    H126684   1.433   1.350  13.149 -1.1218  1.4634 -0.3209
 1731TIP3    H226685   1.344   1.374  13.029 -2.2261 -0.6996  0.0112
 1732TIP3   OH226686   4.296   6.185  17.162  0.3460  0.0597  1.0389
 1732TIP3    H126687   4.317   6.107  17.213 -0.2531 -0.2579  0.8138
 1732TIP3    H226688   4.376   6.204  17.113  0.0855 -1.2720  0.0006
 1733TIP3   OH226689   4.751   0.392  11.241  0.0301 -0.2130  0.1562
 1733TIP3    H126690   4.687   0.439  11.186 -0.1908  0.1357  0.7014
 1733TIP3    H226691   4.750   0.303  11.207  0.4925  0.1817 -0.9302
 1734TIP3   OH226692   0.210   2.958   1.467  0.2086  0.2781  0.6028
 1734TIP3    H126693   0.162   2.926   1.543  0.9544  0.0225  0.9660
 1734TIP3    H226694   0.257   3.034   1.498  1.2235 -0.3501  0.6299
 1735TIP3   OH226695   3.131   1.155  11.146  0.3320 -0.0160  0.2907
 1735TIP3    H126696   3.041   1.123  11.150  0.2052  0.2588 -0.3236
 1735TIP3    H226697   3.181   1.090  11.195 -0.2935  0.1820  1.2264
 1736TIP3   OH226698   6.132   0.215   1.577 -0.0171 -0.5417 -0.2126
 1736TIP3    H126699   6.119   0.258   1.493 -0.7785 -0.0089  0.1750
 1736TIP3    H226700   6.226   0.223   1.594  0.1363 -0.6348 -0.9932
 1737TIP3   OH226701   1.575   3.111   1.216 -0.1239 -0.4592 -0.1388
 1737TIP3    H126702   1.484   3.137   1.201  0.1805  0.6720 -0.1149
 1737TIP3    H226703   1.598   3.152   1.299  1.0469  1.0495 -1.1591
 1738TIP3   OH226704   0.824   5.695   6.639 -0.0488  0.1749 -0.4369
 1738TIP3    H126705   0.785   5.648   6.713  0.2175 -0.0531 -0.4416
 1738TIP3    H226706   0.856   5.626   6.581  1.3834  0.3633  0.0954
 1739TIP3   OH226707   4.108   0.525   1.052  0.2852 -0.0527  0.1508
 1739TIP3    H126708   4.161   0.512   1.130 -1.1916  2.2453  1.6571
 1739TIP3    H226709   4.145   0.603   1.011 -1.7216  1.5390  1.1806
 1740TIP3   OH226710   2.014   5.317  11.790  0.0633  0.0733 -0.4441
 1740TIP3    H126711   2.019   5.252  11.720  0.1779  0.9448 -1.2619
 1740TIP3    H226712   1.944   5.376  11.763 -1.2422 -0.6837  1.1489
 1741TIP3   OH226713   1.677   5.550  11.534 -0.3036 -0.4210 -0.3048
 1741TIP3    H126714   1.652   5.642  11.545  0.2554 -0.1985 -0.8627
 1741TIP3    H226715   1.599   5.501  11.561 -0.4029  0.1945  0.6077
 1742TIP3   OH226716   2.356   1.089  16.036  0.1214  0.0144  0.5168
 1742TIP3    H126717   2.436   1.141  16.028 -1.3453  2.3734  0.1218
 1742TIP3    H226718   2.366   1.043  16.120  2.4056 -0.7844 -0.1197
 1743TIP3   OH226719   1.374   6.011   4.705  0.2576  0.3402 -0.4221
 1743TIP3    H126720   1.284   5.986   4.686  0.3051 -1.0036  0.8928
 1743TIP3    H226721   1.416   6.017   4.620 -0.5278 -1.2842 -0.9685
 1744TIP3   OH226722   3.397   2.275   1.398  0.7709  0.2297  0.1690
 1744TIP3    H126723   3.427   2.277   1.489 -0.1015  2.0982  0.4756
 1744TIP3    H226724   3.453   2.339   1.353  0.8567 -0.3033 -0.4912
 1745TIP3   OH226725   3.325   4.194  10.966  0.9680  0.3833  0.0450
 1745TIP3    H126726   3.354   4.115  10.920 -1.4089  0.3947 -1.6495
 1745TIP3    H226727   3.394   4.258  10.949  2.3602 -0.9509  0.4460
 1746TIP3   OH226728   3.893   4.516   1.102  0.5215  0.0362 -0.5067
 1746TIP3    H126729   3.907   4.422   1.085  0.5536  0.1029 -0.8703
 1746TIP3    H226730   3.840   4.545   1.028  1.6092  0.5860 -1.1005
 1747TIP3   OH226731   1.398   0.049   4.227  0.2402  0.0423  0.5668
 1747TIP3    H126732   1.320   0.104   4.222 -1.1989 -1.6965  2.0887
 1747TIP3    H226733   1.381  -0.021   4.163  0.8473 -0.0288  0.4800
 1748TIP3   OH226734   4.959   1.299  17.069 -0.2867  0.4456 -0.0764
 1748TIP3    H126735   5.055   1.300  17.064 -0.2442 -1.0097  0.0424
 1748TIP3    H226736   4.933   1.383  17.031  1.0812  1.9173  1.9880
 1749TIP3   OH226737   1.057   6.176  14.897  0.4891 -0.2750  1.0645
 1749TIP3    H126738   1.008   6.238  14.951 -1.2309 -0.5897 -0.0399
 1749TIP3    H226739   1.130   6.227  14.861 -1.4463  1.4947 -0.6375
 1750TIP3   OH226740   0.569   5.874  15.421 -0.1371 -0.0608  0.0267
 1750TIP3    H126741   0.575   5.897  15.513  0.4573  2.5561 -0.5748
 1750TIP3    H226742   0.480   5.841  15.409 -0.9193  1.5774  1.1411
 1751TIP3   OH226743   0.687   6.191   3.035  0.0242 -0.0004 -0.3153
 1751TIP3    H126744   0.782   6.188   3.023 -0.0772  0.3001 -1.3353
 1751TIP3    H226745   0.655   6.113   2.991 -0.2485  0.2328 -0.5330
 1752TIP3   OH226746   3.280   2.910   2.081 -0.1469 -0.5739 -0.1362
 1752TIP3    H126747   3.298   3.000   2.055 -0.0229 -1.1224 -2.1022
 1752TIP3    H226748   3.241   2.918   2.168  0.4852  1.3128  0.0262
 1753TIP3   OH226749   2.483   0.774   4.802 -0.5671 -0.4223  0.4521
 1753TIP3    H126750   2.436   0.852   4.773 -0.1031 -0.1435  0.4422
 1753TIP3    H226751   2.420   0.703   4.791 -1.0815 -0.0159  0.6973
 1754TIP3   OH226752   5.474   1.892   5.132  0.0007 -0.0580 -0.0330
 1754TIP3    H126753   5.416   1.857   5.201 -0.5818  0.9057 -0.0140
 1754TIP3    H226754   5.453   1.840   5.055 -0.2024 -0.3563  0.2198
 1755TIP3   OH226755   2.269   1.616  11.944  0.4439  0.2334  0.3674
 1755TIP3    H126756   2.336   1.556  11.910  1.0334  0.4012  1.1978
 1755TIP3    H226757   2.187   1.570  11.933  0.4931  0.6130 -2.0612
 1756TIP3   OH226758   2.680   0.984   5.023  0.2092 -0.1314 -0.2589
 1756TIP3    H126759   2.693   0.889   5.026  0.8908 -0.0443 -0.1509
 1756TIP3    H226760   2.609   1.001   5.084  1.6097 -0.3421  1.5128
 1757TIP3   OH226761   3.850   6.599   3.361 -1.1526  0.1302 -0.0904
 1757TIP3    H126762   3.816   6.530   3.304 -1.4956  0.8726 -0.7914
 1757TIP3    H226763   3.944   6.600   3.343 -1.0493 -0.5315  0.3467
 1758TIP3   OH226764   3.507   6.083  14.941 -0.1210 -0.2569 -0.1377
 1758TIP3    H126765   3.478   6.095  14.850 -0.8232  0.7306  0.2024
 1758TIP3    H226766   3.440   6.128  14.993  2.8786  3.8707  0.6459
 1759TIP3   OH226767   1.188   1.583   5.196 -0.3927  0.5015 -0.5362
 1759TIP3    H126768   1.172   1.628   5.279  1.7688  0.0051  0.2269
 1759TIP3    H226769   1.126   1.622   5.135 -3.1255 -0.1633  1.6103
 1760TIP3   OH226770   2.431   4.175  13.723 -0.2448 -0.3996  0.1579
 1760TIP3    H126771   2.452   4.266  13.702 -0.1832 -0.8655 -2.0339
 1760TIP3    H226772   2.500   4.125  13.679 -0.1455 -1.5111  1.5373
 1761TIP3   OH226773   4.242   6.375  14.752  0.0646  0.4721 -0.0655
 1761TIP3    H126774   4.300   6.449  14.734  0.4663  0.4299  1.0231
 1761TIP3    H226775   4.262   6.349  14.841 -2.1712  0.9524  0.6528
 1762TIP3   OH226776   3.945   4.205  11.876  0.2612 -0.1677 -0.3617
 1762TIP3    H126777   4.028   4.156  11.874 -0.2460 -1.1065  0.6563
 1762TIP3    H226778   3.879   4.141  11.850 -0.5550 -0.3786  1.9974
 1763TIP3   OH226779   6.298   0.143  14.234  0.4163 -0.5897 -0.0467
 1763TIP3    H126780   6.355   0.075  14.269 -0.6360 -2.0046 -0.9240
 1763TIP3    H226781   6.226   0.094  14.193  0.2954  1.0230 -1.8831
 1764TIP3   OH226782   0.169   0.778  13.704 -0.3313 -0.1716 -0.0779
 1764TIP3    H126783   0.218   0.763  13.785 -0.5544  0.1248  0.1152
 1764TIP3    H226784   0.099   0.712  13.706  0.3704 -0.9570 -0.6206
 1765TIP3   OH226785   5.671   5.703  12.067  0.1254  0.2693 -0.2322
 1765TIP3    H126786   5.612   5.635  12.099  0.7891  0.1899  0.8550
 1765TIP3    H226787   5.613   5.765  12.023 -0.7530  0.0813  0.6177
 1766TIP3   OH226788   3.106   4.532   5.400  0.5423 -0.3806  0.1017
 1766TIP3    H126789   3.131   4.476   5.326 -0.4616 -0.8615  0.1096
 1766TIP3    H226790   3.070   4.611   5.359  0.6255 -0.3526  0.0822
 1767TIP3   OH226791   4.666   4.194  12.403 -1.0670  0.7339  0.0070
 1767TIP3    H126792   4.751   4.211  12.443 -0.2038  0.2737 -1.5314
 1767TIP3    H226793   4.638   4.110  12.439  0.4180 -0.4326 -1.4005
 1768TIP3   OH226794   4.069   6.035  15.989  0.3056 -0.3653 -0.1112
 1768TIP3    H126795   4.127   6.084  16.046  0.6050 -0.2508 -0.5096
 1768TIP3    H226796   4.125   5.972  15.945 -0.1369 -1.3456  0.6802
 1769TIP3   OH226797   1.346   2.564   3.244  0.7461  0.5346 -0.3278
 1769TIP3    H126798   1.267   2.529   3.285  2.6883 -0.3865  3.0371
 1769TIP3    H226799   1.390   2.488   3.207  2.1251  0.2601  1.7595
 1770TIP3   OH226800   2.639   1.904  13.322 -0.0469 -0.1284 -0.2705
 1770TIP3    H126801   2.546   1.925  13.320  0.0183  0.1378 -0.4615
 1770TIP3    H226802   2.642   1.811  13.346 -0.3349  0.0551  0.5125
 1771TIP3   OH226803   3.177   2.753   1.173  0.2540  0.0784  0.4151
 1771TIP3    H126804   3.100   2.757   1.117 -0.5314 -1.8893  1.2522
 1771TIP3    H226805   3.242   2.806   1.128 -1.2884  1.0256 -0.7890
 1772TIP3   OH226806   2.425   5.631  11.804  0.0293  0.3573 -0.8106
 1772TIP3    H126807   2.464   5.712  11.773  0.6689  0.4242  0.1186
 1772TIP3    H226808   2.499   5.579  11.835 -0.3075 -0.8101 -1.8744
 1773TIP3   OH226809   3.986   3.231  16.535  0.3455 -0.0175  0.2222
 1773TIP3    H126810   3.982   3.288  16.612  0.3201 -0.4736  0.5621
 1773TIP3    H226811   4.018   3.288  16.465  0.0826  0.4807  0.4947
 1774TIP3   OH226812   1.873   1.627  11.244  0.1769  0.0181 -0.4301
 1774TIP3    H126813   1.832   1.543  11.222  0.0588  0.1923 -0.8934
 1774TIP3    H226814   1.839   1.649  11.331 -2.0065  0.9327 -1.4356
 1775TIP3   OH226815   4.980   0.713  12.028  0.2028 -0.1256 -0.7503
 1775TIP3    H126816   5.052   0.654  12.049  1.1728  1.2975  0.1296
 1775TIP3    H226817   4.906   0.679  12.078  1.2389  0.4202  1.2700
 1776TIP3   OH226818   6.015   3.836   1.939  0.0551 -0.0473 -0.8909
 1776TIP3    H126819   6.018   3.901   1.869 -1.4991  1.6240  0.4714
 1776TIP3    H226820   5.934   3.788   1.925  0.6876 -1.0280 -1.2966
 1777TIP3   OH226821   1.105   0.408  15.086 -0.6160  0.2307 -0.0245
 1777TIP3    H126822   1.103   0.357  15.006 -2.6329  0.3932 -0.1219
 1777TIP3    H226823   1.016   0.440  15.097 -0.0673  1.3691  1.5522
 1778TIP3   OH226824   4.367   5.349   2.920 -0.6745  0.4072 -0.1308
 1778TIP3    H126825   4.407   5.335   3.006  0.8269  2.9194 -0.3250
 1778TIP3    H226826   4.428   5.308   2.858 -1.1198 -0.3029 -0.1167
 1779TIP3   OH226827   2.706   3.404   2.328  0.7295 -0.2205 -0.5032
 1779TIP3    H126828   2.781   3.451   2.364  0.8049 -0.9403  0.3110
 1779TIP3    H226829   2.732   3.380   2.239  1.8416 -1.2909  0.0948
 1780TIP3   OH226830   2.470   3.626   2.521  0.1337 -0.7865  0.1183
 1780TIP3    H126831   2.504   3.710   2.549 -0.0909 -0.2420 -1.1480
 1780TIP3    H226832   2.416   3.595   2.594 -1.2030  1.0092 -0.0481
 1781TIP3   OH226833   0.657   3.253  15.217  0.0577  0.0040 -0.1852
 1781TIP3    H126834   0.692   3.192  15.152  0.7649  1.6440 -1.4219
 1781TIP3    H226835   0.733   3.301  15.248 -0.5861  0.9193  0.0284
 1782TIP3   OH226836   1.936   0.262  13.190 -0.6594  0.1140  0.2699
 1782TIP3    H126837   1.870   0.287  13.125  1.4993  2.1195 -1.3266
 1782TIP3    H226838   1.957   0.344  13.235  0.9571 -0.3861  0.4919
 1783TIP3   OH226839   3.171   2.056   3.208  0.4374  0.0802  0.4569
 1783TIP3    H126840   3.236   2.007   3.258 -1.3087 -1.7607  1.0622
 1783TIP3    H226841   3.202   2.052   3.117  1.6417  0.0646  0.8564
 1784TIP3   OH226842   6.562   2.642   0.524  0.7166 -0.8779 -0.8250
 1784TIP3    H126843   6.618   2.642   0.446  0.3594 -2.2328 -1.1098
 1784TIP3    H226844   6.479   2.606   0.495 -0.3451  1.0632 -0.3849
 1785TIP3   OH226845   1.475   2.123  13.047 -0.7256 -0.4766 -0.0667
 1785TIP3    H126846   1.559   2.125  13.001 -0.8833  0.6269 -0.3466
 1785TIP3    H226847   1.414   2.168  12.988 -0.6607  2.1044  1.6466
 1786TIP3   OH226848   0.569   6.250   5.865 -0.0372  0.3616 -0.0812
 1786TIP3    H126849   0.541   6.340   5.883 -1.6922 -0.1597  0.0674
 1786TIP3    H226850   0.588   6.213   5.951  0.3286  0.4672 -0.1159
 1787TIP3   OH226851   6.466   1.486  12.163  0.4900 -0.1116 -0.4128
 1787TIP3    H126852   6.502   1.573  12.147  1.7388 -0.3176  1.0358
 1787TIP3    H226853   6.468   1.443  12.077  1.5852  0.6701 -0.7949
 1788TIP3   OH226854   0.092   5.444  13.143  0.0812  0.5204  0.1541
 1788TIP3    H126855   0.170   5.499  13.159  0.5844 -0.3256  0.6872
 1788TIP3    H226856   0.126   5.369  13.095 -1.0816  2.0364 -3.2908
 1789TIP3   OH226857   3.456   2.294   2.555 -0.0093 -0.1276  0.3856
 1789TIP3    H126858   3.524   2.303   2.488 -2.3593  0.3610 -2.1183
 1789TIP3    H226859   3.471   2.368   2.614  0.7147  0.8555 -0.9735
 1790TIP3   OH226860   1.245   1.422  11.754 -0.0480 -0.4696  0.5793
 1790TIP3    H126861   1.178   1.480  11.792  0.1069  1.1626 -1.4480
 1790TIP3    H226862   1.206   1.391  11.672  0.9369 -1.0638  0.3197
 1791TIP3   OH226863   0.600   2.310   3.714 -0.4512  0.4661  0.1128
 1791TIP3    H126864   0.560   2.224   3.720  0.5582  0.0694  2.1787
 1791TIP3    H226865   0.628   2.330   3.803  0.6625  2.2884 -0.5752
 1792TIP3   OH226866   0.826   2.358   1.872  0.0982  0.3186  0.3612
 1792TIP3    H126867   0.755   2.411   1.834 -0.7445 -0.8913  0.1830
 1792TIP3    H226868   0.827   2.279   1.819  0.6460 -0.2832  1.2499
 1793TIP3   OH226869   1.591   1.517   1.777 -0.4652  0.6811 -0.0675
 1793TIP3    H126870   1.568   1.535   1.686 -2.1850  2.2673  0.6073
 1793TIP3    H226871   1.652   1.587   1.801 -0.3726  0.5324  0.1342
 1794TIP3   OH226872   2.269   6.732  12.337  0.3634  0.4108  0.3507
 1794TIP3    H126873   2.303   6.645  12.317  0.5837  0.6231 -0.2073
 1794TIP3    H226874   2.272   6.737  12.433 -0.0786 -0.3649  0.4121
 1795TIP3   OH226875   3.783   0.581  15.650 -0.0939  0.1318 -0.1804
 1795TIP3    H126876   3.826   0.606  15.731  0.2398 -0.5466 -0.1381
 1795TIP3    H226877   3.693   0.561  15.676 -0.0105  0.0001  0.0106
 1796TIP3   OH226878   0.820   3.024   0.525  0.0348 -0.0710  0.3175
 1796TIP3    H126879   0.758   3.076   0.577  0.7045 -0.4488  1.5252
 1796TIP3    H226880   0.845   2.952   0.583  0.1399 -1.0019 -0.8595
 1797TIP3   OH226881   5.284   4.677  11.650  0.6939 -0.2879  0.0222
 1797TIP3    H126882   5.272   4.771  11.632 -0.1896 -0.6694 -1.6029
 1797TIP3    H226883   5.266   4.634  11.567  0.9492 -1.9338  0.7706
 1798TIP3   OH226884   4.351   5.361   3.483  0.1745  0.1908 -0.2953
 1798TIP3    H126885   4.410   5.286   3.488 -0.6577 -0.5089 -0.6801
 1798TIP3    H226886   4.309   5.365   3.569  1.3468  1.1874  0.2590
 1799TIP3   OH226887   2.331   4.782   0.249 -0.1049  0.1260 -0.6642
 1799TIP3    H126888   2.328   4.847   0.319  3.2090  1.0132 -1.2145
 1799TIP3    H226889   2.373   4.705   0.289  0.0414 -0.0661 -1.1765
 1800TIP3   OH226890   6.443   1.285   0.462  0.0391  0.3874 -0.3317
 1800TIP3    H126891   6.401   1.361   0.501  0.8100  0.2743  0.7310
 1800TIP3    H226892   6.469   1.314   0.375  3.7812  2.6452  1.3256
 1801TIP3   OH226893   1.434   2.106   6.134 -0.3950  0.2715  0.0976
 1801TIP3    H126894   1.384   2.057   6.200 -0.2938 -0.3347 -0.2757
 1801TIP3    H226895   1.377   2.180   6.111 -0.9350 -0.1720 -0.0007
 1802TIP3   OH226896   5.832   5.157   0.669  0.0030 -0.0582  0.5645
 1802TIP3    H126897   5.774   5.128   0.740 -0.8139  0.5114  0.1464
 1802TIP3    H226898   5.794   5.239   0.639 -0.2495 -0.7700 -1.1967
 1803TIP3   OH226899   4.985   5.781  11.752 -0.2823 -0.0985 -0.7988
 1803TIP3    H126900   4.917   5.808  11.813 -1.1253 -0.9820 -1.3075
 1803TIP3    H226901   4.960   5.821  11.669 -0.9564 -1.4826 -1.3059
 1804TIP3   OH226902   2.029   1.218   1.912  0.7371  0.2732 -0.3821
 1804TIP3    H126903   1.940   1.252   1.914  0.3071 -0.7507 -1.3231
 1804TIP3    H226904   2.064   1.237   2.000  0.3296  2.5222 -0.6584
 1805TIP3   OH226905   2.973   2.337   5.408 -0.1106 -0.6385  0.2951
 1805TIP3    H126906   2.991   2.244   5.421  0.3892 -1.0185 -2.5101
 1805TIP3    H226907   2.925   2.363   5.486  0.5696 -2.9998  1.5990
 1806TIP3   OH226908   3.902   0.161   2.833  0.1016 -0.0753 -0.1597
 1806TIP3    H126909   3.811   0.134   2.833  0.5235 -1.6048 -1.1243
 1806TIP3    H226910   3.950   0.086   2.869  1.0809  0.3205 -0.5885
 1807TIP3   OH226911   3.996   3.673   3.155 -0.0223  0.5413  0.1244
 1807TIP3    H126912   3.926   3.673   3.221  0.2268  0.7420  0.3891
 1807TIP3    H226913   4.073   3.639   3.201 -0.7803 -3.3147 -1.0744
 1808TIP3   OH226914   6.275   3.059   4.534  0.0706  0.2145  0.8697
 1808TIP3    H126915   6.313   3.002   4.601  1.2803  0.5453  0.5074
 1808TIP3    H226916   6.191   3.086   4.569  0.1237 -0.6346  1.6844
 1809TIP3   OH226917   4.392   0.164  14.582 -0.2540 -0.2722 -0.1568
 1809TIP3    H126918   4.447   0.095  14.546 -0.9533 -1.9844  1.8404
 1809TIP3    H226919   4.305   0.148  14.546 -0.1987  0.2765 -0.5540
 1810TIP3   OH226920   1.542   1.406  12.429  0.2008  0.9230 -0.3816
 1810TIP3    H126921   1.571   1.385  12.340 -1.6350 -1.8000 -0.4647
 1810TIP3    H226922   1.451   1.436  12.418 -0.7590 -1.3615  0.6281
 1811TIP3   OH226923   4.183   4.434   3.979 -0.8713  0.1400  0.3288
 1811TIP3    H126924   4.207   4.345   3.953  0.2058  0.9251 -1.5823
 1811TIP3    H226925   4.127   4.466   3.908  0.1434  1.5562  0.1190
 1812TIP3   OH226926   1.751   2.411   4.350  0.5323  0.5455 -0.0371
 1812TIP3    H126927   1.834   2.371   4.376  0.6990  0.5115 -0.6211
 1812TIP3    H226928   1.695   2.338   4.323 -0.2280  0.4057  1.7743
 1813TIP3   OH226929   1.358   5.455   3.178 -0.3386  0.2201  0.3363
 1813TIP3    H126930   1.368   5.549   3.194 -0.0108  0.2616 -0.1155
 1813TIP3    H226931   1.437   5.416   3.217 -0.6731  0.0880  0.8911
 1814TIP3   OH226932   5.138   1.909  16.393  0.2845 -0.4416  0.0973
 1814TIP3    H126933   5.145   1.922  16.298  3.5937 -0.5466  0.2136
 1814TIP3    H226934   5.195   1.977  16.430 -0.8527 -0.4860  2.0321
 1815TIP3   OH226935   4.886   6.742   3.808  0.2666  0.1864  0.6052
 1815TIP3    H126936   4.834   6.662   3.816 -0.2304  0.5812  1.4960
 1815TIP3    H226937   4.841   6.806   3.864  0.7508  1.0424  0.0399
 1816TIP3   OH226938   4.356   2.724  14.626 -0.3824 -0.1479  0.1683
 1816TIP3    H126939   4.287   2.752  14.566 -0.2017 -0.5606 -0.2377
 1816TIP3    H226940   4.316   2.654  14.678 -1.2253  1.5795  2.0062
 1817TIP3   OH226941   0.825   3.074   2.819 -0.7040 -0.2607 -0.4696
 1817TIP3    H126942   0.863   3.159   2.799  0.8184 -0.5030  1.1786
 1817TIP3    H226943   0.823   3.028   2.735  2.4280 -0.1237 -0.7268
 1818TIP3   OH226944   4.855   3.908   0.374 -0.0590 -0.1938 -1.2135
 1818TIP3    H126945   4.928   3.856   0.407  0.5086  1.0617 -0.4123
 1818TIP3    H226946   4.857   3.988   0.426 -4.7314 -1.7848  2.0303
 1819TIP3   OH226947   3.925   0.179  16.235  0.0272 -0.1657 -0.0378
 1819TIP3    H126948   3.856   0.170  16.300  0.0282 -2.4743 -0.2953
 1819TIP3    H226949   3.940   0.090  16.203  1.3574  0.6371 -1.8147
 1820TIP3   OH226950   3.408   2.253  14.429  0.2336 -0.3755 -0.1549
 1820TIP3    H126951   3.348   2.179  14.420  1.2908 -1.4596  1.2551
 1820TIP3    H226952   3.476   2.237  14.363  0.1781 -0.3585 -0.2168
 1821TIP3   OH226953   1.092   6.563  15.747 -0.2046  0.0752 -0.5387
 1821TIP3    H126954   1.095   6.570  15.842 -0.3504  1.7573 -0.6265
 1821TIP3    H226955   1.015   6.509  15.728 -0.2926 -0.0931  0.2793
 1822TIP3   OH226956   6.139   1.773  10.255  0.1420 -0.3460 -0.5066
 1822TIP3    H126957   6.075   1.845  10.257 -0.2925 -0.7472  0.8137
 1822TIP3    H226958   6.147   1.746  10.346  1.2260 -1.1747 -0.8376
 1823TIP3   OH226959   0.123   2.710   3.296 -0.8290 -0.2693  0.3590
 1823TIP3    H126960   0.054   2.644   3.287 -1.2198  0.1889 -0.0259
 1823TIP3    H226961   0.077   2.794   3.292 -0.1616  0.0605 -0.7872
 1824TIP3   OH226962   4.936   5.273  16.279 -0.5417 -0.0386  0.0355
 1824TIP3    H126963   4.904   5.203  16.222 -0.8391 -0.7540  1.0443
 1824TIP3    H226964   5.024   5.291  16.247 -1.4777  1.2314 -2.1156
 1825TIP3   OH226965   3.453   1.818  12.540  0.2096  0.4318 -0.1125
 1825TIP3    H126966   3.399   1.762  12.484 -1.1861  2.3256 -0.7513
 1825TIP3    H226967   3.534   1.831  12.490 -0.2185  0.4936 -0.8005
 1826TIP3   OH226968   6.625   4.358   3.593  0.3802  0.4661 -0.0251
 1826TIP3    H126969   6.629   4.276   3.641 -0.6172  0.6389  0.3889
 1826TIP3    H226970   6.540   4.396   3.618  1.2131  2.0749  0.5532
 1827TIP3   OH226971   1.656   5.891   0.291 -0.7185 -0.3945 -0.3418
 1827TIP3    H126972   1.678   5.974   0.248 -1.6381  0.4106  0.6748
 1827TIP3    H226973   1.714   5.827   0.250  2.2729  1.2454  0.9991
 1828TIP3   OH226974   4.134   0.230   5.014  0.2903 -0.1712 -0.6639
 1828TIP3    H126975   4.223   0.205   4.989  0.9527 -0.4291  1.7118
 1828TIP3    H226976   4.088   0.146   5.028  0.5868 -0.0837  0.9896
 1829TIP3   OH226977   5.154   6.225   1.665 -0.2737  0.0005  0.4022
 1829TIP3    H126978   5.158   6.167   1.741 -1.5628 -0.2789  0.2856
 1829TIP3    H226979   5.091   6.183   1.606 -0.7027  1.1631 -0.0007
 1830TIP3   OH226980   2.276   5.949  13.589 -0.3954  0.4772 -0.4826
 1830TIP3    H126981   2.287   5.892  13.513  0.7672  0.7369 -0.5357
 1830TIP3    H226982   2.304   6.035  13.559 -0.0028  0.6009  0.2111
 1831TIP3   OH226983   6.462   0.884  10.794  0.4322  0.1164  0.4200
 1831TIP3    H126984   6.368   0.867  10.783  0.3334 -0.1085  1.4353
 1831TIP3    H226985   6.497   0.885  10.705 -0.7818  1.7834 -0.0984
 1832TIP3   OH226986   5.060   6.644  15.802  0.0738  0.4367  0.2126
 1832TIP3    H126987   5.143   6.678  15.769  0.5005  0.0930  0.9187
 1832TIP3    H226988   5.009   6.626  15.723  0.5497  0.9485 -0.2172
 1833TIP3   OH226989   4.839   1.402   1.733  0.3899 -0.2211  0.1097
 1833TIP3    H126990   4.842   1.315   1.693  0.9261 -0.2548  0.2162
 1833TIP3    H226991   4.835   1.462   1.659 -0.8876 -0.3574  0.0419
 1834TIP3   OH226992   1.488   1.418  11.935  0.1547  0.1608 -0.2222
 1834TIP3    H126993   1.411   1.432  11.880  0.4708  1.4890 -0.3697
 1834TIP3    H226994   1.497   1.499  11.986  1.3618 -0.0225 -0.0983
 1835TIP3   OH226995   2.178   6.588   6.614  0.0203  0.0857  0.2935
 1835TIP3    H126996   2.272   6.586   6.594 -0.1574 -0.5055 -0.5094
 1835TIP3    H226997   2.173   6.561   6.706  0.4672 -2.4253 -0.3428
 1836TIP3   OH226998   3.104   6.211   5.857 -0.3291  0.1060 -0.3624
 1836TIP3    H126999   3.029   6.246   5.905  0.8070  1.5640  0.4415
 1836TIP3    H227000   3.154   6.162   5.923 -0.1259 -0.1304 -0.6898
 1837TIP3   OH227001   6.058   0.155   2.635 -0.3610 -0.2671 -0.0157
 1837TIP3    H127002   6.044   0.071   2.592 -1.6240 -1.0267  1.7428
 1837TIP3    H227003   6.002   0.216   2.587 -1.0104 -0.8833 -0.0594
 1838TIP3   OH227004   2.656   5.290  14.751  0.8406  0.6238 -0.8002
 1838TIP3    H127005   2.624   5.373  14.787  1.6378  1.0142 -0.9732
 1838TIP3    H227006   2.579   5.233  14.750  0.1859  1.4903 -1.0461
 1839TIP3   OH227007   4.005   0.869   0.658 -0.6031 -0.2747 -0.2699
 1839TIP3    H127008   4.085   0.913   0.687 -0.8934 -0.4738  0.8801
 1839TIP3    H227009   4.033   0.816   0.583  0.4228 -0.6198  0.3288
 1840TIP3   OH227010   5.150   2.909   3.417  0.1812 -0.3098 -0.1496
 1840TIP3    H127011   5.220   2.857   3.457  0.3616  0.8387  1.1125
 1840TIP3    H227012   5.192   2.992   3.393 -0.5225  0.0056 -0.3171
 1841TIP3   OH227013   4.441   3.167   1.498 -0.0938 -0.3312  0.3639
 1841TIP3    H127014   4.471   3.077   1.510  1.1174  0.1788  1.3602
 1841TIP3    H227015   4.468   3.212   1.578  1.8056  1.5774 -1.2324
 1842TIP3   OH227016   4.794   4.469   1.813  0.7581  0.4695 -0.4467
 1842TIP3    H127017   4.835   4.516   1.885 -1.1047 -0.1072  1.0660
 1842TIP3    H227018   4.725   4.527   1.782 -1.7296 -1.1206  1.5979
 1843TIP3   OH227019   5.385   0.776   4.441  0.8610  0.1275 -0.3683
 1843TIP3    H127020   5.470   0.732   4.435 -0.1650 -2.4119  1.5213
 1843TIP3    H227021   5.336   0.743   4.366  0.5044 -1.1035  0.3699
 1844TIP3   OH227022   5.511   2.568  14.727  0.2207 -0.0522  0.4466
 1844TIP3    H127023   5.567   2.641  14.755 -0.5972 -0.0634  2.2606
 1844TIP3    H227024   5.430   2.581  14.776 -0.3445 -1.5743 -0.0448
 1845TIP3   OH227025   2.122   5.220   0.090 -0.3870  0.0362 -0.2593
 1845TIP3    H127026   2.078   5.170   0.021  0.4843 -0.1120 -0.7317
 1845TIP3    H227027   2.053   5.244   0.151 -1.3983  1.2094 -1.8013
 1846TIP3   OH227028   1.922   6.470  12.405 -0.3742  0.2457 -0.6760
 1846TIP3    H127029   1.937   6.535  12.474 -0.8770  0.5660 -0.8660
 1846TIP3    H227030   1.829   6.448  12.411 -0.0368 -1.0984 -0.0648
 1847TIP3   OH227031   2.874   3.161   3.416 -0.7704  0.4081 -0.1401
 1847TIP3    H127032   2.791   3.208   3.411  0.5653  2.8278 -2.4917
 1847TIP3    H227033   2.879   3.113   3.333 -0.3425 -0.7426  0.5322
 1848TIP3   OH227034   1.229   2.878  11.103  0.3717  0.3607  0.0300
 1848TIP3    H127035   1.245   2.919  11.188 -1.2627  1.9150 -0.3327
 1848TIP3    H227036   1.141   2.907  11.079 -0.1169 -1.8933 -1.1865
 1849TIP3   OH227037   5.739   6.073  14.759  0.0595  0.7394  0.4542
 1849TIP3    H127038   5.659   6.022  14.764  1.1283 -1.0313  0.2859
 1849TIP3    H227039   5.739   6.111  14.672  1.3636 -2.7804 -1.2753
 1850TIP3   OH227040   3.086   2.487  17.165  0.9068 -0.2786 -0.4927
 1850TIP3    H127041   3.150   2.418  17.149 -1.0856 -2.6697  1.0776
 1850TIP3    H227042   3.035   2.493  17.085  0.4990 -1.3429 -0.3226
 1851TIP3   OH227043   5.076   5.967   4.180 -0.0890  0.1013 -0.6715
 1851TIP3    H127044   5.073   5.872   4.167 -1.2874  0.1047 -0.5469
 1851TIP3    H227045   5.166   5.985   4.209 -0.1559 -1.1416  0.3809
 1852TIP3   OH227046   4.896   1.659  12.504 -0.0132 -0.3226  0.1359
 1852TIP3    H127047   4.814   1.695  12.536 -0.3742 -0.5399 -0.5264
 1852TIP3    H227048   4.898   1.682  12.411  1.3817  1.0079  0.4387
 1853TIP3   OH227049   5.691   3.972  12.253  0.4093  0.5570 -0.3253
 1853TIP3    H127050   5.616   3.975  12.313  0.4369 -3.3934  0.1937
 1853TIP3    H227051   5.655   3.999  12.169 -0.7015  2.0393  0.5721
 1854TIP3   OH227052   1.249   4.526   3.946  0.9276  0.5209  0.0396
 1854TIP3    H127053   1.168   4.569   3.918 -0.6798 -1.4055  1.4171
 1854TIP3    H227054   1.279   4.578   4.020 -0.9507 -0.5282  1.6405
 1855TIP3   OH227055   4.003   0.995   5.470 -0.0203  0.4336  0.2769
 1855TIP3    H127056   3.981   0.999   5.563  0.2912 -0.1495  0.3801
 1855TIP3    H227057   3.920   0.980   5.426 -0.1307  0.4378  0.4830
 1856TIP3   OH227058   1.938   4.539   3.472 -0.2901 -0.1148  0.1228
 1856TIP3    H127059   1.980   4.625   3.475 -0.9262  0.2382 -0.7633
 1856TIP3    H227060   1.993   4.487   3.413  0.0687 -0.3133  0.6226
 1857TIP3   OH227061   6.421   1.995   3.935 -0.3610 -0.6534  0.5418
 1857TIP3    H127062   6.509   2.022   3.909  0.1496 -1.1600  1.6716
 1857TIP3    H227063   6.369   2.076   3.933 -0.8629 -0.8563 -3.6474
 1858TIP3   OH227064   1.318   3.133   4.749 -0.6473 -0.0455 -0.5828
 1858TIP3    H127065   1.244   3.136   4.810  0.5834  0.8215  0.9211
 1858TIP3    H227066   1.303   3.208   4.691 -0.4690  0.6864  0.3040
 1859TIP3   OH227067   1.921   5.057   5.617  0.3429  0.2283 -0.2916
 1859TIP3    H127068   1.868   5.081   5.541  0.0124 -1.6195 -0.6998
 1859TIP3    H227069   1.866   4.997   5.667  1.2035  0.0556  0.4749
 1860TIP3   OH227070   5.000   4.960  13.365 -0.5781 -0.1330 -0.3196
 1860TIP3    H127071   5.033   4.903  13.435 -0.6786  0.8660  0.5613
 1860TIP3    H227072   5.077   4.978  13.311 -0.5085 -0.9514 -0.5051
 1861TIP3   OH227073   6.672   4.616   0.954 -0.3451 -0.3440 -0.1805
 1861TIP3    H127074   6.693   4.638   0.863  1.5994  0.9679  0.5024
 1861TIP3    H227075   6.710   4.688   1.004 -1.0785 -1.2194  1.6925
 1862TIP3   OH227076   0.495   3.517   3.669  0.1737 -0.0231 -0.2147
 1862TIP3    H127077   0.412   3.533   3.623  0.6661  0.2158 -1.0468
 1862TIP3    H227078   0.477   3.539   3.760 -1.9365 -4.0735  0.5781
 1863TIP3   OH227079   3.649   2.219  16.618  0.0857 -0.4005 -0.1149
 1863TIP3    H127080   3.613   2.294  16.666  0.3271 -0.3922  0.0559
 1863TIP3    H227081   3.708   2.177  16.681 -0.2563 -0.8897 -0.1148
 1864TIP3   OH227082   4.223   6.196  16.144 -0.0307  0.1666  0.2052
 1864TIP3    H127083   4.259   6.247  16.072 -0.4495 -0.1701 -0.2530
 1864TIP3    H227084   4.159   6.254  16.185 -0.7675 -0.0916 -0.5344
 1865TIP3   OH227085   2.414   2.212   7.017  0.0213 -0.1611 -0.0128
 1865TIP3    H127086   2.498   2.214   6.972  0.0722  2.0346  0.0956
 1865TIP3    H227087   2.368   2.290   6.986 -0.8848  0.1404  1.9336
 1866TIP3   OH227088   2.591   0.013   4.832  0.1398  0.0838 -0.3061
 1866TIP3    H127089   2.669  -0.042   4.829 -0.3550 -0.6737  0.3545
 1866TIP3    H227090   2.625   0.103   4.824  0.9377 -0.3036 -1.5740
 1867TIP3   OH227091   6.809   0.289   5.095  0.9452 -0.3657 -0.0820
 1867TIP3    H127092   6.873   0.219   5.109  1.3726  0.1453  0.6130
 1867TIP3    H227093   6.804   0.299   5.000 -0.0653 -2.1821 -0.2550
 1868TIP3   OH227094   1.289   3.716  15.177  0.4105 -0.1584  0.5879
 1868TIP3    H127095   1.368   3.679  15.216 -0.1093 -2.7968 -0.6521
 1868TIP3    H227096   1.320   3.763  15.100  0.8386 -0.6198  0.4763
 1869TIP3   OH227097   2.150   4.954   1.526 -0.4027  0.1933  0.2688
 1869TIP3    H127098   2.163   4.957   1.621 -0.6952  1.8624  0.2795
 1869TIP3    H227099   2.060   4.925   1.515 -0.1304 -0.7703  0.4612
 1870TIP3   OH227100   1.057   1.045  10.596  0.1543  0.3083 -0.2869
 1870TIP3    H127101   0.991   1.083  10.654  0.6315 -0.1163  0.5586
 1870TIP3    H227102   1.051   0.950  10.611  0.2903  0.1916 -0.9317
 1871TIP3   OH227103   0.739   4.170  13.049 -0.3918 -0.0004 -0.5641
 1871TIP3    H127104   0.786   4.251  13.026  1.4937 -1.3703 -1.8866
 1871TIP3    H227105   0.664   4.168  12.989  0.2027  0.2178 -1.3355
 1872TIP3   OH227106   3.156   6.116   5.526  0.0825 -0.3923  0.3042
 1872TIP3    H127107   3.230   6.172   5.552  1.4159 -0.4934 -2.8090
 1872TIP3    H227108   3.083   6.176   5.514  0.3766  0.0867  0.8586
 1873TIP3   OH227109   2.006   6.793  12.971  0.8120  0.0198 -0.0125
 1873TIP3    H127110   1.933   6.800  13.032  1.2259 -0.9049  0.6201
 1873TIP3    H227111   1.965   6.790  12.884  0.1731  0.5558  0.2639
 1874TIP3   OH227112   5.978   2.333  16.754  0.6662 -0.0411 -0.1246
 1874TIP3    H127113   6.068   2.367  16.748  1.2146 -0.9726  1.7371
 1874TIP3    H227114   5.986   2.256  16.811 -1.4461  0.3823  0.8485
 1875TIP3   OH227115   2.908   6.075   0.004  0.0263  0.2433 -0.3747
 1875TIP3    H127116   2.839   6.009  -0.006  0.3458  0.0476 -1.4690
 1875TIP3    H227117   2.957   6.047   0.081 -1.8542  1.0908  1.2001
 1876TIP3   OH227118   2.598   0.920  13.361  0.2813  0.2032  0.0833
 1876TIP3    H127119   2.537   0.945  13.431 -0.5733 -0.0078 -0.5739
 1876TIP3    H227120   2.675   0.889  13.407 -0.3131 -0.0404  0.9460
 1877TIP3   OH227121   2.603   4.748  15.319  0.3351  0.1613  0.1503
 1877TIP3    H127122   2.556   4.769  15.239  0.1833 -1.5133 -0.2331
 1877TIP3    H227123   2.556   4.796  15.388 -0.8669 -0.1048 -0.4664
 1878TIP3   OH227124   2.487   1.148  14.185  0.7060 -0.1742 -0.0460
 1878TIP3    H127125   2.514   1.060  14.157 -0.0321 -1.2648  2.4115
 1878TIP3    H227126   2.416   1.132  14.248  0.5023  2.2052  0.4087
 1879TIP3   OH227127   0.323   4.444  13.222  0.6270  0.1491 -0.3235
 1879TIP3    H127128   0.406   4.491  13.233  1.3349 -0.7157 -1.6357
 1879TIP3    H227129   0.315   4.390  13.301  1.8331 -0.4947 -0.6214
 1880TIP3   OH227130   3.448   3.754  12.067 -0.6300  0.5914  0.2828
 1880TIP3    H127131   3.485   3.687  12.010  0.4585  0.8335  0.6774
 1880TIP3    H227132   3.424   3.826  12.008 -1.4542  0.0186 -0.0934
 1881TIP3   OH227133   6.281   0.071   5.616 -0.6872  0.1172 -0.3382
 1881TIP3    H127134   6.326   0.003   5.665 -0.8448  0.0681 -0.2593
 1881TIP3    H227135   6.245   0.026   5.540 -1.7183 -0.1212  0.2610
 1882TIP3   OH227136   3.864   0.570  11.957  0.0511 -0.4133  0.5056
 1882TIP3    H127137   3.781   0.591  12.000 -1.0527  1.9249 -2.4290
 1882TIP3    H227138   3.851   0.482  11.922 -1.3834  0.0879 -0.2739
 1883TIP3   OH227139   5.300   3.260  13.582 -0.1433  0.0902 -0.1188
 1883TIP3    H127140   5.330   3.274  13.492 -1.2832  0.6685 -0.4306
 1883TIP3    H227141   5.368   3.207  13.622  0.8217  0.5824 -1.0603
 1884TIP3   OH227142   4.464   3.525   0.680  0.3468  0.2950  0.4726
 1884TIP3    H127143   4.506   3.592   0.626 -0.9308  0.0071 -0.9327
 1884TIP3    H227144   4.451   3.568   0.765  0.1769  1.6114 -0.1926
 1885TIP3   OH227145   3.110   4.198   2.676  0.7733  0.2259 -0.5165
 1885TIP3    H127146   3.117   4.256   2.600 -0.2178 -0.1165 -0.8888
 1885TIP3    H227147   3.037   4.140   2.655  0.0017  0.5977  1.0078
 1886TIP3   OH227148   4.475   6.824   4.278 -0.3222  0.2454 -0.2820
 1886TIP3    H127149   4.423   6.794   4.203 -2.1107  1.5346  0.3620
 1886TIP3    H227150   4.468   6.920   4.274 -0.6857  0.3350  1.6508
 1887TIP3   OH227151   4.494   1.886  16.934  0.0927  0.0001 -0.2519
 1887TIP3    H127152   4.399   1.897  16.937  0.0156 -0.7889  0.7860
 1887TIP3    H227153   4.526   1.944  17.003  0.2363 -0.8783  0.4289
 1888TIP3   OH227154   6.185   3.424   2.227  0.3400 -0.3098  0.0345
 1888TIP3    H127155   6.232   3.497   2.267  1.7523 -0.5010 -1.2048
 1888TIP3    H227156   6.116   3.465   2.175 -0.7873 -0.0213  1.6433
 1889TIP3   OH227157   5.534   0.722  15.760  0.1303  0.0617 -0.0629
 1889TIP3    H127158   5.554   0.789  15.826 -0.6081 -1.3201  1.6176
 1889TIP3    H227159   5.446   0.691  15.782  0.6020 -1.7385 -0.5363
 1890TIP3   OH227160   3.964   3.226  15.814  0.1009  0.3402  0.0102
 1890TIP3    H127161   3.937   3.234  15.723  1.0078  1.1395 -0.2109
 1890TIP3    H227162   4.005   3.310  15.834  2.5822 -0.8139  0.2224
 1891TIP3   OH227163   1.504   3.012   3.456  0.7753 -0.2095 -0.0979
 1891TIP3    H127164   1.427   3.070   3.460 -0.0467 -1.2934  0.3649
 1891TIP3    H227165   1.479   2.944   3.393  1.6866 -0.1166 -0.5641
 1892TIP3   OH227166   3.221   5.893   3.380  0.2330  0.1702 -0.1708
 1892TIP3    H127167   3.214   5.899   3.475 -1.6373 -1.1241 -0.1812
 1892TIP3    H227168   3.309   5.857   3.364  0.4731  0.1817  1.0502
 1893TIP3   OH227169   5.796   0.037  12.159 -0.2067 -0.0525 -0.6225
 1893TIP3    H127170   5.761   0.046  12.247 -0.9194 -1.6326 -0.7164
 1893TIP3    H227171   5.811  -0.057  12.148  3.0461  0.3920 -0.9957
 1894TIP3   OH227172   3.973   5.343  13.565 -0.6319  0.5023  0.0643
 1894TIP3    H127173   3.924   5.264  13.588  0.2206  0.2310  1.0498
 1894TIP3    H227174   4.003   5.328  13.475 -0.4428 -0.3275  0.2549
 1895TIP3   OH227175   4.668   2.087  13.828  0.6479 -0.3198  0.5025
 1895TIP3    H127176   4.746   2.130  13.862  1.3642 -1.0174 -0.2390
 1895TIP3    H227177   4.616   2.158  13.790  1.9532 -0.1214 -0.9640
 1896TIP3   OH227178   2.436   1.976  12.385  0.3302 -1.1837 -0.0961
 1896TIP3    H127179   2.521   1.996  12.347  0.5809 -0.9754  0.5640
 1896TIP3    H227180   2.382   2.053  12.365  0.4783 -1.0503  0.0140
 1897TIP3   OH227181   2.624   6.372  11.190  0.2562  0.1578 -0.1460
 1897TIP3    H127182   2.653   6.408  11.274  2.0465 -0.5709 -0.3982
 1897TIP3    H227183   2.675   6.421  11.125 -0.2246 -0.1221 -0.7419
 1898TIP3   OH227184   3.321   5.586  16.972 -0.1512 -0.6335 -0.1649
 1898TIP3    H127185   3.343   5.649  16.904  0.0208 -2.1834 -1.5867
 1898TIP3    H227186   3.237   5.617  17.007 -1.0663 -0.6884 -2.2110
 1899TIP3   OH227187   4.901   1.988  11.498  0.2174  0.0856  0.2403
 1899TIP3    H127188   4.978   1.930  11.494  0.1341  0.0121 -0.3065
 1899TIP3    H227189   4.929   2.060  11.555  0.4591 -0.2856  0.5995
 1900TIP3   OH227190   1.237   4.982  14.109 -0.2907  0.3663  0.3797
 1900TIP3    H127191   1.309   4.985  14.173  0.0635 -0.0552  0.0082
 1900TIP3    H227192   1.279   5.002  14.025 -0.4740 -0.5867  0.0533
 1901TIP3   OH227193   0.105   6.620   5.581 -0.3505  0.6052  0.6625
 1901TIP3    H127194   0.159   6.692   5.614  0.2985  0.0916  0.7638
 1901TIP3    H227195   0.081   6.571   5.660 -1.7458  1.3308  0.7208
 1902TIP3   OH227196   6.375   2.913  16.515 -0.0645 -0.1834 -0.2047
 1902TIP3    H127197   6.448   2.851  16.509 -0.5972 -0.7272 -1.3602
 1902TIP3    H227198   6.323   2.882  16.589  0.4725 -0.2166  0.1656
 1903TIP3   OH227199   1.170   1.148   0.512 -0.0501  0.0707 -0.2995
 1903TIP3    H127200   1.129   1.234   0.521 -0.2687 -0.1303  0.7994
 1903TIP3    H227201   1.104   1.086   0.543 -0.1204 -0.5645 -1.6469
 1904TIP3   OH227202   2.076   4.612   4.944  0.5311  0.6941 -0.3731
 1904TIP3    H127203   2.033   4.667   4.878  0.7884  0.4917 -0.7071
 1904TIP3    H227204   2.029   4.633   5.025 -0.0222  0.6766 -0.6813
 1905TIP3   OH227205   1.506   2.854   2.965  0.5722 -0.3451  0.4892
 1905TIP3    H127206   1.497   2.864   2.870 -0.9666 -1.2434  0.5115
 1905TIP3    H227207   1.421   2.822   2.994  1.9136 -3.0278  1.7746
 1906TIP3   OH227208   0.188   2.281   2.347 -0.0540 -0.3411 -0.0992
 1906TIP3    H127209   0.242   2.300   2.423 -0.1473  1.1144 -0.3543
 1906TIP3    H227210   0.123   2.352   2.346 -0.0322 -0.3080 -1.5419
 1907TIP3   OH227211   5.897   3.313  10.755  0.2843 -0.0897  0.2605
 1907TIP3    H127212   5.940   3.231  10.779 -1.0859 -1.1823 -0.8038
 1907TIP3    H227213   5.907   3.369  10.832  3.6388 -0.1900  0.0382
 1908TIP3   OH227214   0.659   2.961  14.736  0.4027  0.4477 -0.8423
 1908TIP3    H127215   0.585   2.924  14.784  1.5955  0.0684  0.7817
 1908TIP3    H227216   0.665   2.907  14.657 -0.2584 -0.3295 -0.3804
 1909TIP3   OH227217   5.706   0.299   0.431 -0.6400  0.4090 -0.5905
 1909TIP3    H127218   5.629   0.276   0.380 -0.8968  1.1199 -0.5417
 1909TIP3    H227219   5.762   0.347   0.370 -0.6862  0.7488 -0.3745
 1910TIP3   OH227220   5.257   2.211   1.811 -0.1978  0.0850  0.3803
 1910TIP3    H127221   5.237   2.291   1.762 -0.4171 -0.2288 -0.0524
 1910TIP3    H227222   5.288   2.149   1.744  0.8607  0.0984  0.8384
 1911TIP3   OH227223   0.772   1.103  11.725 -0.1404  0.2284  0.0857
 1911TIP3    H127224   0.681   1.134  11.722 -0.1401  0.1914 -1.0869
 1911TIP3    H227225   0.765   1.008  11.723 -0.0962  0.1852  1.4870
 1912TIP3   OH227226   5.332   1.470   3.542  0.6925  0.8545  0.1043
 1912TIP3    H127227   5.335   1.540   3.607  2.1625  2.2104 -1.3566
 1912TIP3    H227228   5.355   1.391   3.591 -1.0797  1.2988  1.8039
 1913TIP3   OH227229   1.411   3.189  15.041  0.3318 -0.2180  0.2891
 1913TIP3    H127230   1.488   3.242  15.021 -0.5124  1.2465  0.8031
 1913TIP3    H227231   1.341   3.228  14.990 -0.1034 -1.5284 -0.1573
 1914TIP3   OH227232   0.073   6.696  16.184 -0.1431 -0.6337  0.2308
 1914TIP3    H127233   0.066   6.605  16.153  1.5568 -1.0061  0.8073
 1914TIP3    H227234   0.131   6.738  16.121 -1.5899  0.3279 -0.5110
 1915TIP3   OH227235   5.262   3.122  11.222 -0.3915  0.4453  0.1045
 1915TIP3    H127236   5.210   3.135  11.301  0.0709 -0.3934  0.5583
 1915TIP3    H227237   5.339   3.178  11.234 -0.2366  0.1849  0.3312
 1916TIP3   OH227238   3.014   2.127   2.435 -0.1904 -0.2684 -0.3959
 1916TIP3    H127239   3.109   2.123   2.445  0.0281 -0.0261 -2.1274
 1916TIP3    H227240   2.983   2.162   2.519  1.2457 -0.2541  0.1597
 1917TIP3   OH227241   5.859   0.855   3.695  0.7285 -0.3657  0.3230
 1917TIP3    H127242   5.865   0.767   3.734  1.5819  0.2375  1.6480
 1917TIP3    H227243   5.950   0.879   3.678  0.5316  0.4052  0.3186
 1918TIP3   OH227244   3.142   5.846   5.719  0.1190 -0.1684 -0.3943
 1918TIP3    H127245   3.064   5.803   5.754  0.2994  0.5628  0.9466
 1918TIP3    H227246   3.109   5.897   5.645 -0.1077 -2.4771 -1.9903
 1919TIP3   OH227247   1.318   6.379  14.277 -0.4803  0.2233  0.7220
 1919TIP3    H127248   1.296   6.386  14.184 -1.8873 -2.1434  0.7826
 1919TIP3    H227249   1.408   6.345  14.278  0.0271  1.5108  0.2757
 1920TIP3   OH227250   4.624   5.579   4.451  0.4363  0.3710 -0.6265
 1920TIP3    H127251   4.615   5.674   4.450 -0.4778  0.2999 -1.0948
 1920TIP3    H227252   4.711   5.562   4.415  0.3389  1.0138 -1.1835
 1921TIP3   OH227253   3.254   2.088   5.693  0.4741  0.3476  0.0968
 1921TIP3    H127254   3.213   2.019   5.746 -1.3337  0.6367 -0.8440
 1921TIP3    H227255   3.201   2.092   5.613  2.2433  0.9323 -1.1037
 1922TIP3   OH227256   2.389   0.872   3.326 -0.0989  0.0120 -0.5602
 1922TIP3    H127257   2.344   0.956   3.319  0.2626  0.4472  1.6878
 1922TIP3    H227258   2.318   0.807   3.327 -0.5076  0.4575 -0.0619
 1923TIP3   OH227259   0.074   2.003  16.214 -0.5853  0.4285 -0.2505
 1923TIP3    H127260   0.046   2.094  16.223 -0.6910  0.2717  1.3017
 1923TIP3    H227261   0.012   1.954  16.267 -0.1005 -0.4707 -0.5039
 1924TIP3   OH227262   3.217   1.386  16.969  0.0057 -0.3926  0.2862
 1924TIP3    H127263   3.240   1.332  16.893  1.6612 -0.7310  0.9891
 1924TIP3    H227264   3.215   1.475  16.935  1.1536 -0.4940 -0.0921
 1925TIP3   OH227265   4.019   6.063   2.512  0.4789 -0.5840  0.4129
 1925TIP3    H127266   3.998   6.111   2.431  0.5556  1.3326  1.4656
 1925TIP3    H227267   3.958   6.098   2.577 -0.2511 -2.8178  0.9993
 1926TIP3   OH227268   1.593   0.119  14.740  0.4442 -0.1063  0.1875
 1926TIP3    H127269   1.613   0.113  14.647  0.0434 -1.1653  0.1579
 1926TIP3    H227270   1.530   0.049  14.756  0.8494 -0.2237  1.3532
 1927TIP3   OH227271   5.162   0.479   4.084 -0.3708 -0.5010 -0.5039
 1927TIP3    H127272   5.181   0.386   4.068  2.8330 -0.2670  1.1036
 1927TIP3    H227273   5.217   0.502   4.159 -1.0399  2.7348 -0.8636
 1928TIP3   OH227274   4.324   5.017  15.134 -0.1223  0.1393  0.2942
 1928TIP3    H127275   4.393   4.963  15.172  0.9848  0.0748 -1.6913
 1928TIP3    H227276   4.257   5.021  15.202  1.4085 -0.5837  1.9297
 1929TIP3   OH227277   5.228   1.435  11.470  0.0394 -0.3510  0.4535
 1929TIP3    H127278   5.165   1.468  11.406  2.2981  0.7368 -1.3770
 1929TIP3    H227279   5.230   1.503  11.538  1.0580  0.9651 -0.8098
 1930TIP3   OH227280   0.932   6.161   5.079 -0.3524 -0.9135 -0.0772
 1930TIP3    H127281   0.928   6.180   5.173  1.8164 -0.3767 -0.0437
 1930TIP3    H227282   0.933   6.247   5.038  0.9333 -1.0896 -0.4409
 1931TIP3   OH227283   4.528   2.250  15.912 -0.4438  0.5965  0.3698
 1931TIP3    H127284   4.436   2.266  15.933 -0.1507  1.9320  0.7507
 1931TIP3    H227285   4.555   2.179  15.971 -1.1176  0.4640  0.5220
 1932TIP3   OH227286   5.409   2.214   1.197  0.9751  0.0515  0.5112
 1932TIP3    H127287   5.372   2.126   1.189 -1.6162  0.9173  1.8690
 1932TIP3    H227288   5.362   2.265   1.132  3.3030  0.2971 -1.1128
 1933TIP3   OH227289   5.552   0.777  17.053  0.3306  0.5237  0.6213
 1933TIP3    H127290   5.608   0.719  17.003  2.2306  0.6569  2.4411
 1933TIP3    H227291   5.566   0.864  17.014  1.4955  0.5676  1.1033
 1934TIP3   OH227292   2.111   1.946  11.013 -0.2176  0.1369 -0.5881
 1934TIP3    H127293   2.187   1.981  11.060 -0.8337 -0.8192  1.2137
 1934TIP3    H227294   2.097   1.860  11.052  0.1887 -1.4709 -3.6668
 1935TIP3   OH227295   0.090   2.212   5.615  0.0559 -0.0682  0.6298
 1935TIP3    H127296   0.097   2.184   5.524  1.2987 -0.1410  0.7338
 1935TIP3    H227297   0.034   2.290   5.611 -1.4620 -1.1470  0.0603
 1936TIP3   OH227298   4.171   4.282   4.697  0.5136  0.6247  0.1480
 1936TIP3    H127299   4.126   4.215   4.647 -0.5477  0.5752  1.1422
 1936TIP3    H227300   4.169   4.359   4.640 -2.5600  1.1939  0.8680
 1937TIP3   OH227301   5.910   6.702  12.808 -0.3437 -0.0800 -0.4190
 1937TIP3    H127302   5.905   6.607  12.813  1.7618 -0.1785  1.2511
 1937TIP3    H227303   5.980   6.726  12.869 -0.6077  2.5262 -1.0062
 1938TIP3   OH227304   5.811   3.829   5.263  0.6428  0.2070  0.2703
 1938TIP3    H127305   5.855   3.762   5.315  1.4878 -0.6633 -1.4776
 1938TIP3    H227306   5.742   3.862   5.320  2.1291  0.0178  2.2891
 1939TIP3   OH227307   3.349   3.044  13.940  0.0797  0.2198  0.1629
 1939TIP3    H127308   3.282   3.032  14.007 -0.4518  1.4117 -0.1241
 1939TIP3    H227309   3.430   3.058  13.989  0.4884 -2.8063  0.5123
 1940TIP3   OH227310   4.665   0.730  14.753 -0.3546 -0.4339  0.0367
 1940TIP3    H127311   4.741   0.779  14.784 -0.6571  1.9218 -2.6033
 1940TIP3    H227312   4.612   0.716  14.832  0.0087  3.1346  1.0704
 1941TIP3   OH227313   1.780   3.961   6.122  0.5378  0.4210 -0.2138
 1941TIP3    H127314   1.813   4.049   6.104  1.3704  0.2705  0.5214
 1941TIP3    H227315   1.771   3.958   6.217  0.9008 -0.4290 -0.1981
 1942TIP3   OH227316   2.244   1.442   5.879 -0.4208  0.0157 -0.2835
 1942TIP3    H127317   2.258   1.523   5.830  0.5924 -0.0806 -0.1931
 1942TIP3    H227318   2.287   1.457   5.963  1.2768 -1.1847 -0.8772
 1943TIP3   OH227319   4.502   1.750   0.918 -0.0867  0.2693  0.4007
 1943TIP3    H127320   4.551   1.670   0.902 -0.4108 -0.0548  0.9903
 1943TIP3    H227321   4.451   1.732   0.997  0.0804  1.1620  0.7310
 1944TIP3   OH227322   6.525   1.340  11.605  0.2823  0.0862  0.0066
 1944TIP3    H127323   6.595   1.275  11.609  0.8440  0.7230  0.7034
 1944TIP3    H227324   6.534   1.379  11.518 -0.1488 -0.8417 -0.4776
 1945TIP3   OH227325   0.373   0.709  11.971 -0.0593 -0.2966  0.2133
 1945TIP3    H127326   0.336   0.678  12.054 -0.3618  1.9463  0.9685
 1945TIP3    H227327   0.459   0.743  11.995  0.6362 -1.3244 -0.7504
 1946TIP3   OH227328   4.664   3.505  12.741 -0.2057 -0.1440  0.1124
 1946TIP3    H127329   4.714   3.575  12.699 -0.4155  0.1363  0.3259
 1946TIP3    H227330   4.574   3.517  12.710 -0.0529 -0.9933 -0.7213
 1947TIP3   OH227331   1.099   4.132  15.780  0.2257  0.0972 -0.0318
 1947TIP3    H127332   1.190   4.158  15.789  0.0708  0.7007 -0.2069
 1947TIP3    H227333   1.075   4.156  15.691  0.3752 -1.5838 -0.5692
 1948TIP3   OH227334   4.359   0.592   1.994 -0.6924  0.6814 -0.3608
 1948TIP3    H127335   4.382   0.501   2.012  1.2821  1.2396  0.0935
 1948TIP3    H227336   4.424   0.622   1.931 -0.2186  2.2544  0.7890
 1949TIP3   OH227337   5.809   0.574  16.440 -1.1222  0.3573  0.6559
 1949TIP3    H127338   5.827   0.659  16.401 -2.3513  0.2073 -0.3100
 1949TIP3    H227339   5.736   0.589  16.500 -0.0241  0.3494  2.0511
 1950TIP3   OH227340   2.370   3.253  16.267  0.4024  0.8170  0.3633
 1950TIP3    H127341   2.304   3.286  16.205  0.9480 -1.7373 -1.7496
 1950TIP3    H227342   2.453   3.261  16.219  0.6182 -3.0202 -0.2289
 1951TIP3   OH227343   6.308   3.935  12.167 -0.2839 -0.3198 -0.4795
 1951TIP3    H127344   6.239   3.873  12.194 -0.5026 -0.2130 -0.7863
 1951TIP3    H227345   6.261   4.002  12.117  0.2099 -0.8873 -1.7289
 1952TIP3   OH227346   3.852   0.501   0.648  0.5053  0.5623  0.2104
 1952TIP3    H127347   3.839   0.414   0.610 -1.0910  1.0610 -0.4708
 1952TIP3    H227348   3.857   0.485   0.743  0.1865 -0.2709  0.0964
 1953TIP3   OH227349   2.723   6.147   3.748 -0.0687  0.0717 -0.6344
 1953TIP3    H127350   2.698   6.155   3.656 -0.2669 -0.9826 -0.6915
 1953TIP3    H227351   2.793   6.211   3.760  0.2224 -0.0468 -1.6167
 1954TIP3   OH227352   6.765   5.682   4.548  0.0141  0.0629  0.2941
 1954TIP3    H127353   6.797   5.645   4.465  0.6697 -0.7316  0.8891
 1954TIP3    H227354   6.753   5.775   4.529  0.6733 -0.0060 -0.5501
 1955TIP3   OH227355   1.817   5.437  15.680 -0.2630  0.3531  0.6522
 1955TIP3    H127356   1.816   5.438  15.584 -1.8944  0.8859  0.6557
 1955TIP3    H227357   1.897   5.388  15.702  0.4876  0.7900 -0.9564
 1956TIP3   OH227358   4.384   5.927   5.217  0.3816  0.0649 -0.2752
 1956TIP3    H127359   4.455   5.985   5.243  0.0627  0.5707 -0.5140
 1956TIP3    H227360   4.341   5.972   5.144 -0.8507  0.2945  0.5497
 1957TIP3   OH227361   0.837   1.364  11.591  0.4575 -0.4068  0.2793
 1957TIP3    H127362   0.829   1.293  11.655 -0.3176  0.2047  0.8737
 1957TIP3    H227363   0.747   1.391  11.574  0.8037  2.8288  2.7664
 1958TIP3   OH227364   3.024   1.882   2.570 -0.2992 -0.0445  0.1418
 1958TIP3    H127365   3.021   1.944   2.497  0.1881 -0.1727  0.0051
 1958TIP3    H227366   3.082   1.812   2.539  0.4940  0.2505  0.9251
 1959TIP3   OH227367   5.031   4.556   1.388 -0.0464 -0.3394 -0.1860
 1959TIP3    H127368   5.111   4.507   1.372 -0.1647 -0.7097  0.3240
 1959TIP3    H227369   4.976   4.497   1.440 -0.6236 -0.0680 -0.4712
 1960TIP3   OH227370   5.308   0.539  16.983  0.2190 -0.1388  0.6409
 1960TIP3    H127371   5.355   0.467  17.024  1.2518 -2.2961 -3.8238
 1960TIP3    H227372   5.370   0.577  16.922 -2.0766  0.6863 -1.3155
 1961TIP3   OH227373   4.827   5.081  17.196 -0.6582  0.4663  0.2143
 1961TIP3    H127374   4.867   5.137  17.263  0.1390 -0.1670  0.2819
 1961TIP3    H227375   4.767   5.024  17.245 -1.4514  1.2182  0.1498
 1962TIP3   OH227376   3.070   5.095  13.667  0.1114  0.2999 -0.8998
 1962TIP3    H127377   3.110   5.014  13.696  1.0231  1.7553  2.3889
 1962TIP3    H227378   2.976   5.076  13.663  0.3828 -1.0879 -1.0035
 1963TIP3   OH227379   5.812   4.452  12.530  0.1036 -0.0101 -0.2039
 1963TIP3    H127380   5.744   4.445  12.463 -0.5598  1.3664  0.2724
 1963TIP3    H227381   5.881   4.504  12.489 -0.9397  2.1425  0.5562
 1964TIP3   OH227382   5.528   6.436  11.660  0.1324  0.1407  0.3366
 1964TIP3    H127383   5.464   6.466  11.595  2.6134  0.5815 -2.1160
 1964TIP3    H227384   5.604   6.409  11.608  3.0075  2.1568  3.0890
 1965TIP3   OH227385   6.188   2.861   2.220  0.1754  0.2171  0.3265
 1965TIP3    H127386   6.157   2.949   2.199 -0.1489  0.5321  2.0119
 1965TIP3    H227387   6.282   2.865   2.206 -0.2142 -0.5950 -4.3186
 1966TIP3   OH227388   4.018   3.535   2.729 -0.0002 -0.3696 -0.1323
 1966TIP3    H127389   4.049   3.603   2.789  2.3465 -0.1059 -1.5025
 1966TIP3    H227390   3.942   3.496   2.773 -0.5629  2.1670  1.3210
 1967TIP3   OH227391   6.092   6.310   4.963  0.0299  0.1485  0.0266
 1967TIP3    H127392   6.010   6.278   4.998  0.2530 -0.0141  0.4054
 1967TIP3    H227393   6.156   6.295   5.033  0.2670  0.8081 -0.0397
 1968TIP3   OH227394   6.619   6.655  17.175  0.1313  0.1825  0.5043
 1968TIP3    H127395   6.597   6.732  17.122  2.7391  1.3790  1.0096
 1968TIP3    H227396   6.573   6.669  17.258  0.8598  1.4093  0.7215
 1969TIP3   OH227397   5.802   0.913  13.924 -0.2447 -0.2682 -0.1542
 1969TIP3    H127398   5.851   0.849  13.872  2.1961  0.1613  1.4293
 1969TIP3    H227399   5.814   0.995  13.877 -0.8312 -0.4389 -0.6107
 1970TIP3   OH227400   1.896   1.424   3.238  0.1251 -0.0281  0.0787
 1970TIP3    H127401   1.919   1.468   3.156  0.6519 -0.1865  0.1385
 1970TIP3    H227402   1.850   1.491   3.289  1.0609  0.5070  0.2361
 1971TIP3   OH227403   5.697   6.486  14.186  0.0250 -0.3771  0.5787
 1971TIP3    H127404   5.715   6.441  14.103 -2.0629 -2.4891  1.1797
 1971TIP3    H227405   5.626   6.546  14.166  0.4747  0.1524  0.5478
 1972TIP3   OH227406   0.666   2.154  14.869  0.2023  0.0786  0.4597
 1972TIP3    H127407   0.604   2.156  14.942 -0.1620 -0.1143  0.1619
 1972TIP3    H227408   0.747   2.189  14.905  0.0671 -0.1500  0.9986
 1973TIP3   OH227409   3.436   6.227  12.766 -0.2307  0.0291 -0.9484
 1973TIP3    H127410   3.407   6.191  12.851 -0.6022 -2.9703 -2.2135
 1973TIP3    H227411   3.519   6.183  12.749 -0.1252  0.6567 -2.1058
 1974TIP3   OH227412   6.092   4.073   1.247 -0.3409  0.3064 -0.0328
 1974TIP3    H127413   6.039   4.077   1.167 -1.4082 -1.4603  0.5423
 1974TIP3    H227414   6.160   4.009   1.227  0.1416  0.7699  0.0827
 1975TIP3   OH227415   2.261   5.331  11.963 -0.2679  0.0263  0.0904
 1975TIP3    H127416   2.176   5.351  11.925  0.9605  2.1497 -1.8994
 1975TIP3    H227417   2.271   5.394  12.034 -0.1077  0.2650 -0.1396
 1976TIP3   OH227418   4.167   0.077  11.140 -0.0267  0.2672  0.0476
 1976TIP3    H127419   4.175   0.088  11.235 -0.2411 -1.2956  0.2788
 1976TIP3    H227420   4.072   0.078  11.124 -0.0961 -1.2972  0.1450
 1977TIP3   OH227421   5.344   0.388   0.373 -0.2583 -0.6896  0.1834
 1977TIP3    H127422   5.405   0.327   0.414  0.5967 -0.1480 -0.2443
 1977TIP3    H227423   5.277   0.332   0.334  0.1552 -1.3227  0.3555
 1978TIP3   OH227424   5.228   5.416   3.224  0.4407 -0.2601  0.1762
 1978TIP3    H127425   5.281   5.357   3.171  1.0376  1.4816 -1.2651
 1978TIP3    H227426   5.193   5.360   3.294  0.9066 -2.3009 -1.1261
 1979TIP3   OH227427   5.990   5.100   4.807  0.3503  0.2772  1.0683
 1979TIP3    H127428   6.039   5.058   4.736 -1.1932 -0.7090  0.5524
 1979TIP3    H227429   6.049   5.093   4.883  1.4243  0.0413  0.2472
 1980TIP3   OH227430   1.608   3.666   1.389 -0.0333 -0.2985  0.5275
 1980TIP3    H127431   1.663   3.657   1.467 -0.2416 -1.4469  0.5522
 1980TIP3    H227432   1.598   3.577   1.355 -2.1466 -0.1967  0.7205
 1981TIP3   OH227433   6.034   3.777   2.764  0.3785 -0.1091  0.0896
 1981TIP3    H127434   6.006   3.859   2.724 -1.2387 -0.8781 -0.4398
 1981TIP3    H227435   6.035   3.795   2.858 -1.3045  0.1685  0.0866
 1982TIP3   OH227436   3.621   5.395   1.166 -0.3788  0.0257 -0.0238
 1982TIP3    H127437   3.538   5.415   1.210 -1.9792 -1.5939 -2.0730
 1982TIP3    H227438   3.687   5.402   1.235 -2.4215 -0.2297  2.0893
 1983TIP3   OH227439   3.183   0.527  10.470  0.4707  0.0234 -0.6854
 1983TIP3    H127440   3.257   0.585  10.488 -0.3384  1.1494 -0.9508
 1983TIP3    H227441   3.210   0.478  10.392  1.2823 -0.2082 -0.2765
 1984TIP3   OH227442   5.335   6.377   1.529  0.5892  0.3461 -0.1276
 1984TIP3    H127443   5.265   6.339   1.582 -0.0673  0.5564 -0.8361
 1984TIP3    H227444   5.386   6.302   1.500 -1.5836 -0.2390 -2.8040
 1985TIP3   OH227445   4.150   0.939  16.452  0.0941 -0.5560 -0.1372
 1985TIP3    H127446   4.189   1.018  16.490  1.4255  0.6142 -3.6246
 1985TIP3    H227447   4.063   0.935  16.492 -0.3567  3.1499 -0.3769
 1986TIP3   OH227448   2.520   0.245   3.929  0.8538 -0.2568 -0.5318
 1986TIP3    H127449   2.567   0.171   3.968 -1.6416 -0.6093  2.2012
 1986TIP3    H227450   2.555   0.322   3.974 -1.3010 -0.5772  2.0388
 1987TIP3   OH227451   0.891   6.675  10.335  0.2553  0.2577 -0.1963
 1987TIP3    H127452   0.863   6.584  10.325 -1.1099  0.4856  1.1532
 1987TIP3    H227453   0.986   6.670  10.347  0.4101 -0.8407 -1.6322
 1988TIP3   OH227454   6.183   5.539   3.222 -0.2542 -0.3938 -0.1688
 1988TIP3    H127455   6.130   5.488   3.284  1.7434 -1.0086  1.1202
 1988TIP3    H227456   6.205   5.619   3.269  0.2246 -0.2934 -0.5531
 1989TIP3   OH227457   3.532   4.242  15.080 -1.4282  0.4497  0.0920
 1989TIP3    H127458   3.441   4.255  15.054 -1.2083  1.6965 -0.1073
 1989TIP3    H227459   3.583   4.279  15.008 -0.7614 -0.0709  0.2898
 1990TIP3   OH227460   5.992   0.831   6.661  0.1220 -0.1035  0.7446
 1990TIP3    H127461   5.902   0.837   6.690 -0.3566 -0.3128 -0.6266
 1990TIP3    H227462   6.004   0.740   6.635  0.4897  0.0940  0.1965
 1991TIP3   OH227463   1.479   4.864   5.625 -0.6126 -0.6623  0.4356
 1991TIP3    H127464   1.480   4.888   5.533 -1.9420 -0.6469  0.4071
 1991TIP3    H227465   1.563   4.896   5.659  0.6457 -2.1146 -1.0993
 1992TIP3   OH227466   4.788   1.125   5.186  0.1629  0.1154  0.4751
 1992TIP3    H127467   4.796   1.075   5.268 -0.6127 -0.4712  0.2087
 1992TIP3    H227468   4.709   1.177   5.197  1.4306  2.0038  1.0977
 1993TIP3   OH227469   2.567   4.538  16.968 -0.3735  0.2662  0.6903
 1993TIP3    H127470   2.515   4.511  16.892 -0.6232  0.0547  0.9335
 1993TIP3    H227471   2.652   4.563  16.932  0.6175 -2.7834  0.6539
 1994TIP3   OH227472   3.512   3.150  16.978 -0.1930  0.5446 -0.2404
 1994TIP3    H127473   3.577   3.188  16.919  0.2262  2.2225  1.2132
 1994TIP3    H227474   3.431   3.151  16.927  0.1981  1.7197 -0.8855
 1995TIP3   OH227475   6.718   4.157  12.874 -0.3037 -0.1362  0.1864
 1995TIP3    H127476   6.745   4.100  12.802  0.4916  0.7267 -0.2214
 1995TIP3    H227477   6.623   4.152  12.874 -0.2601 -1.0943 -0.1393
 1996TIP3   OH227478   1.668   2.829   0.644 -0.3915 -0.3867 -0.1650
 1996TIP3    H127479   1.595   2.891   0.638  0.1557  0.3120  0.1818
 1996TIP3    H227480   1.714   2.839   0.560  0.2690  0.4334  0.2736
 1997TIP3   OH227481   3.074   3.138  11.960 -0.0034 -0.2865 -0.4105
 1997TIP3    H127482   3.010   3.187  12.013 -0.6856 -2.5360  0.9788
 1997TIP3    H227483   3.032   3.054  11.944  1.9373 -1.2002 -0.9673
 1998TIP3   OH227484   4.889   6.044   4.796 -0.5907  0.0676 -0.1658
 1998TIP3    H127485   4.983   6.058   4.803 -0.4588 -0.8167  0.0110
 1998TIP3    H227486   4.872   6.033   4.702 -0.1810 -1.7404 -0.0779
 1999TIP3   OH227487   4.758   1.038   3.040  0.2898  0.2311  0.1971
 1999TIP3    H127488   4.821   1.061   3.108  0.2883 -0.2522  0.3692
 1999TIP3    H227489   4.775   1.100   2.969  1.6226 -0.4990 -0.1569
 2000TIP3   OH227490   0.688   0.449  11.344 -0.3358  0.1732 -0.2185
 2000TIP3    H127491   0.664   0.535  11.378  0.3787  0.0583  0.6017
 2000TIP3    H227492   0.679   0.458  11.249  0.4851  1.4052 -0.1982
 2001TIP3   OH227493   5.356   2.371   5.569  0.1908  0.4762 -0.0141
 2001TIP3    H127494   5.413   2.381   5.493  0.0233 -0.8729 -0.3454
 2001TIP3    H227495   5.267   2.386   5.535  0.2222  1.1989  0.2082
 2002TIP3   OH227496   4.575   3.659  15.100 -0.2762 -0.4719 -0.1874
 2002TIP3    H127497   4.616   3.629  15.182  0.2680 -0.2143 -0.3568
 2002TIP3    H227498   4.647   3.700  15.052  0.2166 -3.4357 -2.2471
 2003TIP3   OH227499   5.832   2.839  12.943 -0.4553 -0.2530  0.8187
 2003TIP3    H127500   5.745   2.857  12.978 -0.5919 -2.3322  1.6922
 2003TIP3    H227501   5.836   2.743  12.935  0.9809 -0.1006 -1.2756
 2004TIP3   OH227502   6.536   2.684  14.458 -0.6919 -0.0010  0.2878
 2004TIP3    H127503   6.568   2.691  14.368 -0.8773 -0.4493  0.1813
 2004TIP3    H227504   6.448   2.722  14.456 -0.4629  0.5453  0.4156
 2005TIP3   OH227505   2.886   0.772   5.746 -0.3958 -0.1310 -0.2357
 2005TIP3    H127506   2.809   0.716   5.752  0.1734 -0.7996  1.5920
 2005TIP3    H227507   2.879   0.832   5.820  0.5345  0.1831 -0.3823
 2006TIP3   OH227508   0.327   1.382   2.277  0.0910 -0.4453 -0.0416
 2006TIP3    H127509   0.321   1.294   2.240 -0.1052 -0.5070  0.1327
 2006TIP3    H227510   0.307   1.370   2.370  0.3634 -0.2623  0.0446
 2007TIP3   OH227511   2.028   2.767  12.299  0.1919 -0.5524  0.4497
 2007TIP3    H127512   2.111   2.795  12.260  0.1530  0.4791  1.0739
 2007TIP3    H227513   2.044   2.770  12.393 -0.6944  0.1125  0.5872
 2008TIP3   OH227514   5.551   4.314   0.375  0.2173 -0.4473 -0.5352
 2008TIP3    H127515   5.519   4.311   0.466 -1.1743  0.3640 -0.9626
 2008TIP3    H227516   5.521   4.232   0.336  1.4488 -1.1338 -0.0914
 2009TIP3   OH227517   3.908   1.603  16.751 -0.0383 -0.4016  0.2906
 2009TIP3    H127518   3.824   1.648  16.741  0.1756  0.5771  2.4959
 2009TIP3    H227519   3.945   1.603  16.662 -2.0754 -0.3208 -0.6144
 2010TIP3   OH227520   3.235   3.591   5.447 -0.1927  0.0331 -0.4440
 2010TIP3    H127521   3.157   3.541   5.470  0.0685  0.1412  0.7451
 2010TIP3    H227522   3.255   3.642   5.526 -0.2073  1.7110 -1.4674
 2011TIP3   OH227523   3.813   4.273  14.657 -0.4524 -0.0825 -0.7784
 2011TIP3    H127524   3.791   4.271  14.564 -0.7628 -0.6705 -0.6967
 2011TIP3    H227525   3.758   4.205  14.696  0.1504 -0.2807 -0.2658
 2012TIP3   OH227526   2.765   5.920   6.394 -0.8436 -0.0842 -0.2527
 2012TIP3    H127527   2.858   5.907   6.377 -0.9833  0.6750 -1.7500
 2012TIP3    H227528   2.720   5.877   6.321 -1.6432  0.1205  0.1047
 2013TIP3   OH227529   1.694   1.959  14.153  0.5030  0.0318 -0.2735
 2013TIP3    H127530   1.666   1.899  14.083 -0.2982  1.4819 -1.2478
 2013TIP3    H227531   1.635   2.034  14.145  1.0997  0.7034  1.2909
 2014TIP3   OH227532   2.985   5.183   0.121  0.5002 -0.1866  0.1374
 2014TIP3    H127533   2.977   5.101   0.074  0.6976 -0.0917 -0.0603
 2014TIP3    H227534   2.936   5.246   0.068  1.4149  0.1048 -0.3875
 2015TIP3   OH227535   4.572   5.222  10.372 -0.4297  0.3629 -0.4250
 2015TIP3    H127536   4.568   5.213  10.467  2.5005 -0.5671 -0.2827
 2015TIP3    H227537   4.522   5.147  10.339  1.9691 -1.7779  0.5167
 2016TIP3   OH227538   1.872   4.331  16.143 -0.1044 -0.4591 -0.1110
 2016TIP3    H127539   1.867   4.427  16.145  1.8750 -0.3109 -0.3915
 2016TIP3    H227540   1.793   4.304  16.097 -0.6835  1.0348 -0.0547
 2017TIP3   OH227541   0.318   1.851   0.606 -1.0632  0.7178 -0.2689
 2017TIP3    H127542   0.237   1.870   0.558 -0.5439 -0.5630 -1.7430
 2017TIP3    H227543   0.304   1.764   0.643 -0.8929  1.0984  0.7130
 2018TIP3   OH227544   6.032   1.557   1.473 -0.6052  0.3376 -0.2085
 2018TIP3    H127545   5.972   1.486   1.450  2.5125 -1.9842 -2.0772
 2018TIP3    H227546   6.046   1.604   1.391  0.5303  0.4288  0.0181
 2019TIP3   OH227547   6.589   5.467   1.690  0.0094 -0.0265  0.4211
 2019TIP3    H127548   6.621   5.381   1.717  1.0304  0.3967  0.6127
 2019TIP3    H227549   6.537   5.497   1.764 -1.4828 -1.0370 -0.1897
 2020TIP3   OH227550   5.771   4.064  14.837  0.8968 -0.3902 -0.2981
 2020TIP3    H127551   5.855   4.107  14.846  0.5175  0.7648 -1.9707
 2020TIP3    H227552   5.753   4.027  14.924  2.8635 -0.2291  0.2010
 2021TIP3   OH227553   1.879   4.582   5.330  0.0772  0.4199  0.5543
 2021TIP3    H127554   1.842   4.620   5.410 -0.5903 -0.3264  0.6145
 2021TIP3    H227555   1.941   4.517   5.361  0.9503  1.1893  0.4516
 2022TIP3   OH227556   4.283   2.965   5.309 -0.0114  0.3079  0.0519
 2022TIP3    H127557   4.307   3.036   5.369  0.9058 -0.0690  0.1389
 2022TIP3    H227558   4.200   2.932   5.345  0.5730  0.0225  1.1764
 2023TIP3   OH227559   0.370   2.666  17.020  0.4069 -0.2280 -0.1251
 2023TIP3    H127560   0.426   2.618  16.959 -0.3589 -1.1390 -0.1308
 2023TIP3    H227561   0.283   2.629  17.007 -0.1039  0.7895  0.2747
 2024TIP3   OH227562   2.333   6.039   5.858 -0.3724  0.4428  0.1106
 2024TIP3    H127563   2.366   6.113   5.808 -1.4539  0.4588 -0.5952
 2024TIP3    H227564   2.350   6.062   5.949 -0.5224  1.4730 -0.1137
 2025TIP3   OH227565   4.515   2.265  12.669  0.6370 -0.2218 -0.2063
 2025TIP3    H127566   4.493   2.293  12.758 -1.1628  0.5567 -0.8604
 2025TIP3    H227567   4.434   2.226  12.635  1.0938  0.1213 -1.7417
 2026TIP3   OH227568   4.988   2.250  12.898  0.3083  0.1482 -0.2400
 2026TIP3    H127569   4.977   2.292  12.813 -0.4620  0.6471  0.0952
 2026TIP3    H227570   4.921   2.181  12.899  0.6228 -0.1645 -0.2147
 2027TIP3   OH227571   1.449   0.386   4.762  0.3111  0.7788  0.3970
 2027TIP3    H127572   1.359   0.421   4.759 -0.9183 -1.8972  2.3872
 2027TIP3    H227573   1.464   0.353   4.673 -0.7208  1.1163  0.0792
 2028TIP3   OH227574   1.181   2.706  15.830 -0.7631  0.3191 -0.7580
 2028TIP3    H127575   1.100   2.743  15.866  0.7002  1.7527  1.3089
 2028TIP3    H227576   1.217   2.775  15.774  0.0661  0.5503  0.0386
 2029TIP3   OH227577   5.770   1.555   2.952 -0.2125 -0.1169  0.2487
 2029TIP3    H127578   5.766   1.467   2.914  2.3354 -1.0169  1.7910
 2029TIP3    H227579   5.737   1.612   2.883  0.2362 -2.0548 -1.6996
 2030TIP3   OH227580   0.622   6.210  11.304 -0.5431 -0.4855 -0.1303
 2030TIP3    H127581   0.558   6.139  11.301 -1.3963  0.3086 -1.7790
 2030TIP3    H227582   0.699   6.175  11.260 -0.9059 -0.4513 -0.8000
 2031TIP3   OH227583   4.515   6.368  13.842 -0.5218 -0.1791 -0.4715
 2031TIP3    H127584   4.524   6.352  13.748 -1.9874 -1.7293 -0.4060
 2031TIP3    H227585   4.496   6.461  13.849 -0.3544 -0.0344 -1.7204
 2032TIP3   OH227586   5.246   2.093  13.873 -0.0792  0.6269 -0.6771
 2032TIP3    H127587   5.341   2.081  13.872 -0.2367 -1.2890  0.9526
 2032TIP3    H227588   5.224   2.091  13.966 -1.6742  1.5837 -1.0138
 2033TIP3   OH227589   6.293   3.614  11.828  0.2289 -0.3060 -0.6772
 2033TIP3    H127590   6.338   3.696  11.848 -1.3768 -0.0336  2.5741
 2033TIP3    H227591   6.356   3.546  11.855 -0.4987  0.0477  2.2864
 2034TIP3   OH227592   5.982   6.689  10.982 -0.2560 -0.2786 -0.5568
 2034TIP3    H127593   6.035   6.746  11.038 -0.1034 -1.1131  0.1666
 2034TIP3    H227594   5.898   6.734  10.974 -0.2424 -0.1061  0.2573
 2035TIP3   OH227595   1.474   2.252  14.780  0.5301 -0.1788 -0.1766
 2035TIP3    H127596   1.447   2.258  14.871  1.2771 -2.0091  0.2209
 2035TIP3    H227597   1.415   2.186  14.742 -0.5384  1.4012 -1.3539
 2036TIP3   OH227598   0.844   6.323  12.421 -0.3408  0.0193 -0.1225
 2036TIP3    H127599   0.908   6.381  12.380  1.8688  0.3430  3.3162
 2036TIP3    H227600   0.761   6.370  12.415  0.0631  0.5233 -2.9480
 2037TIP3   OH227601   5.697   2.405   3.902  0.7884 -0.5135  0.2976
 2037TIP3    H127602   5.618   2.424   3.951  0.7542  0.8228 -0.2461
 2037TIP3    H227603   5.667   2.388   3.813  1.2502  2.4139 -0.5018
 2038TIP3   OH227604   6.464   2.543   2.128  0.0894  0.0035 -0.5244
 2038TIP3    H127605   6.526   2.550   2.055 -1.4783  0.0862 -1.9098
 2038TIP3    H227606   6.397   2.609   2.110  0.8165  1.6677  2.2559
 2039TIP3   OH227607   1.689   3.613   0.233  0.2969 -0.1098 -0.0326
 2039TIP3    H127608   1.748   3.660   0.173  0.7761  0.0596  0.5618
 2039TIP3    H227609   1.698   3.660   0.316 -1.4146  0.5143 -0.1676
 2040TIP3   OH227610   1.913   2.590  13.154  0.2262  0.0282 -0.0781
 2040TIP3    H127611   1.949   2.656  13.212 -0.2859 -0.2321  0.5563
 2040TIP3    H227612   1.888   2.638  13.075 -0.4301  0.6571  0.4949
 2041TIP3   OH227613   5.482   2.128   5.014 -0.2076  0.0093  0.3354
 2041TIP3    H127614   5.497   2.042   5.054 -0.7223 -0.6195 -0.7555
 2041TIP3    H227615   5.525   2.122   4.928  1.6541  1.6272  1.0801
 2042TIP3   OH227616   6.182   1.880  15.008  0.1203 -0.0149  0.0162
 2042TIP3    H127617   6.233   1.818  14.957  0.5708 -0.7147  1.2649
 2042TIP3    H227618   6.241   1.953  15.025  0.8749 -0.9633  1.7266
 2043TIP3   OH227619   4.519   6.726   6.142  0.4599  0.1468 -0.1862
 2043TIP3    H127620   4.490   6.792   6.080  1.9491  0.9897 -0.0429
 2043TIP3    H227621   4.441   6.673   6.160 -0.7882  1.8554 -0.3102
 2044TIP3   OH227622   6.703   4.587   1.945 -0.1326 -0.0040 -0.6005
 2044TIP3    H127623   6.625   4.534   1.932 -0.6114  0.0336  1.7108
 2044TIP3    H227624   6.768   4.549   1.885 -1.1719 -1.6249 -0.7592
 2045TIP3   OH227625   2.491   4.530   6.622  0.3320  0.2048  0.5128
 2045TIP3    H127626   2.454   4.604   6.670 -0.3802  0.3960 -0.3000
 2045TIP3    H227627   2.582   4.556   6.604 -0.0853  1.1642 -0.2871
 2046TIP3   OH227628   0.787   3.153   4.675 -0.2701  0.1035  0.3553
 2046TIP3    H127629   0.754   3.064   4.666 -1.6058  0.4285  1.5771
 2046TIP3    H227630   0.735   3.191   4.746  1.9002  1.0993  1.5311
 2047TIP3   OH227631   0.184   0.720  12.931 -0.3026 -0.1087 -0.7226
 2047TIP3    H127632   0.180   0.719  13.027 -0.3657 -0.6776 -0.7253
 2047TIP3    H227633   0.161   0.810  12.907 -0.2158  0.0587 -0.2033
 2048TIP3   OH227634   2.801   5.853  12.830  0.1203  0.1621  0.0539
 2048TIP3    H127635   2.818   5.944  12.856  1.4633  0.2026 -0.8803
 2048TIP3    H227636   2.708   5.852  12.807 -0.2778  0.9254  1.4966
 2049TIP3   OH227637   3.665   5.820  14.748  0.1594 -0.0727 -0.0832
 2049TIP3    H127638   3.661   5.770  14.830 -2.0479  0.3276  0.1072
 2049TIP3    H227639   3.744   5.873  14.757  0.2676 -0.4461  1.5393
 2050TIP3   OH227640   5.269   1.093   4.868 -0.3332 -0.3910  0.1724
 2050TIP3    H127641   5.247   1.173   4.916  0.8371  0.0318  0.0354
 2050TIP3    H227642   5.200   1.031   4.892 -0.2666  0.0871  1.7270
 2051TIP3   OH227643   6.195   1.056  10.247 -0.2248  0.2660 -0.3274
 2051TIP3    H127644   6.250   0.982  10.223  0.5394 -0.0459  2.0759
 2051TIP3    H227645   6.105   1.026  10.234  0.0035 -1.7334  2.0240
 2052TIP3   OH227646   3.504   2.750   5.628  0.4652  0.0139 -0.3467
 2052TIP3    H127647   3.476   2.659   5.624 -0.1025  0.0814  1.2282
 2052TIP3    H227648   3.599   2.747   5.619  0.4473 -0.7371 -0.3076
 2053TIP3   OH227649   5.120   1.654  12.673  0.0905 -0.0940 -0.2752
 2053TIP3    H127650   5.043   1.666  12.618 -1.1335  2.3603  1.8148
 2053TIP3    H227651   5.105   1.571  12.718 -0.9630 -0.0031 -0.4462
 2054TIP3   OH227652   1.586   0.657   0.501  0.2756 -0.5373 -0.4970
 2054TIP3    H127653   1.545   0.574   0.523 -0.2057 -0.4218 -0.9478
 2054TIP3    H227654   1.669   0.656   0.549 -0.6000 -0.4190  1.0836
 2055TIP3   OH227655   0.870   6.348   4.751  0.0737 -0.1344  0.1659
 2055TIP3    H127656   0.816   6.426   4.737  1.5739  0.5761 -2.2217
 2055TIP3    H227657   0.958   6.383   4.766  0.6288 -1.3552 -0.1680
 2056TIP3   OH227658   4.353   2.625   0.124 -0.1888 -0.4096  0.3253
 2056TIP3    H127659   4.277   2.669   0.086 -1.5003 -2.9056 -0.1606
 2056TIP3    H227660   4.321   2.590   0.208  0.7191 -0.6375  0.5910
 2057TIP3   OH227661   6.165   2.742   6.072 -0.0964 -0.8986  0.2954
 2057TIP3    H127662   6.139   2.657   6.036 -3.3410  1.4013 -3.7204
 2057TIP3    H227663   6.092   2.766   6.129  0.1681 -0.2379  0.3588
 2058TIP3   OH227664   1.353   6.443   1.611  0.2930 -0.4258  0.6440
 2058TIP3    H127665   1.389   6.428   1.698 -1.4439  2.3103  1.9521
 2058TIP3    H227666   1.413   6.506   1.571 -0.7075  0.9190  1.2123
 2059TIP3   OH227667   1.516   4.548  11.808  0.4392 -0.0126  0.3712
 2059TIP3    H127668   1.575   4.488  11.855  0.3534 -1.0735 -0.8228
 2059TIP3    H227669   1.546   4.544  11.717 -1.0742 -0.0855 -0.1450
 2060TIP3   OH227670   5.762   3.938  13.905  0.1631  0.1548 -0.1333
 2060TIP3    H127671   5.795   4.001  13.841 -0.1915 -0.0327 -0.5063
 2060TIP3    H227672   5.834   3.877  13.918  0.6158  0.8112  0.4598
 2061TIP3   OH227673   1.920   3.697   4.910  0.1797 -0.1103 -0.4501
 2061TIP3    H127674   1.900   3.640   4.984 -4.2032  0.8070 -0.6657
 2061TIP3    H227675   1.980   3.646   4.856 -1.9135 -3.7372  0.3608
 2062TIP3   OH227676   4.114   5.199  14.529 -0.1416 -0.0596 -0.1819
 2062TIP3    H127677   4.107   5.169  14.438 -2.6372 -0.0174 -0.0685
 2062TIP3    H227678   4.114   5.118  14.581 -1.2617 -0.0379 -0.1283
 2063TIP3   OH227679   5.967   2.518  13.732 -0.0419  0.3237  0.6610
 2063TIP3    H127680   5.994   2.474  13.812 -1.2191 -1.1050  0.2992
 2063TIP3    H227681   5.873   2.532  13.742 -0.2211  0.0571 -0.4813
 2064TIP3   OH227682   5.327   6.047   3.892 -0.1954 -0.4176 -0.1817
 2064TIP3    H127683   5.283   6.109   3.951 -0.2820 -1.1288  0.5088
 2064TIP3    H227684   5.371   5.985   3.950  0.8292 -0.3583 -0.8722
 2065TIP3   OH227685   3.126   0.060  12.588 -0.5247  0.0707 -0.1420
 2065TIP3    H127686   3.214   0.024  12.582 -0.3658  0.4766 -0.2807
 2065TIP3    H227687   3.087   0.043  12.503 -0.4234  0.2934 -0.2336
 2066TIP3   OH227688   4.187   4.978  12.508  0.2074 -0.2712 -0.2318
 2066TIP3    H127689   4.194   4.995  12.602 -0.0841 -0.3810 -0.1913
 2066TIP3    H227690   4.117   5.035  12.478  1.0699  0.6242 -0.5967
 2067TIP3   OH227691   4.177   3.711   1.300 -0.0409  0.3882  0.2821
 2067TIP3    H127692   4.180   3.778   1.368  2.1427  2.1626 -1.4095
 2067TIP3    H227693   4.226   3.637   1.336  0.8956  1.2147  0.7322
 2068TIP3   OH227694   3.842   2.070   0.506 -0.1456  0.0707 -0.0207
 2068TIP3    H127695   3.870   2.107   0.422 -0.9942 -0.3881 -0.5238
 2068TIP3    H227696   3.746   2.080   0.506 -0.1019  0.6879  1.2040
 2069TIP3   OH227697   5.791   3.347   3.484 -0.3592  0.9251  0.5518
 2069TIP3    H127698   5.749   3.430   3.504 -2.1204 -0.0801  1.2713
 2069TIP3    H227699   5.735   3.306   3.418 -0.1303 -0.1401  0.9921
 2070TIP3   OH227700   1.592   2.466   3.685 -1.0455  0.2332 -0.4715
 2070TIP3    H127701   1.569   2.537   3.625 -0.0888  1.1011  0.1440
 2070TIP3    H227702   1.634   2.401   3.629  0.0782  1.1509 -0.7374
 2071TIP3   OH227703   5.037   4.068   3.901 -0.8296 -0.4202  0.4719
 2071TIP3    H127704   5.078   4.063   3.988  0.3379  1.0054  0.0353
 2071TIP3    H227705   5.067   3.989   3.856 -1.1555 -0.9889  1.2280
 2072TIP3   OH227706   2.379   5.859  16.999 -0.3899 -0.1460 -0.0146
 2072TIP3    H127707   2.302   5.802  16.999 -0.5035 -0.0118  0.9185
 2072TIP3    H227708   2.397   5.875  17.092  1.1293 -0.6524 -0.1947
 2073TIP3   OH227709   0.995   0.390  11.692  0.3812 -0.3026  0.2574
 2073TIP3    H127710   0.916   0.400  11.746  1.0428  0.2221  1.1449
 2073TIP3    H227711   0.961   0.381  11.603 -0.7175 -0.8613  0.7067
 2074TIP3   OH227712   5.630   2.794  14.863  0.0039  0.2937  0.1796
 2074TIP3    H127713   5.571   2.838  14.923 -0.0925 -0.7251  0.8622
 2074TIP3    H227714   5.690   2.862  14.833  0.5699  0.6847  2.0549
 2075TIP3   OH227715   3.028   3.294   3.724  0.6587 -0.0371 -0.2874
 2075TIP3    H127716   2.966   3.223   3.742 -0.6795  1.7432  2.6894
 2075TIP3    H227717   2.984   3.348   3.659 -0.0117  0.0984  0.2682
 2076TIP3   OH227718   3.386   6.594   1.411  0.1039 -0.6212  0.1034
 2076TIP3    H127719   3.315   6.653   1.386 -1.2632 -2.0264  0.5248
 2076TIP3    H227720   3.410   6.622   1.499 -0.2087 -0.4066  0.1209
 2077TIP3   OH227721   2.208   6.682   3.290 -0.0576  0.6963  0.0500
 2077TIP3    H127722   2.121   6.716   3.266 -0.0614  0.1795 -0.6935
 2077TIP3    H227723   2.269   6.735   3.239 -0.1614 -1.8917 -3.0525
 2078TIP3   OH227724   5.693   0.273  12.518 -0.3489 -0.1203 -0.4109
 2078TIP3    H127725   5.746   0.211  12.568 -0.3711 -0.0852 -0.3430
 2078TIP3    H227726   5.604   0.237  12.523 -0.3636 -0.0770 -0.3615
 2079TIP3   OH227727   4.993   0.851   3.476 -0.6360  0.0993  0.5535
 2079TIP3    H127728   4.907   0.852   3.434 -0.1950 -1.9963 -0.5164
 2079TIP3    H227729   4.976   0.821   3.566 -0.9799 -0.7678  0.2036
 2080TIP3   OH227730   1.268   6.350   5.512 -0.4328  0.3905  0.1643
 2080TIP3    H127731   1.307   6.426   5.555  0.5905 -1.4395  2.7425
 2080TIP3    H227732   1.175   6.371   5.506 -0.9118  0.4020  4.5431
 2081TIP3   OH227733   1.226   6.691   0.538  0.7363 -0.3333 -0.0524
 2081TIP3    H127734   1.189   6.655   0.618  0.1091 -0.1886 -0.2683
 2081TIP3    H227735   1.235   6.785   0.555 -0.1211 -0.1728 -0.4049
 2082TIP3   OH227736   1.640   5.462  13.226  0.0483 -0.3402  0.0673
 2082TIP3    H127737   1.555   5.494  13.255 -0.1602 -0.6402 -0.1947
 2082TIP3    H227738   1.640   5.478  13.131  1.5870  2.6426  0.4648
 2083TIP3   OH227739   2.560   5.348  15.811  0.1701 -0.0052 -0.1617
 2083TIP3    H127740   2.540   5.441  15.803 -0.1618 -0.1273 -0.7520
 2083TIP3    H227741   2.656   5.344  15.803  0.3857  0.4713  1.7227
 2084TIP3   OH227742   2.533   3.916   6.304  0.5347 -0.0732 -0.2503
 2084TIP3    H127743   2.605   3.973   6.279  0.5421  0.3921  0.7701
 2084TIP3    H227744   2.529   3.924   6.399 -0.8296 -0.1196 -0.2877
 2085TIP3   OH227745   0.526   6.477   0.510 -0.1316 -0.1655 -0.3697
 2085TIP3    H127746   0.475   6.496   0.589  0.1811 -1.4358  0.1722
 2085TIP3    H227747   0.461   6.475   0.440 -0.2719  2.0541 -0.3698
 2086TIP3   OH227748   5.623   6.131  11.774 -0.1824  0.2445 -0.5530
 2086TIP3    H127749   5.611   6.082  11.856  1.6440  0.4875 -0.1000
 2086TIP3    H227750   5.551   6.102  11.718  0.7995 -3.0352 -0.3294
 2087TIP3   OH227751   4.662   3.497  11.526 -0.4644  0.4252  0.0535
 2087TIP3    H127752   4.623   3.573  11.569  0.0901  1.3366 -1.0096
 2087TIP3    H227753   4.593   3.431  11.528 -0.7064  0.6686  1.6561
 2088TIP3   OH227754   2.923   2.555   3.287  0.2698 -0.0403  0.2823
 2088TIP3    H127755   2.895   2.534   3.376  2.5763  0.2482  1.1355
 2088TIP3    H227756   2.844   2.546   3.234 -1.1632 -0.1939  2.3518
 2089TIP3   OH227757   4.383   3.411   0.428 -0.2306 -0.1689 -0.4505
 2089TIP3    H127758   4.378   3.457   0.512 -0.9816 -0.2730 -0.4275
 2089TIP3    H227759   4.467   3.364   0.431  0.5771  1.2305 -0.4984
 2090TIP3   OH227760   5.238   2.366   2.050 -0.3840  0.0991 -0.4251
 2090TIP3    H127761   5.300   2.367   1.977 -0.3470 -1.0312 -0.4329
 2090TIP3    H227762   5.238   2.275   2.080 -1.7343  0.1629 -0.1583
 2091TIP3   OH227763   6.531   0.383  17.169  0.1546  0.1981 -0.0550
 2091TIP3    H127764   6.589   0.323  17.216  0.0832  0.1140 -0.0726
 2091TIP3    H227765   6.458   0.327  17.141 -0.0704  0.3616  0.2052
 2092TIP3   OH227766   3.769   5.577  14.183 -0.1401 -0.1299 -0.0481
 2092TIP3    H127767   3.716   5.547  14.257 -0.1864  0.7983  0.3117
 2092TIP3    H227768   3.729   5.660  14.157 -1.2527 -1.2618 -2.2870
 2093TIP3   OH227769   4.391   6.787   1.180 -0.3271 -0.2928 -0.4280
 2093TIP3    H127770   4.388   6.872   1.138  0.3145 -0.6776 -1.2870
 2093TIP3    H227771   4.312   6.783   1.234 -1.5694 -0.0673 -2.1710
 2094TIP3   OH227772   2.337   2.294  15.610 -0.3626 -0.7691 -0.5946
 2094TIP3    H127773   2.353   2.205  15.641 -1.3263 -0.6088  0.3897
 2094TIP3    H227774   2.399   2.348  15.659 -1.4365 -0.6011  0.6224
 2095TIP3   OH227775   1.059   5.565  11.844 -0.1978 -0.5073  0.2255
 2095TIP3    H127776   1.073   5.482  11.890 -1.4071 -0.9913 -0.2113
 2095TIP3    H227777   1.120   5.563  11.770 -0.4160 -1.1517  0.0564
 2096TIP3   OH227778   6.755   5.851   0.213 -0.0796 -0.1274 -0.4246
 2096TIP3    H127779   6.722   5.842   0.124  0.9400  0.2700 -0.8687
 2096TIP3    H227780   6.841   5.891   0.202 -0.2312  0.5818  0.7892
 2097TIP3   OH227781   2.846   4.639   0.576 -0.0701 -0.2482  0.1987
 2097TIP3    H127782   2.900   4.700   0.628 -1.1745  0.9963 -0.0485
 2097TIP3    H227783   2.791   4.596   0.641 -0.7111  0.5339  0.1934
 2098TIP3   OH227784   2.704   4.567  10.805 -0.3704 -0.2594  0.6266
 2098TIP3    H127785   2.704   4.480  10.765  2.6387 -0.0377 -0.0558
 2098TIP3    H227786   2.660   4.623  10.740  1.3369 -0.5624 -0.8635
 2099TIP3   OH227787   4.697   3.230   0.152  0.3543  0.0775 -0.0230
 2099TIP3    H127788   4.687   3.259   0.243 -1.1896 -1.2025  0.2605
 2099TIP3    H227789   4.789   3.248   0.132  0.5441  1.0786  1.5357
 2100TIP3   OH227790   1.814   6.738  11.577  1.2798  0.4023  0.0329
 2100TIP3    H127791   1.858   6.654  11.591  2.0856  0.4408 -1.9063
 2100TIP3    H227792   1.872   6.786  11.518 -0.9002  0.7981 -1.9916
 2101TIP3   OH227793   1.650   1.581  15.165 -0.3949  0.0775 -0.3357
 2101TIP3    H127794   1.669   1.571  15.071 -2.2368 -2.8541 -0.5449
 2101TIP3    H227795   1.699   1.510  15.207 -0.3143  0.8025  0.8520
 2102TIP3   OH227796   3.761   2.926   4.354 -0.2238 -0.0888  0.4372
 2102TIP3    H127797   3.814   2.925   4.275  0.9875 -1.3119  1.2202
 2102TIP3    H227798   3.692   2.862   4.339 -0.0096 -0.3005  0.3515
 2103TIP3   OH227799   2.094   1.781  11.555  0.7419  0.4365  0.8871
 2103TIP3    H127800   2.020   1.723  11.574 -2.3802  3.4229 -1.0330
 2103TIP3    H227801   2.170   1.736  11.593 -1.6986 -3.7035  1.4603
 2104TIP3   OH227802   5.851   0.280  16.228 -0.1141 -0.1252  0.3636
 2104TIP3    H127803   5.925   0.268  16.287  1.9531  1.1776 -1.7794
 2104TIP3    H227804   5.819   0.368  16.247  2.3304  1.4548 -2.0926
 2105TIP3   OH227805   3.799   2.356  14.147  0.0659 -0.9568 -0.0105
 2105TIP3    H127806   3.744   2.435  14.143  0.4586 -0.6127  1.1370
 2105TIP3    H227807   3.874   2.382  14.200  1.0801 -1.5918 -1.0820
 2106TIP3   OH227808   5.878   4.191   1.812  0.7950  0.0760  0.1829
 2106TIP3    H127809   5.853   4.282   1.832  1.8544  0.2676  0.7564
 2106TIP3    H227810   5.817   4.138   1.863  0.1612  0.4648 -0.1602
 2107TIP3   OH227811   5.443   2.452  14.496 -0.1415 -0.0709 -0.4954
 2107TIP3    H127812   5.454   2.525  14.557  0.5359 -1.4757  1.1624
 2107TIP3    H227813   5.364   2.406  14.527  0.5615 -1.1585 -0.2577
 2108TIP3   OH227814   1.555   3.170  16.559  0.8833  0.4874  0.3166
 2108TIP3    H127815   1.466   3.139  16.544  1.2337 -0.2541 -0.3103
 2108TIP3    H227816   1.605   3.091  16.581  1.7927  0.5700 -1.2936
 2109TIP3   OH227817   2.524   1.798   3.632  0.3154  0.5869  0.1878
 2109TIP3    H127818   2.501   1.840   3.715 -1.2668 -0.1558  0.1615
 2109TIP3    H227819   2.596   1.851   3.597  2.6086 -0.3803  3.0613
 2110TIP3   OH227820   4.675   4.339  12.017 -0.3476  0.0234  0.2643
 2110TIP3    H127821   4.695   4.376  12.103 -2.1521  0.7109  0.4096
 2110TIP3    H227822   4.582   4.354  12.004 -0.2492 -0.6288 -1.5632
 2111TIP3   OH227823   5.891   3.428  16.653 -0.6099  0.8815 -0.2413
 2111TIP3    H127824   5.811   3.479  16.638 -0.8207  0.9570  1.0250
 2111TIP3    H227825   5.862   3.337  16.646 -0.5440  0.9121 -0.9994
 2112TIP3   OH227826   1.166   4.963  15.920 -0.1562 -0.3605  0.1971
 2112TIP3    H127827   1.209   4.897  15.865  1.4051 -0.3709  1.3626
 2112TIP3    H227828   1.160   4.923  16.007  0.7346  0.9649  0.9026
 2113TIP3   OH227829   0.523   1.607  11.910  0.2152 -0.1415 -0.3381
 2113TIP3    H127830   0.560   1.522  11.935  0.6404  0.1445  0.0122
 2113TIP3    H227831   0.428   1.595  11.921  0.2905 -0.4885 -0.0288
 2114TIP3   OH227832   6.078   6.533   3.318 -0.4749  0.0948 -0.4587
 2114TIP3    H127833   6.013   6.555   3.252 -0.8188 -0.1111 -0.1926
 2114TIP3    H227834   6.067   6.601   3.385 -1.4436 -0.7667  0.2978
 2115TIP3   OH227835   3.257   0.989   3.758  0.0874 -0.8330 -0.1859
 2115TIP3    H127836   3.214   1.060   3.805 -0.4479 -1.2978  0.0369
 2115TIP3    H227837   3.204   0.912   3.777  0.9947 -1.4090  0.0408
 2116TIP3   OH227838   5.361   0.919  10.300 -0.7670  0.8343  0.3183
 2116TIP3    H127839   5.384   0.833  10.334 -1.0624 -0.2779 -2.0741
 2116TIP3    H227840   5.346   0.973  10.378  1.3795 -0.6966  1.9059
 2117TIP3   OH227841   1.634   2.196   5.272  0.2596  0.2275  0.4022
 2117TIP3    H127842   1.586   2.186   5.190  0.3144  3.0076 -0.0414
 2117TIP3    H227843   1.620   2.113   5.318 -0.4571 -1.0859 -2.0271
 2118TIP3   OH227844   3.316   2.201  16.013  0.5494  0.1809 -0.1744
 2118TIP3    H127845   3.283   2.228  16.099  0.5433  0.3547 -0.2312
 2118TIP3    H227846   3.241   2.209  15.955  0.5514  0.0550 -0.1940
 2119TIP3   OH227847   4.634   6.285   4.468 -0.6322 -0.0389  0.2436
 2119TIP3    H127848   4.598   6.212   4.517  0.1238 -0.6012 -0.0062
 2119TIP3    H227849   4.604   6.271   4.378 -1.8461  0.8768  0.4852
 2120TIP3   OH227850   3.113   0.185   1.104  0.1915  0.2731 -0.2508
 2120TIP3    H127851   3.173   0.140   1.045 -0.6542 -1.0920 -0.1276
 2120TIP3    H227852   3.086   0.264   1.056  0.1421 -0.3912 -1.3465
 2121TIP3   OH227853   0.123   4.425   5.916  0.2456  0.1512  0.0449
 2121TIP3    H127854   0.171   4.504   5.937  0.2128 -0.0325  0.8805
 2121TIP3    H227855   0.051   4.454   5.860  1.1648  0.4592 -1.0087
 2122TIP3   OH227856   3.580   0.476   6.142 -0.7912  0.3531  0.3718
 2122TIP3    H127857   3.649   0.491   6.206  0.0476 -1.0268 -0.1677
 2122TIP3    H227858   3.626   0.458   6.060 -1.8034 -0.0163 -0.1344
 2123TIP3   OH227859   1.278   0.208  11.496 -0.0367  0.1973 -0.4584
 2123TIP3    H127860   1.218   0.264  11.546 -0.0207  0.1966 -0.4388
 2123TIP3    H227861   1.294   0.258  11.415 -0.0572  0.2011 -0.4601
 2124TIP3   OH227862   2.098   2.840   2.208  0.4903  0.1590  0.3287
 2124TIP3    H127863   2.130   2.904   2.144  0.8537 -1.0509 -0.7380
 2124TIP3    H227864   2.116   2.880   2.293 -1.0666  2.3380 -0.2720
 2125TIP3   OH227865   1.500   3.147  16.856 -0.3003 -0.6207 -0.8210
 2125TIP3    H127866   1.471   3.201  16.782 -4.6157 -0.8405  0.4410
 2125TIP3    H227867   1.444   3.069  16.851 -0.4319 -0.8350  2.3836
 2126TIP3   OH227868   0.845   6.254   5.862  0.7246 -0.3649 -0.6226
 2126TIP3    H127869   0.752   6.261   5.840  0.9711  1.6307 -1.2199
 2126TIP3    H227870   0.849   6.269   5.956  0.5680  1.4639 -0.8693
 2127TIP3   OH227871   4.297   2.511   1.108  0.3683 -0.3680 -0.4654
 2127TIP3    H127872   4.373   2.464   1.143 -0.6375 -2.9907 -1.5564
 2127TIP3    H227873   4.262   2.559   1.183  1.0346 -1.9935  0.9495
 2128TIP3   OH227874   0.040   3.008  16.437 -0.4305 -0.6515 -0.4327
 2128TIP3    H127875  -0.048   2.973  16.421 -1.9943  1.9323  1.5701
 2128TIP3    H227876   0.071   3.036  16.350 -1.3836 -1.9681 -1.2310
 2129TIP3   OH227877   5.662   6.035   2.601 -0.2003  0.2251 -0.3537
 2129TIP3    H127878   5.727   6.062   2.666  1.4462  2.1112 -2.6075
 2129TIP3    H227879   5.578   6.065   2.636  0.5191  0.5143  1.2020
 2130TIP3   OH227880   3.033   5.225   6.052  0.0177 -0.0369  0.2357
 2130TIP3    H127881   3.094   5.216   6.125  2.5137  3.7264 -1.0448
 2130TIP3    H227882   2.952   5.257   6.092 -0.5722 -3.1207  1.7598
 2131TIP3   OH227883   2.608   0.538  12.616  0.0604 -0.0315  0.2925
 2131TIP3    H127884   2.560   0.499  12.689  0.1736  0.4175  0.6159
 2131TIP3    H227885   2.690   0.568  12.655  0.5971 -0.7636 -0.2542
 2132TIP3   OH227886   3.543   6.802  14.756  0.1541 -0.2466 -0.9601
 2132TIP3    H127887   3.486   6.746  14.703  0.0706 -0.5351 -0.5735
 2132TIP3    H227888   3.631   6.771  14.737  0.2283  0.5004 -1.9102
 2133TIP3   OH227889   5.614   4.446   2.143 -0.0374 -0.7636 -0.2059
 2133TIP3    H127890   5.691   4.389   2.144 -0.5747 -1.5365 -1.2478
 2133TIP3    H227891   5.561   4.414   2.070 -1.0463  0.1658  0.0907
 2134TIP3   OH227892   2.320   1.568   3.361  0.0490  0.4337  0.1221
 2134TIP3    H127893   2.316   1.547   3.267  0.1518  2.1050 -0.2774
 2134TIP3    H227894   2.413   1.562   3.383 -0.0331 -0.4714  0.2545
 2135TIP3   OH227895   0.064   4.400  12.779 -0.3112 -0.0752  0.1766
 2135TIP3    H127896   0.097   4.377  12.692 -0.5593  3.1804 -0.9361
 2135TIP3    H227897  -0.013   4.345  12.792 -2.4227  1.6477 -3.3575
 2136TIP3   OH227898   3.519   6.206   0.925 -1.6778 -0.3234  0.2037
 2136TIP3    H127899   3.505   6.232   0.834 -2.8859  0.7844  0.6718
 2136TIP3    H227900   3.548   6.115   0.920 -0.5153  0.0861 -1.3413
 2137TIP3   OH227901   5.286   3.405   3.928  0.3777  0.4277  0.3110
 2137TIP3    H127902   5.372   3.367   3.945  0.6328  0.0540 -1.6153
 2137TIP3    H227903   5.284   3.419   3.833 -2.2879 -1.0915  0.0582
 2138TIP3   OH227904   3.380   0.253  15.806  0.1106  0.0777  0.3084
 2138TIP3    H127905   3.443   0.183  15.788 -1.2737 -1.1153 -0.0185
 2138TIP3    H227906   3.329   0.222  15.880 -1.9706 -0.3162 -1.1890
 2139TIP3   OH227907   0.088   6.386   0.279  0.3964 -0.2144 -0.0422
 2139TIP3    H127908   0.143   6.337   0.218 -0.9777 -0.5051 -1.0931
 2139TIP3    H227909  -0.001   6.357   0.259 -0.3659  1.9523  0.0138
 2140TIP3   OH227910   4.745   0.253  15.555  0.4508  0.0113  0.0377
 2140TIP3    H127911   4.705   0.243  15.641  0.3480  0.0684 -0.0023
 2140TIP3    H227912   4.716   0.340  15.525  0.1687 -0.1655 -0.2147
 2141TIP3   OH227913   3.576   6.045  11.495 -0.4303  0.3591 -0.3008
 2141TIP3    H127914   3.528   5.976  11.449  0.2676 -1.4010  1.4793
 2141TIP3    H227915   3.602   6.006  11.578  1.8821  2.0599 -0.1048
 2142TIP3   OH227916   5.487   2.139   3.903  0.5584 -0.1068  0.4107
 2142TIP3    H127917   5.499   2.157   3.810  2.9656 -2.4959  0.1342
 2142TIP3    H227918   5.439   2.056   3.906  1.1759 -0.4538  1.2511
 2143TIP3   OH227919   1.977   5.408   3.542 -0.3849  0.3418 -0.5082
 2143TIP3    H127920   2.062   5.364   3.534  0.9244  2.9299 -2.9121
 2143TIP3    H227921   1.996   5.486   3.594 -1.4509  0.5918 -0.4853
 2144TIP3   OH227922   4.888   6.279   1.338  0.7276 -0.0442  0.1064
 2144TIP3    H127923   4.894   6.262   1.244  1.0874  1.1425 -0.0953
 2144TIP3    H227924   4.851   6.367   1.345  2.6456  0.7637  0.9909
 2145TIP3   OH227925   3.992   6.396  13.111 -0.6038  0.6796  0.1220
 2145TIP3    H127926   3.997   6.487  13.143 -0.1396  0.1945  1.4822
 2145TIP3    H227927   4.042   6.345  13.175 -0.1761 -0.4372 -1.0642
 2146TIP3   OH227928   2.057   4.743   2.486 -0.2822  0.3129  0.5550
 2146TIP3    H127929   2.129   4.799   2.516 -0.4486 -0.1271  1.8747
 2146TIP3    H227930   2.003   4.799   2.431  0.0079  1.2138  1.1771
 2147TIP3   OH227931   4.804   2.225   4.605 -0.4593 -0.3376 -0.3323
 2147TIP3    H127932   4.769   2.162   4.669  0.8247 -1.8253 -1.0249
 2147TIP3    H227933   4.820   2.304   4.656 -3.2211 -0.0915  0.3337
 2148TIP3   OH227934   6.375   6.820   1.446 -0.2347 -0.3339 -0.3545
 2148TIP3    H127935   6.389   6.895   1.389 -0.1771 -1.1033 -1.3895
 2148TIP3    H227936   6.287   6.789   1.424  0.3600 -1.5442 -1.1580
 2149TIP3   OH227937   2.531   3.208  11.459  0.1581  0.5249 -0.1517
 2149TIP3    H127938   2.584   3.150  11.403 -0.7276  0.6266 -1.1147
 2149TIP3    H227939   2.537   3.293  11.417 -0.9213  0.4993 -0.3797
 2150TIP3   OH227940   5.015   1.472  16.214 -0.1307  0.1060 -0.2215
 2150TIP3    H127941   5.107   1.489  16.198 -0.2102  0.9136  0.1365
 2150TIP3    H227942   4.970   1.553  16.191 -0.6326  0.0653  0.5556
 2151TIP3   OH227943   4.603   4.325   2.437 -0.2596 -0.0364 -0.4898
 2151TIP3    H127944   4.552   4.261   2.387 -0.4827 -0.7904  0.6763
 2151TIP3    H227945   4.690   4.285   2.446 -0.1642  0.1809 -0.4411
 2152TIP3   OH227946   1.320   4.682   2.828  0.5169  0.2453 -0.5029
 2152TIP3    H127947   1.313   4.778   2.828 -0.9367  0.1573 -0.1736
 2152TIP3    H227948   1.388   4.663   2.892 -0.4196  0.9902  0.7520
 2153TIP3   OH227949   3.197   5.961  14.824 -0.1347 -0.2219 -0.0952
 2153TIP3    H127950   3.243   5.897  14.769  1.3813 -0.9893  1.9303
 2153TIP3    H227951   3.130   5.910  14.869 -0.3456  0.0636 -0.0880
 2154TIP3   OH227952   5.389   0.433   2.244 -0.0057  0.4181 -0.2012
 2154TIP3    H127953   5.334   0.492   2.295  1.8179  0.4618  1.8695
 2154TIP3    H227954   5.478   0.465   2.258  0.6597  0.0531 -2.9987
 2155TIP3   OH227955   1.773   0.353   5.955  0.8027  0.0582  0.7391
 2155TIP3    H127956   1.771   0.399   6.040  1.3126 -1.3570  1.5521
 2155TIP3    H227957   1.682   0.342   5.931  0.6594  0.8344  0.8788
 2156TIP3   OH227958   6.227   3.341   4.109  0.3464  0.4429 -0.1459
 2156TIP3    H127959   6.246   3.260   4.158 -0.6554 -0.0439 -0.5338
 2156TIP3    H227960   6.237   3.316   4.017  0.9455  1.0161 -0.2408
 2157TIP3   OH227961   5.099   5.986  11.280  0.5051  0.2944  0.0681
 2157TIP3    H127962   5.097   5.938  11.198  0.0025 -0.0552  0.2778
 2157TIP3    H227963   5.040   6.060  11.266  0.8393  0.5376 -0.0653
 2158TIP3   OH227964   3.165   6.459   1.817  0.2705  0.1735  0.1924
 2158TIP3    H127965   3.255   6.427   1.807 -0.0661 -0.4172 -1.1814
 2158TIP3    H227966   3.154   6.468   1.911  0.6277 -3.1395  0.6800
 2159TIP3   OH227967   5.598   6.329  15.538 -0.4820  0.6519  0.0325
 2159TIP3    H127968   5.635   6.243  15.519 -2.5059 -0.2194 -0.2039
 2159TIP3    H227969   5.618   6.381  15.460  1.7405  0.8173  0.6279
 2160TIP3   OH227970   5.166   6.657  13.909  0.5662 -0.7019 -0.2990
 2160TIP3    H127971   5.121   6.674  13.827 -0.3022  2.0992  0.6537
 2160TIP3    H227972   5.096   6.635  13.971  0.6457  1.5072  0.6675
 2161TIP3   OH227973   2.096   6.029  15.218  0.2625  0.1972 -0.4097
 2161TIP3    H127974   2.175   5.976  15.229 -1.3489 -1.9676  1.8695
 2161TIP3    H227975   2.102   6.096  15.286  0.4983  0.5870 -0.8044
 2162TIP3   OH227976   4.704   4.933  15.624 -0.3013  0.3365 -0.2768
 2162TIP3    H127977   4.625   4.882  15.639  0.7850 -0.7855  2.2769
 2162TIP3    H227978   4.674   5.012  15.579 -2.4291 -1.2450 -1.8336
 2163TIP3   OH227979   4.616   1.775  16.069  0.1449 -0.2959 -0.7508
 2163TIP3    H127980   4.702   1.749  16.103  0.1512  0.1188 -0.4410
 2163TIP3    H227981   4.600   1.714  15.997  0.9885  0.0408 -1.2372
 2164TIP3   OH227982   6.096   5.587  16.569 -0.4550  0.5373  0.6280
 2164TIP3    H127983   6.001   5.573  16.563 -0.1649 -0.8646 -1.4965
 2164TIP3    H227984   6.104   5.679  16.594 -2.4121  1.5489 -1.9629
 2165TIP3   OH227985   5.144   2.990  14.463 -0.2418  0.1134 -0.1182
 2165TIP3    H127986   5.221   2.976  14.408 -0.6535  0.9854 -0.9578
 2165TIP3    H227987   5.075   2.937  14.422 -0.1877 -0.3722  0.4120
 2166TIP3   OH227988   0.881   1.135   2.831  0.0909 -0.6282 -0.4892
 2166TIP3    H127989   0.970   1.119   2.861  0.7448 -1.5346 -2.7223
 2166TIP3    H227990   0.890   1.202   2.764 -0.8072 -1.2004 -1.2107
 2167TIP3   OH227991   0.173   2.256   0.351 -0.8543 -0.1800  0.1337
 2167TIP3    H127992   0.085   2.293   0.340 -0.8084  1.4644  3.8650
 2167TIP3    H227993   0.160   2.162   0.345 -3.3130 -0.1108  2.3389
 2168TIP3   OH227994   6.012   3.227  15.699 -0.1217 -1.0921 -0.0967
 2168TIP3    H127995   6.073   3.193  15.766 -0.2278  1.2846  1.3026
 2168TIP3    H227996   5.949   3.280  15.748 -1.1076 -0.4665 -1.9423
 2169TIP3   OH227997   4.595   5.098   5.561  0.4135 -0.4119  0.2165
 2169TIP3    H127998   4.592   5.017   5.612 -0.7685  0.2633  1.3006
 2169TIP3    H227999   4.673   5.144   5.594  0.7776 -0.8569 -0.0141
 2170TIP3   OH228000   5.551   4.608   5.709 -0.1240  0.1777 -0.5259
 2170TIP3    H128001   5.498   4.531   5.690  0.2260  0.4842 -3.1818
 2170TIP3    H228002   5.609   4.581   5.780 -1.4340 -1.2936  0.0389
 2171TIP3   OH228003   5.548   4.687  14.160 -0.5523  0.0597 -0.0029
 2171TIP3    H128004   5.461   4.653  14.142 -0.5535 -0.3246  0.6923
 2171TIP3    H228005   5.601   4.609  14.179 -0.5126  0.4179  1.4418
 2172TIP3   OH228006   1.778   1.487  16.918  0.1685 -0.4117  0.1738
 2172TIP3    H128007   1.705   1.545  16.939  0.0255  0.8086 -3.0767
 2172TIP3    H228008   1.837   1.493  16.993 -1.3049  1.5307  1.2632
 2173TIP3   OH228009   6.125   4.518   3.730 -0.5548 -0.6965 -0.3226
 2173TIP3    H128010   6.092   4.428   3.737 -0.2468 -0.7390  0.6866
 2173TIP3    H228011   6.159   4.538   3.817  0.7823 -0.1435 -0.9425
 2174TIP3   OH228012   0.903   3.417  15.226 -0.0133  0.0640  0.4850
 2174TIP3    H128013   0.906   3.406  15.321 -3.5125 -0.0469  0.6949
 2174TIP3    H228014   0.935   3.506  15.212 -0.9602  0.6817  1.9786
 2175TIP3   OH228015   1.807   6.002  12.958  0.5758  0.7078  0.0294
 2175TIP3    H128016   1.782   6.061  12.888 -0.1370  0.3608 -0.0193
 2175TIP3    H228017   1.898   6.023  12.977  0.0101  2.6223  0.8250
 2176TIP3   OH228018   6.310   3.695   5.374 -0.2366 -0.0133 -0.4367
 2176TIP3    H128019   6.303   3.615   5.322  0.9853 -0.8010  0.5573
 2176TIP3    H228020   6.404   3.714   5.375 -0.0474 -0.6969  2.4240
 2177TIP3   OH228021   2.105   2.458  15.734 -0.5908 -0.1568  0.0279
 2177TIP3    H128022   2.181   2.460  15.676  0.3883  0.6669  1.2547
 2177TIP3    H228023   2.081   2.366  15.739 -0.8842 -0.2163 -1.8637
 2178TIP3   OH228024   6.827   2.305  16.479 -0.1013 -0.7729 -0.5088
 2178TIP3    H128025   6.771   2.229  16.465  1.1377 -1.8035 -0.0938
 2178TIP3    H228026   6.885   2.307  16.402  0.3883 -0.7294 -0.1454
 2179TIP3   OH228027   6.633   0.631   3.649 -0.4570  0.7653  0.0038
 2179TIP3    H128028   6.628   0.654   3.556  0.2642  0.5574 -0.0968
 2179TIP3    H228029   6.617   0.714   3.695  1.8932  1.5210 -0.3552
 2180TIP3   OH228030   5.631   2.418   2.054 -0.6288 -0.2295 -0.2436
 2180TIP3    H128031   5.709   2.384   2.098 -0.6303 -0.1073 -0.1463
 2180TIP3    H228032   5.653   2.510   2.034 -0.2558 -0.5399 -1.3529
 2181TIP3   OH228033   6.596   4.090  16.603 -0.1502  0.6665 -0.1140
 2181TIP3    H128034   6.593   4.016  16.542 -0.6532  0.1284  0.5562
 2181TIP3    H228035   6.688   4.095  16.630  0.1551  1.1359 -1.1746
 2182TIP3   OH228036   2.200   0.332  15.659 -0.2196  0.0330 -0.1509
 2182TIP3    H128037   2.273   0.359  15.715 -0.1506 -0.9844  0.2755
 2182TIP3    H228038   2.233   0.342  15.570 -0.7348  2.8221 -0.1019
 2183TIP3   OH228039   0.035   5.730   2.503  0.2794  0.3491  0.0063
 2183TIP3    H128040  -0.035   5.795   2.508  0.5140  0.5695  4.4163
 2183TIP3    H228041  -0.002   5.659   2.451 -2.2191  1.5754 -0.0441
 2184TIP3   OH228042   0.437   2.822   2.715 -0.0045  0.1714 -0.2925
 2184TIP3    H128043   0.512   2.786   2.669  0.0969 -0.2413  0.1857
 2184TIP3    H228044   0.471   2.845   2.802 -0.4034  0.0828 -0.1105
 2185TIP3   OH228045   3.853   4.289  13.377  0.1515 -0.1846 -0.1064
 2185TIP3    H128046   3.883   4.210  13.332 -0.0093  0.0283 -0.5924
 2185TIP3    H228047   3.922   4.353  13.364  0.8331 -0.5887  1.2969
 2186TIP3   OH228048   6.425   4.211  16.768  0.5943  0.5299 -0.3434
 2186TIP3    H128049   6.495   4.179  16.711  0.3221 -0.0314 -0.3725
 2186TIP3    H228050   6.345   4.202  16.716  0.0249 -2.0731  0.8284
 2187TIP3   OH228051   3.321   6.094   2.919 -0.1916  0.6127 -0.1783
 2187TIP3    H128052   3.226   6.105   2.926 -0.4922 -1.7605  0.0333
 2187TIP3    H228053   3.342   6.023   2.980  1.3007 -0.8892 -2.3121
 2188TIP3   OH228054   3.895   1.900  10.897  0.1679  0.6944 -0.2732
 2188TIP3    H128055   3.942   1.823  10.866 -1.3537  0.1752 -1.4046
 2188TIP3    H228056   3.875   1.950  10.818 -0.7800  1.1172  0.2153
 2189TIP3   OH228057   0.774   6.696   5.122  0.0341  0.6632 -0.0776
 2189TIP3    H128058   0.751   6.687   5.030 -2.6129 -2.9238  0.6967
 2189TIP3    H228059   0.840   6.627   5.137  1.0272  1.7310  0.5953
 2190TIP3   OH228060   5.406   4.514  11.101 -0.1948  0.3916 -0.3808
 2190TIP3    H128061   5.443   4.531  11.188  1.3811 -0.7127 -0.8001
 2190TIP3    H228062   5.322   4.471  11.118 -0.1563  0.6715  0.5724
 2191TIP3   OH228063   4.810   3.341  14.447  0.0608 -0.5484 -0.3850
 2191TIP3    H128064   4.759   3.416  14.478 -1.5703 -0.9652 -1.8965
 2191TIP3    H228065   4.811   3.351  14.352  0.8937 -1.7997 -0.5251
 2192TIP3   OH228066   0.545   2.122   1.883 -0.2894 -0.0256 -0.3562
 2192TIP3    H128067   0.484   2.146   1.813 -0.5051  0.6858  0.0661
 2192TIP3    H228068   0.523   2.031   1.903 -1.8565  0.4942  0.4301
 2193TIP3   OH228069   3.845   6.012  11.735 -0.0316  0.3247 -0.4387
 2193TIP3    H128070   3.852   5.931  11.686 -1.1623  0.5302 -0.9833
 2193TIP3    H228071   3.932   6.052  11.729 -0.3118  0.6690 -2.8874
 2194TIP3   OH228072   4.591   0.785  15.274  0.0136 -0.4901 -0.6434
 2194TIP3    H128073   4.597   0.705  15.222 -0.7245 -0.3022 -1.0413
 2194TIP3    H228074   4.654   0.773  15.345  0.6410 -0.9796 -1.2754
 2195TIP3   OH228075   3.989   1.659  15.703 -0.2454  0.4118  0.3577
 2195TIP3    H128076   4.027   1.730  15.754 -0.2620 -0.1690  1.1913
 2195TIP3    H228077   3.919   1.701  15.652  2.8560  2.0063 -3.0371
 2196TIP3   OH228078   4.936   6.682  16.686 -0.5489 -0.4268  0.0758
 2196TIP3    H128079   4.841   6.693  16.677 -0.7181  0.3010  2.2675
 2196TIP3    H228080   4.972   6.767  16.662 -0.5068 -0.4597  0.0219
 2197TIP3   OH228081   2.416   1.319  12.222  0.1494 -0.2360  0.0226
 2197TIP3    H128082   2.390   1.409  12.202  1.0446 -0.3481 -1.9272
 2197TIP3    H228083   2.353   1.265  12.173  1.8867 -0.5445 -2.0382
 2198TIP3   OH228084   5.865   2.529   4.118  0.1942  0.8743 -0.1195
 2198TIP3    H128085   5.828   2.611   4.150  1.2121  1.1119  0.4760
 2198TIP3    H228086   5.851   2.466   4.188  1.9991  1.2778  0.6594
 2199TIP3   OH228087   0.213   3.371  14.956 -0.7283 -0.2213  0.2956
 2199TIP3    H128088   0.306   3.373  14.982 -0.3286  0.7232 -1.0893
 2199TIP3    H228089   0.185   3.281  14.973  0.4631 -0.5395  0.6660
 2200TIP3   OH228090   2.238   4.192   4.551  0.2172  0.1663 -0.3358
 2200TIP3    H128091   2.163   4.148   4.592 -0.5623  1.5326 -0.2073
 2200TIP3    H228092   2.226   4.177   4.457 -0.9466  1.3706 -0.4233
 2201TIP3   OH228093   4.034   3.614   2.047 -0.3517 -0.0614 -0.7682
 2201TIP3    H128094   4.070   3.610   2.136  3.3868  3.2532 -1.8706
 2201TIP3    H228095   3.957   3.671   2.055 -1.3012 -1.4396  0.5492
 2202TIP3   OH228096   3.707   2.351  13.580 -0.4049  0.2523  0.0532
 2202TIP3    H128097   3.707   2.264  13.540  0.5456 -0.2436  1.0764
 2202TIP3    H228098   3.774   2.400  13.534 -0.1658  0.0810  0.2186
 2203TIP3   OH228099   4.225   6.149  14.589 -0.1624  0.1889 -0.0331
 2203TIP3    H128100   4.227   6.234  14.632  1.6248  0.1647  0.0116
 2203TIP3    H228101   4.292   6.155  14.521  0.7659 -1.5153  0.6627
 2204TIP3   OH228102   5.754   6.153  11.541  0.3324 -0.1956 -0.5048
 2204TIP3    H128103   5.757   6.078  11.481 -1.2456 -0.1923 -0.6155
 2204TIP3    H228104   5.698   6.125  11.613  1.6213  0.0666  0.6645
 2205TIP3   OH228105   4.936   4.761  14.201  0.2280 -0.4803 -0.2377
 2205TIP3    H128106   4.968   4.834  14.147  1.9752 -0.8015  0.3068
 2205TIP3    H228107   4.983   4.770  14.284 -0.4620 -1.5077  0.2846
 2206TIP3   OH228108   4.930   2.535   2.972 -0.5496 -0.0334  0.0900
 2206TIP3    H128109   4.909   2.513   2.882 -0.4837 -0.9112  0.2799
 2206TIP3    H228110   4.948   2.629   2.971  0.5239 -0.2326 -1.0063
 2207TIP3   OH228111   1.431   6.590   3.021  0.6535 -0.2201  0.2390
 2207TIP3    H128112   1.439   6.500   2.989  1.1156 -0.1015  0.0080
 2207TIP3    H228113   1.504   6.637   2.980 -1.3028  0.9874 -2.1190
 2208TIP3   OH228114   1.488   6.300   6.158 -0.0040 -0.0687 -0.4021
 2208TIP3    H128115   1.531   6.385   6.162 -1.7221  0.8626 -0.7178
 2208TIP3    H228116   1.430   6.306   6.082 -1.9792 -0.5838  0.9746
 2209TIP3   OH228117   2.507   5.133   5.242 -0.4849  0.4610 -0.0251
 2209TIP3    H128118   2.598   5.147   5.265 -0.6908  0.1875  0.9903
 2209TIP3    H228119   2.509   5.060   5.180 -0.1537 -0.7255  1.3510
 2210TIP3   OH228120   5.858   6.615  14.645 -0.7834  0.1359 -0.9660
 2210TIP3    H128121   5.934   6.660  14.609 -1.6024  0.3486 -2.5071
 2210TIP3    H228122   5.847   6.537  14.590  1.1727 -2.6515  2.1943
 2211TIP3   OH228123   0.669   0.411  11.728  0.1066 -0.8872  0.4581
 2211TIP3    H128124   0.593   0.449  11.683  0.9408  2.6264  1.7407
 2211TIP3    H228125   0.712   0.358  11.661 -2.5418 -1.6652 -0.7636
 2212TIP3   OH228126   2.526   3.813  17.013  0.5293  0.3989  0.0461
 2212TIP3    H128127   2.543   3.820  16.919 -0.3151  0.0314 -0.1372
 2212TIP3    H228128   2.609   3.782  17.050  0.4500 -0.8706 -0.7705
 2213TIP3   OH228129   1.961   6.359  15.181  0.3905  0.3596 -0.1753
 2213TIP3    H128130   1.925   6.445  15.158  1.3117  0.7564 -0.2034
 2213TIP3    H228131   2.027   6.342  15.114  0.2826 -0.3271 -0.1124
 2214TIP3   OH228132   6.161   6.173  13.726 -0.8521  0.0658  0.5695
 2214TIP3    H128133   6.222   6.233  13.685  0.3880 -0.7739  1.1280
 2214TIP3    H228134   6.197   6.086  13.709 -0.9229 -0.3681  2.3895
 2215TIP3   OH228135   6.483   5.082   2.427 -0.0697  0.4253  0.7623
 2215TIP3    H128136   6.579   5.072   2.429 -0.0293  0.8189  2.7060
 2215TIP3    H228137   6.451   4.994   2.410  0.6223  0.6373 -2.2022
 2216TIP3   OH228138   5.418   0.671   3.805 -0.4987 -0.2906  0.5474
 2216TIP3    H128139   5.428   0.695   3.897  2.1621 -1.5154  0.6659
 2216TIP3    H228140   5.429   0.754   3.758 -0.2269  0.0999  1.2719
 2217TIP3   OH228141   6.643   0.141  12.528 -0.2825  0.0379  0.0621
 2217TIP3    H128142   6.711   0.195  12.487  1.3151  0.4203  2.9257
 2217TIP3    H228143   6.566   0.152  12.472  1.3962  1.2786 -2.1778
 2218TIP3   OH228144   2.444   3.175   0.026 -0.5541  0.0391 -0.0266
 2218TIP3    H128145   2.452   3.092   0.072  0.6047 -0.5644 -1.2478
 2218TIP3    H228146   2.372   3.161  -0.036  0.3969 -0.4990 -1.0531
 2219TIP3   OH228147   0.982   2.135  14.178  0.0207  0.4761  0.1161
 2219TIP3    H128148   1.051   2.195  14.206 -0.5526  1.2590 -0.1064
 2219TIP3    H228149   0.902   2.170  14.217 -0.1696 -0.7975  0.9229
 2220TIP3   OH228150   4.835   0.499  14.184 -0.6228  0.0838  0.4931
 2220TIP3    H128151   4.774   0.559  14.226 -1.1718  0.0906 -0.2954
 2220TIP3    H228152   4.903   0.556  14.148 -0.4874  0.1265  0.8090
 2221TIP3   OH228153   6.599   2.026   1.930 -0.1230  0.1350 -0.6120
 2221TIP3    H128154   6.518   2.037   1.979 -0.0950 -0.8758 -0.3098
 2221TIP3    H228155   6.646   1.957   1.977  0.7210  0.4154 -1.0275
 2222TIP3   OH228156   4.085   6.825   4.455 -0.0108 -0.4020 -0.0408
 2222TIP3    H128157   4.057   6.770   4.382  2.8511 -2.5757  0.2924
 2222TIP3    H228158   4.014   6.820   4.518 -0.2500 -3.1763 -0.3883
 2223TIP3   OH228159   2.167   2.449   6.574 -0.2831  0.4227  0.1292
 2223TIP3    H128160   2.081   2.459   6.534 -0.4463  0.2100  0.4237
 2223TIP3    H228161   2.228   2.445   6.500 -0.2891  2.5586 -0.0559
 2224TIP3   OH228162   5.772   3.796   4.109 -0.6085  0.0252 -0.0436
 2224TIP3    H128163   5.777   3.775   4.202  2.5653  0.8694  0.0966
 2224TIP3    H228164   5.864   3.801   4.081 -1.3893 -2.7370 -3.8494
 2225TIP3   OH228165   1.335   4.237   3.286 -0.2460  0.0785 -0.1051
 2225TIP3    H128166   1.379   4.168   3.235 -0.6306  0.5579 -1.1264
 2225TIP3    H228167   1.396   4.257   3.356  0.0880 -0.9634 -0.0719
 2226TIP3   OH228168   2.257   4.944   0.467 -0.6441 -0.0183  0.8663
 2226TIP3    H128169   2.244   5.039   0.469  1.1722  0.3363 -0.9246
 2226TIP3    H228170   2.328   4.929   0.528  1.9650  0.4458 -1.8237
 2227TIP3   OH228171   6.414   6.665  15.878  0.1640 -0.0794  0.2172
 2227TIP3    H128172   6.487   6.703  15.926 -0.2727  0.5376  0.4004
 2227TIP3    H228173   6.453   6.591  15.831  1.1043  0.7969 -0.4366
 2228TIP3   OH228174   5.605   2.109   0.337 -0.0898 -0.4504  0.1282
 2228TIP3    H128175   5.652   2.046   0.391 -3.0010 -1.6547  1.4492
 2228TIP3    H228176   5.633   2.195   0.370  0.7775 -1.1230  1.1875
 2229TIP3   OH228177   4.472   6.084   1.555  0.2349 -0.4447  0.5619
 2229TIP3    H128178   4.475   6.108   1.462  1.0059 -0.3865  0.5973
 2229TIP3    H228179   4.473   5.989   1.555  3.0952 -0.5022  0.5473
 2230TIP3   OH228180   6.560   5.828   4.299  0.5549 -0.7780  0.2385
 2230TIP3    H128181   6.583   5.869   4.215 -0.2555 -0.1331  0.3115
 2230TIP3    H228182   6.635   5.843   4.355  1.2072 -1.4207 -0.4312
 2231TIP3   OH228183   1.540   1.934   3.001 -0.0176 -0.1000 -0.1100
 2231TIP3    H128184   1.566   2.025   3.018  0.3738  0.0371 -1.3372
 2231TIP3    H228185   1.499   1.937   2.915 -1.3915 -0.8454  0.4990
 2232TIP3   OH228186   0.996   3.790  17.070  0.5520 -0.1964 -0.0148
 2232TIP3    H128187   0.997   3.724  17.000  0.4048 -0.1078 -0.1036
 2232TIP3    H228188   0.954   3.866  17.030  0.8868  0.0134  0.0298
 2233TIP3   OH228189   0.381   5.438   1.250  0.6361  0.3555  0.2354
 2233TIP3    H128190   0.342   5.355   1.221  2.2898 -0.3372 -0.0914
 2233TIP3    H228191   0.438   5.414   1.323  1.8833  1.0238 -0.4842
 2234TIP3   OH228192   2.977   3.013   3.637 -0.1246 -0.3327 -0.3904
 2234TIP3    H128193   2.948   3.077   3.573  0.6372 -0.4324 -0.8515
 2234TIP3    H228194   3.047   2.965   3.593  2.5008  1.5227  1.4667
 2235TIP3   OH228195   1.089   1.004  12.007 -0.3417  0.5180 -0.5826
 2235TIP3    H128196   0.998   1.019  12.033 -0.8800 -0.6051 -1.7150
 2235TIP3    H228197   1.092   1.032  11.916  0.6345  1.1421 -0.3729
 2236TIP3   OH228198   0.110   2.455   3.005  0.1252  0.1955  0.3207
 2236TIP3    H128199   0.176   2.508   2.960 -1.5422 -0.1070 -2.7989
 2236TIP3    H228200   0.035   2.513   3.016  0.1742 -0.0213  1.9577
 2237TIP3   OH228201   3.392   1.520   5.312  0.4807 -1.1985 -0.4726
 2237TIP3    H128202   3.433   1.551   5.392  0.8787 -0.1851 -1.0589
 2237TIP3    H228203   3.336   1.448   5.341  1.1271 -1.2902  0.6163
 2238TIP3   OH228204   0.653   0.854  10.183 -0.0891 -0.0966 -0.5982
 2238TIP3    H128205   0.684   0.935  10.224  1.5012 -0.0397 -1.8316
 2238TIP3    H228206   0.614   0.804  10.255  1.1547  0.6966  0.6669
 2239TIP3   OH228207   0.667   3.288   3.056 -0.6032 -0.6034  0.3447
 2239TIP3    H128208   0.745   3.236   3.075 -0.6333 -0.9638 -0.4610
 2239TIP3    H228209   0.593   3.232   3.082 -0.6028 -0.1674  1.3348
 2240TIP3   OH228210   0.915   5.561   2.270 -0.0410  0.1433 -0.0844
 2240TIP3    H128211   0.981   5.608   2.220  0.7458  2.2555  2.7385
 2240TIP3    H228212   0.938   5.575   2.361 -2.5262 -1.8463  0.9933
 2241TIP3   OH228213   2.106   1.058  15.710  0.1667 -0.0290  0.4542
 2241TIP3    H128214   2.060   1.017  15.783  0.8045 -0.2878  0.7164
 2241TIP3    H228215   2.198   1.056  15.735  0.2535  1.2641  0.3221
 2242TIP3   OH228216   1.669   2.934  16.631  0.1644 -0.2919 -0.3552
 2242TIP3    H128217   1.754   2.936  16.675  0.3127 -2.1561 -0.4605
 2242TIP3    H228218   1.623   2.859  16.670 -0.9784 -0.0047 -1.0947
 2243TIP3   OH228219   4.917   2.113  13.392 -0.3406 -0.2916  0.1542
 2243TIP3    H128220   4.948   2.078  13.476  1.9246  2.2481  0.5233
 2243TIP3    H228221   4.856   2.183  13.417 -1.0430 -0.6806 -0.4186
 2244TIP3   OH228222   6.322   6.279  15.600 -0.1001  0.3412 -0.7983
 2244TIP3    H128223   6.270   6.235  15.668 -2.2507 -0.7063 -2.9789
 2244TIP3    H228224   6.305   6.372  15.614 -0.6932  0.1336 -0.0471
 2245TIP3   OH228225   6.515   6.235   1.964 -0.1757  0.3421  0.2812
 2245TIP3    H128226   6.427   6.214   1.995  0.4379 -0.6656  1.4176
 2245TIP3    H228227   6.547   6.303   2.023 -0.8826  2.1959 -1.3410
 2246TIP3   OH228228   1.861   4.943   1.469 -0.3890  0.1254 -0.0986
 2246TIP3    H128229   1.799   4.901   1.409 -0.3528 -0.6272  0.3837
 2246TIP3    H228230   1.830   4.919   1.556  0.1955  0.3083  0.1605
 2247TIP3   OH228231   0.921   4.743   5.551 -0.3461 -0.2032  0.4962
 2247TIP3    H128232   0.948   4.653   5.533  0.7652  0.3127 -0.5673
 2247TIP3    H228233   0.959   4.763   5.637 -0.3579 -0.6508  0.6081
 2248TIP3   OH228234   0.429   6.720  15.044  0.5236  0.4875  0.3581
 2248TIP3    H128235   0.496   6.651  15.037 -0.2381 -0.3222  0.8970
 2248TIP3    H228236   0.387   6.704  15.128 -1.8126 -0.3740 -0.8940
 2249TIP3   OH228237   3.981   6.034   4.724  0.3395 -0.1838  0.3108
 2249TIP3    H128238   3.953   5.953   4.767 -1.0386  0.2944  0.3754
 2249TIP3    H228239   3.990   6.097   4.796 -1.9365  0.6106 -0.0229
 2250TIP3   OH228240   1.779   4.209   3.478 -0.0192 -0.1891 -0.2956
 2250TIP3    H128241   1.748   4.178   3.563 -3.1837 -0.5106 -1.4382
 2250TIP3    H228242   1.824   4.133   3.440  0.3851 -0.4165  0.6131
 2251TIP3   OH228243   4.692   2.555   5.245  0.3401  0.4036 -0.6649
 2251TIP3    H128244   4.713   2.636   5.199 -0.2927 -0.1687 -2.0136
 2251TIP3    H228245   4.631   2.582   5.315  0.4041  1.1307 -0.8859
 2252TIP3   OH228246   1.182   6.665   0.211  0.5472  0.6985  0.1411
 2252TIP3    H128247   1.160   6.754   0.240 -0.2218  0.7217 -0.4914
 2252TIP3    H228248   1.132   6.653   0.131  0.8321 -0.2249  0.0944
 2253TIP3   OH228249   2.840   2.821   3.335  0.3930  0.0428 -0.1710
 2253TIP3    H128250   2.906   2.789   3.273  1.1300  0.0941  0.5636
 2253TIP3    H228251   2.822   2.746   3.391  0.3294  0.2290  0.0571
 2254TIP3   OH228252   1.023   2.111  13.136  0.2622 -0.0373 -0.4738
 2254TIP3    H128253   1.004   2.148  13.050 -1.9612 -3.9379 -1.9790
 2254TIP3    H228254   0.937   2.103  13.177  0.5316 -2.9393 -0.2185
 2255TIP3   OH228255   4.072   6.116   1.697  0.3788 -0.4395 -0.2599
 2255TIP3    H128256   4.158   6.075   1.711  0.1680 -0.4384  1.3091
 2255TIP3    H228257   4.010   6.052   1.733  0.1245  1.6034  3.4562
 2256TIP3   OH228258   2.280   2.214   3.810 -0.1856  0.1870  0.0435
 2256TIP3    H128259   2.349   2.215   3.877  1.0843 -0.7538 -1.2030
 2256TIP3    H228260   2.208   2.165   3.851  0.5167 -0.2550  0.7852
 2257TIP3   OH228261   3.660   2.733   1.920  0.4090  0.2635 -0.1860
 2257TIP3    H128262   3.587   2.687   1.962  1.0321 -0.4345  0.1534
 2257TIP3    H228263   3.628   2.754   1.833 -0.7836  1.4276  0.4974
 2258TIP3   OH228264   4.743   0.499   1.496 -0.1088 -0.0480 -0.3044
 2258TIP3    H128265   4.676   0.566   1.481 -0.0090  0.3138  0.7709
 2258TIP3    H228266   4.787   0.526   1.577  0.0309 -1.3379  0.0821
 2259TIP3   OH228267   6.809   3.374   4.583  0.5267 -0.3151 -0.3159
 2259TIP3    H128268   6.847   3.287   4.571 -0.0281 -0.3830 -1.6901
 2259TIP3    H228269   6.867   3.433   4.535  0.5244 -0.0162  0.0442
 2260TIP3   OH228270   2.309   4.832  16.525 -0.1081 -0.2274  0.8505
 2260TIP3    H128271   2.272   4.916  16.500 -0.1818 -0.7182 -0.8296
 2260TIP3    H228272   2.240   4.768  16.506  0.6768 -0.8760  0.0834
 2261TIP3   OH228273   5.064   1.456  16.718 -0.2752 -0.0218  0.2703
 2261TIP3    H128274   5.154   1.428  16.733 -0.3948 -2.6898 -2.8768
 2261TIP3    H228275   5.072   1.539  16.670  0.7505 -1.5496 -2.4185
 2262TIP3   OH228276   3.174   3.789   5.275 -0.2489 -0.2296 -0.0784
 2262TIP3    H128277   3.186   3.759   5.185 -0.0201  0.7639 -0.3877
 2262TIP3    H228278   3.168   3.708   5.327 -1.1177 -0.8276 -1.0691
 2263TIP3   OH228279   1.437   4.141  16.414  0.2925  0.1055  0.7101
 2263TIP3    H128280   1.384   4.201  16.360 -0.3365  0.0886  1.2914
 2263TIP3    H228281   1.527   4.172  16.403  0.2663 -0.2959 -0.8707
 2264TIP3   OH228282   3.374   0.440  11.154 -0.4101 -0.6882  0.2603
 2264TIP3    H128283   3.288   0.439  11.113  0.0124  0.8547 -0.7438
 2264TIP3    H228284   3.429   0.491  11.094  0.0394  2.5598  3.0943
 2265TIP3   OH228285   5.623   5.043  11.791 -0.0063  0.3904  0.3419
 2265TIP3    H128286   5.555   5.080  11.734  1.1411 -0.1032 -1.4128
 2265TIP3    H228287   5.574   4.989  11.854 -1.2971  0.6920 -0.3656
 2266TIP3   OH228288   5.680   1.438  15.996 -0.1750  0.0781  0.3849
 2266TIP3    H128289   5.728   1.513  16.029  0.0019 -0.0962  0.5248
 2266TIP3    H228290   5.592   1.471  15.979  0.8754  1.4277 -3.5261
 2267TIP3   OH228291   3.702   0.521   4.516 -0.4113 -0.5801 -0.3701
 2267TIP3    H128292   3.747   0.533   4.432  0.7981  0.4528  0.4007
 2267TIP3    H228293   3.610   0.511   4.492  0.1820 -2.9777 -2.0058
 2268TIP3   OH228294   0.719   2.517   5.311  0.0485  0.0583  0.8175
 2268TIP3    H128295   0.628   2.506   5.337 -0.2408  1.7658  0.6184
 2268TIP3    H228296   0.753   2.585   5.369  0.8289  0.3574  0.0282
 2269TIP3   OH228297   1.386   5.580   0.218  0.0843  0.1707 -0.0439
 2269TIP3    H128298   1.352   5.563   0.306  1.3206  0.3744  0.4918
 2269TIP3    H228299   1.335   5.655   0.187  0.9117  1.3188  1.2724
 2270TIP3   OH228300   2.674   3.169  15.390 -0.0517  0.3560 -0.1703
 2270TIP3    H128301   2.638   3.081  15.403  0.5248  0.0595 -0.5421
 2270TIP3    H228302   2.604   3.228  15.418 -0.4196 -0.2221  0.1448
 2271TIP3   OH228303   3.722   0.107   3.991 -0.0800 -0.5288  0.4556
 2271TIP3    H128304   3.766   0.023   4.008 -0.3067 -0.8260 -0.3668
 2271TIP3    H228305   3.655   0.086   3.926  0.9824  0.5754 -1.0911
 2272TIP3   OH228306   2.805   3.530   5.018 -0.2920 -0.0674 -0.4021
 2272TIP3    H128307   2.823   3.497   5.105 -0.8835  1.0060  0.1539
 2272TIP3    H228308   2.888   3.522   4.971  1.1343  2.6488  1.3885
 2273TIP3   OH228309   0.560   3.366   2.792  0.0376  0.6099  0.2828
 2273TIP3    H128310   0.628   3.352   2.857 -1.3190  0.0221  1.6444
 2273TIP3    H228311   0.504   3.434   2.829 -0.3850  0.7527 -0.5894
 2274TIP3   OH228312   3.663   3.902  15.101 -0.0455  0.2323 -0.3731
 2274TIP3    H128313   3.694   3.983  15.060  0.6363  0.1382 -0.0691
 2274TIP3    H228314   3.700   3.904  15.190  1.7000 -1.3465 -0.9926
 2275TIP3   OH228315   2.932   5.772  12.606  0.0350 -0.1484  0.3135
 2275TIP3    H128316   2.874   5.774  12.530  1.3764  1.5150 -0.7472
 2275TIP3    H228317   2.882   5.814  12.676 -0.5693 -0.0576 -0.1691
 2276TIP3   OH228318   5.787   5.342  14.252 -0.8058  0.3475 -0.3854
 2276TIP3    H128319   5.746   5.392  14.322 -0.1730  2.3507 -1.3821
 2276TIP3    H228320   5.756   5.384  14.172 -0.5790 -1.1579 -1.3018
 2277TIP3   OH228321   0.843   0.784  16.176  0.1594  0.1568  0.3587
 2277TIP3    H128322   0.894   0.736  16.241 -0.1904 -0.1044  0.4413
 2277TIP3    H228323   0.755   0.786  16.211 -0.1292 -0.3657 -0.3027
 2278TIP3   OH228324   2.279   5.527  13.243  0.5246  0.5632 -0.3594
 2278TIP3    H128325   2.330   5.527  13.162 -1.8993 -0.8833 -1.9857
 2278TIP3    H228326   2.271   5.435  13.267 -0.6217  0.8087  0.2802
 2279TIP3   OH228327   4.035   1.115  14.590 -0.3075 -0.3006  0.3035
 2279TIP3    H128328   3.995   1.046  14.537 -0.3890  0.0326 -0.0698
 2279TIP3    H228329   4.093   1.068  14.650  0.8493 -0.5920 -0.9960
 2280TIP3   OH228330   1.984   5.129   4.459 -0.4736 -0.0615  0.4985
 2280TIP3    H128331   2.006   5.222   4.471 -0.9297 -0.0020  0.9485
 2280TIP3    H228332   1.937   5.106   4.539  0.8691 -1.0699  1.0373
 2281TIP3   OH228333   4.154   3.533  13.884 -0.2002  0.2296  0.0401
 2281TIP3    H128334   4.191   3.513  13.970 -0.0728 -0.1874 -0.1096
 2281TIP3    H228335   4.221   3.504  13.822 -0.9405 -0.9115 -0.2551
 2282TIP3   OH228336   5.650   0.566  13.997  0.9348 -0.1076  0.1377
 2282TIP3    H128337   5.683   0.516  14.072  2.2031  0.4952  0.0088
 2282TIP3    H228338   5.555   0.564  14.008  1.0901  0.4598  2.1060
 2283TIP3   OH228339   0.491   1.747   5.695 -0.1264 -0.4203  0.1942
 2283TIP3    H128340   0.401   1.715   5.699  0.5737 -2.5735 -0.3266
 2283TIP3    H228341   0.489   1.817   5.630 -1.5647  0.2125  0.8551
 2284TIP3   OH228342   2.852   2.789  14.810  0.1434  0.5839 -0.3304
 2284TIP3    H128343   2.931   2.842  14.815  0.2859  0.3395  0.1133
 2284TIP3    H228344   2.806   2.805  14.893 -0.3936  0.9058 -0.6810
 2285TIP3   OH228345   6.725   6.186  14.416  0.0140  0.5220  0.2033
 2285TIP3    H128346   6.678   6.113  14.456  1.2593  1.0796  2.9010
 2285TIP3    H228347   6.668   6.261  14.427 -0.7655  0.2369 -1.5382
 2286TIP3   OH228348   1.298   4.798   0.723 -0.4555  0.1097  0.0475
 2286TIP3    H128349   1.274   4.762   0.637 -0.5892  0.2145  0.0413
 2286TIP3    H228350   1.394   4.791   0.725 -0.5295 -1.0973  0.4188
 2287TIP3   OH228351   4.976   0.970  16.221 -0.6145 -0.0850 -0.1134
 2287TIP3    H128352   4.950   1.028  16.293 -1.2944 -0.5407  0.0090
 2287TIP3    H228353   4.974   0.882  16.258 -1.0492 -0.3323 -0.7005
 2288TIP3   OH228354   2.768   3.577  13.640 -0.5290  0.4498 -0.1529
 2288TIP3    H128355   2.852   3.532  13.631 -0.7857 -0.2048  0.5421
 2288TIP3    H228356   2.707   3.507  13.666 -0.9137  1.2008  1.0571
 2289TIP3   OH228357   4.174   5.681   1.992  0.1127 -0.8613  0.8351
 2289TIP3    H128358   4.098   5.719   2.035 -1.6669 -2.6770 -0.5235
 2289TIP3    H228359   4.202   5.611   2.050 -1.1501 -2.1193 -0.0205
 2290TIP3   OH228360   0.804   4.410   4.514  0.1711  0.0796  0.2112
 2290TIP3    H128361   0.778   4.430   4.425 -1.3980  3.3384  1.2391
 2290TIP3    H228362   0.893   4.375   4.506  1.4764  3.4680 -2.4738
 2291TIP3   OH228363   0.752   5.401  13.341 -0.6275 -0.1619 -0.3379
 2291TIP3    H128364   0.702   5.458  13.399 -1.3040 -1.5853  0.5291
 2291TIP3    H228365   0.775   5.457  13.266 -3.2853  0.6399 -0.6544
 2292TIP3   OH228366   0.080   1.068  13.222  0.3822  0.5637 -0.0600
 2292TIP3    H128367   0.010   1.003  13.215 -2.0911  3.0222 -0.0005
 2292TIP3    H228368   0.106   1.067  13.315 -2.0758  1.8750  0.7353
 2293TIP3   OH228369   6.230   0.363  13.795 -0.1235  0.4993  0.0886
 2293TIP3    H128370   6.224   0.372  13.890 -0.7344  1.2115 -0.0117
 2293TIP3    H228371   6.165   0.296  13.773 -0.2721  0.6308  0.1287
 2294TIP3   OH228372   3.847   5.851  12.420 -0.1963  0.3170  0.1555
 2294TIP3    H128373   3.801   5.849  12.336 -0.0867  1.5723  0.0417
 2294TIP3    H228374   3.829   5.939  12.455  3.1326  1.4006 -0.5147
 2295TIP3   OH228375   2.345   2.143   0.444  0.2584  0.1845  0.5314
 2295TIP3    H128376   2.303   2.224   0.474 -0.5187  0.7379 -1.8728
 2295TIP3    H228377   2.405   2.120   0.515  0.4712  2.8245  1.3091
 2296TIP3   OH228378   6.060   6.029  12.707 -0.0310  0.0860 -0.5215
 2296TIP3    H128379   5.976   6.055  12.746  0.6341  0.8874  0.4128
 2296TIP3    H228380   6.071   5.938  12.733  0.6605  0.7446  1.7337
 2297TIP3   OH228381   3.518   0.146   1.618  0.3169  0.0030 -0.1488
 2297TIP3    H128382   3.553   0.119   1.534 -0.4253  1.1365 -0.8457
 2297TIP3    H228383   3.595   0.161   1.673  0.7761 -2.7192  0.0621
 2298TIP3   OH228384   0.635   5.051   0.796  0.8616  0.4372  0.1958
 2298TIP3    H128385   0.548   5.011   0.801  0.5115  1.0690 -0.4905
 2298TIP3    H228386   0.630   5.126   0.855  0.7948  0.7103 -0.1492
 2299TIP3   OH228387   4.549   5.908  11.936  0.2591 -0.2431  0.0155
 2299TIP3    H128388   4.588   5.983  11.892  2.2096 -0.8856  0.5638
 2299TIP3    H228389   4.469   5.943  11.976 -0.5726  0.7854 -2.3537
 2300TIP3   OH228390   4.121   5.870  16.577 -0.4968  0.0516  0.0282
 2300TIP3    H128391   4.094   5.778  16.572 -0.6556  0.0108  1.2740
 2300TIP3    H228392   4.068   5.907  16.648 -0.4924  1.1347 -0.5073
 2301TIP3   OH228393   3.699   6.682   2.624  0.6962  0.6727  0.8692
 2301TIP3    H128394   3.783   6.652   2.590  0.5985  1.5337 -0.1990
 2301TIP3    H228395   3.686   6.767   2.582 -0.0765  1.1624  2.0618
 2302TIP3   OH228396   4.158   1.255  12.259  0.0545  0.0123 -0.0170
 2302TIP3    H128397   4.071   1.243  12.297 -0.3969 -1.2492 -1.3397
 2302TIP3    H228398   4.147   1.325  12.194  0.7365  1.8922  1.7820
 2303TIP3   OH228399   4.790   5.160  11.127  0.7698  0.0004  0.1144
 2303TIP3    H128400   4.839   5.122  11.054 -0.1001  1.0417 -1.0759
 2303TIP3    H228401   4.700   5.127  11.114  0.7571 -0.4200  1.1825
 2304TIP3   OH228402   6.090   5.372  14.839 -0.0212 -0.0195  0.1728
 2304TIP3    H128403   6.065   5.455  14.880  0.0726 -0.7875  1.8821
 2304TIP3    H228404   6.179   5.387  14.806  0.4593  0.2396  1.5228
 2305TIP3   OH228405   6.141   0.025  16.541 -0.0320 -0.1853  0.2005
 2305TIP3    H128406   6.221   0.020  16.593  0.0645 -0.4562  0.0267
 2305TIP3    H228407   6.171   0.039  16.451 -0.1951  0.1928  0.2023
 2306TIP3   OH228408   2.523   1.177   2.227  0.1023  0.6450  0.2487
 2306TIP3    H128409   2.591   1.215   2.171  0.3479 -0.7820 -0.4759
 2306TIP3    H228410   2.460   1.140   2.165  0.5313 -1.2488  0.8760
 2307TIP3   OH228411   4.607   6.506  16.173  0.3108  0.0764 -0.2033
 2307TIP3    H128412   4.575   6.594  16.151  1.6138  0.6827  0.2530
 2307TIP3    H228413   4.669   6.520  16.244 -0.0707 -1.3199  0.4352
 2308TIP3   OH228414   1.914   4.069  14.464 -0.8604  0.4301 -0.0194
 2308TIP3    H128415   1.824   4.091  14.442 -1.4165 -0.8400  0.8564
 2308TIP3    H228416   1.920   4.089  14.558 -0.3825  0.0501  0.0316
 2309TIP3   OH228417   5.173   3.357   6.592 -0.0087 -0.0508  0.0024
 2309TIP3    H128418   5.090   3.382   6.633  0.5626 -0.2171  1.3292
 2309TIP3    H228419   5.147   3.316   6.509 -1.2435  0.0070  0.3294
 2310TIP3   OH228420   5.762   2.858  16.136  0.0952 -0.0380  0.3334
 2310TIP3    H128421   5.748   2.768  16.105  0.2531 -0.1227  0.5058
 2310TIP3    H228422   5.817   2.897  16.069  0.7920 -0.3516  0.7168
 2311TIP3   OH228423   1.797   4.823  16.156 -0.0601 -0.0951  0.0736
 2311TIP3    H128424   1.736   4.894  16.142 -0.3211 -0.2806  0.2542
 2311TIP3    H228425   1.857   4.855  16.223 -0.3370 -0.1403  0.3467
 2312TIP3   OH228426   4.535   2.987   0.825 -0.4325 -0.2139  0.4512
 2312TIP3    H128427   4.525   3.000   0.730 -0.8292  0.4531  0.5840
 2312TIP3    H228428   4.529   2.892   0.836  0.0739 -0.3356 -0.2422
 2313TIP3   OH228429   3.109   5.264   6.623  0.0130  0.5434 -0.2453
 2313TIP3    H128430   3.186   5.216   6.591  0.3914  1.1395 -0.2337
 2313TIP3    H228431   3.111   5.346   6.575 -1.3751  0.0292 -1.2305
 2314TIP3   OH228432   5.251   1.001  10.960 -0.2986  0.1511  0.4474
 2314TIP3    H128433   5.291   1.048  10.887  0.6614  0.9597  1.4586
 2314TIP3    H228434   5.304   1.024  11.036 -0.7772 -1.3056  1.2802
 2315TIP3   OH228435   3.682   4.690   5.772  0.3571 -0.0227 -0.4411
 2315TIP3    H128436   3.634   4.663   5.850  0.0518  0.0315 -0.6085
 2315TIP3    H228437   3.713   4.778   5.792  0.0625  0.0899 -0.4800
 2316TIP3   OH228438   1.144   3.735  10.960  0.2546 -0.4993  0.3059
 2316TIP3    H128439   1.158   3.764  11.050 -1.0973  3.0629 -0.4605
 2316TIP3    H228440   1.231   3.730  10.922  0.6750  1.8891  0.8164
 2317TIP3   OH228441   3.766   2.307   1.929 -0.0126  0.1997  0.0276
 2317TIP3    H128442   3.823   2.383   1.944 -0.5652  0.7863 -0.7587
 2317TIP3    H228443   3.681   2.334   1.964  0.0494 -0.4725  0.7145
 2318TIP3   OH228444   3.248   5.021  12.756 -0.5841  0.4548  0.8661
 2318TIP3    H128445   3.263   4.946  12.698  0.6761  0.9686  0.4793
 2318TIP3    H228446   3.259   4.985  12.844 -0.1653  0.1296  0.6905
 2319TIP3   OH228447   2.206   0.574   1.623 -0.2665 -0.0543  0.6445
 2319TIP3    H128448   2.174   0.484   1.612 -1.3406  0.4306 -0.5065
 2319TIP3    H228449   2.297   0.571   1.592  0.0019 -0.9162  1.4643
 2320TIP3   OH228450   1.993   2.857   5.758  0.1435  0.1980 -0.3001
 2320TIP3    H128451   2.057   2.917   5.796  0.0268  0.6204 -0.7487
 2320TIP3    H228452   2.001   2.777   5.809 -0.2103  0.8376  0.7820
 2321TIP3   OH228453   4.246   0.636  11.147  0.2777  0.2160 -0.1511
 2321TIP3    H128454   4.280   0.589  11.223  2.0693 -0.8485 -1.5215
 2321TIP3    H228455   4.212   0.567  11.090  0.2005  0.8651 -0.8980
 2322TIP3   OH228456   5.922   0.500  12.569  0.1120  0.3408  0.1457
 2322TIP3    H128457   5.923   0.534  12.658 -0.0034  1.4413 -0.2604
 2322TIP3    H228458   6.003   0.450  12.562 -0.5892 -1.0458  1.3270
 2323TIP3   OH228459   4.361   2.638  14.297  0.0074  0.0330  0.1382
 2323TIP3    H128460   4.287   2.691  14.325 -0.5821 -0.0633 -1.1407
 2323TIP3    H228461   4.321   2.560  14.258  0.8140 -0.5350  0.4247
 2324TIP3   OH228462   6.592   3.535   5.499  0.3916  0.3625 -0.0010
 2324TIP3    H128463   6.561   3.516   5.588  0.6509  0.5045  0.1221
 2324TIP3    H228464   6.561   3.461   5.447  0.9805 -0.1648  0.3794
 2325TIP3   OH228465   3.397   4.654   0.600 -0.3168  0.2700 -0.0075
 2325TIP3    H128466   3.372   4.746   0.598  0.7037  0.5717  0.9064
 2325TIP3    H228467   3.369   4.623   0.686 -0.8265 -0.3383 -0.3807
 2326TIP3   OH228468   0.239   4.288  15.940 -0.0315  0.1025  0.0730
 2326TIP3    H128469   0.225   4.194  15.948 -2.9492  0.4467  0.0442
 2326TIP3    H228470   0.260   4.317  16.029  1.3988 -0.6044 -0.0116
 2327TIP3   OH228471   4.126   4.100   2.060  0.1869 -0.2906  1.2232
 2327TIP3    H128472   4.220   4.119   2.058  0.7951 -2.8795  1.8194
 2327TIP3    H228473   4.099   4.122   2.149  0.2928  0.1923  1.1368
 2328TIP3   OH228474   6.720   1.487  13.068 -0.1721 -0.2537  0.1347
 2328TIP3    H128475   6.739   1.394  13.057 -0.7073 -0.6321  2.0378
 2328TIP3    H228476   6.789   1.532  13.019  0.4643 -1.6278 -0.2779
 2329TIP3   OH228477   6.688   5.896  11.129  0.0823 -0.3199  0.4361
 2329TIP3    H128478   6.602   5.932  11.109 -0.9186 -2.9035 -0.2937
 2329TIP3    H228479   6.743   5.919  11.054 -0.2342  0.4975  0.4515
 2330TIP3   OH228480   3.256   0.626   3.385  0.1338 -0.0378  0.1992
 2330TIP3    H128481   3.322   0.597   3.449  0.7557  0.6398 -0.1125
 2330TIP3    H228482   3.237   0.548   3.334  1.1377 -0.1243 -0.0744
 2331TIP3   OH228483   1.721   0.150  11.979  0.4208  0.4013  0.0955
 2331TIP3    H128484   1.682   0.107  12.055 -0.1910 -0.1210 -0.5045
 2331TIP3    H228485   1.781   0.085  11.942 -0.6810 -0.0440 -0.9488
 2332TIP3   OH228486   1.679   5.754   0.842 -0.0646  0.3086  0.2196
 2332TIP3    H128487   1.640   5.728   0.759 -0.0160  2.4377 -0.5107
 2332TIP3    H228488   1.622   5.713   0.908  0.3572 -2.0817 -0.7804
 2333TIP3   OH228489   2.319   1.765   3.004 -0.7340 -0.2124  0.2143
 2333TIP3    H128490   2.240   1.780   2.951  0.0933  1.6833 -0.5944
 2333TIP3    H228491   2.298   1.804   3.089 -1.2452 -1.2343  0.5774
 2334TIP3   OH228492   0.521   1.961   2.565  0.5537 -0.1660  0.1914
 2334TIP3    H128493   0.450   1.972   2.628  0.4185  0.6416 -0.0879
 2334TIP3    H228494   0.596   2.004   2.606  0.7747 -0.6598  0.3069
 2335TIP3   OH228495   2.699   5.111   3.141 -0.0804  0.0145 -0.0233
 2335TIP3    H128496   2.693   5.199   3.176 -0.8167 -0.3944  0.9115
 2335TIP3    H228497   2.669   5.054   3.212 -1.0160 -0.8842 -1.1014
 2336TIP3   OH228498   3.811   1.530  14.446  0.3718  0.9121 -0.0681
 2336TIP3    H128499   3.878   1.504  14.510 -0.9203  1.0097  1.3946
 2336TIP3    H228500   3.739   1.467  14.460 -0.3545  1.5733 -0.7095
 2337TIP3   OH228501   5.343   0.956  16.200  0.2179  0.1195 -0.3146
 2337TIP3    H128502   5.427   0.981  16.238 -0.2178 -0.4141  1.0710
 2337TIP3    H228503   5.288   1.034  16.208 -0.1554 -0.2617  1.0493
 2338TIP3   OH228504   0.746   2.130  14.620 -0.5678 -0.0575  0.2388
 2338TIP3    H128505   0.715   2.207  14.571 -1.2920  0.1223  0.9546
 2338TIP3    H228506   0.712   2.142  14.708  0.8345 -0.3190  0.8355
 2339TIP3   OH228507   2.385   0.272  12.917 -0.1762  0.1540 -0.5594
 2339TIP3    H128508   2.432   0.319  12.986 -0.7824 -0.5746  0.3739
 2339TIP3    H228509   2.293   0.294  12.931 -0.2200  0.8932 -1.8519
 2340TIP3   OH228510   0.244   4.763  12.330  0.0383  0.0942 -0.4102
 2340TIP3    H128511   0.199   4.847  12.336 -0.2088 -0.1275  1.4126
 2340TIP3    H228512   0.251   4.733  12.420  0.8843 -1.4533 -0.9510
 2341TIP3   OH228513   5.511   2.536  11.337 -0.2125 -0.1182  0.3453
 2341TIP3    H128514   5.517   2.543  11.242 -1.2217 -1.1175  0.1902
 2341TIP3    H228515   5.580   2.594  11.369  1.0028 -0.7549 -0.9973
 2342TIP3   OH228516   1.772   5.480   1.870  0.1685 -0.2253  0.7453
 2342TIP3    H128517   1.721   5.463   1.791  1.7208 -0.9368 -0.1792
 2342TIP3    H228518   1.714   5.458   1.942  0.0373 -4.0354 -0.2854
 2343TIP3   OH228519   6.755   5.932  15.991 -0.2775  0.3401 -0.2131
 2343TIP3    H128520   6.747   5.977  16.075  0.7809 -0.2072  0.2092
 2343TIP3    H228521   6.823   5.980  15.944 -1.0741  0.8232 -0.8899
 2344TIP3   OH228522   5.394   1.084   2.728 -0.5020  0.3346 -0.0699
 2344TIP3    H128523   5.387   1.148   2.657 -2.5595 -0.0289 -0.2735
 2344TIP3    H228524   5.308   1.085   2.769  0.0523 -0.8793  1.1929
 2345TIP3   OH228525   3.486   4.204  16.164 -0.5560  0.9463 -0.4767
 2345TIP3    H128526   3.455   4.114  16.157 -1.7424  1.2804  0.1560
 2345TIP3    H228527   3.533   4.220  16.083 -0.0106 -0.3603 -0.4382
 2346TIP3   OH228528   0.666   4.359   3.924 -0.6288  0.5914 -0.4945
 2346TIP3    H128529   0.599   4.297   3.897 -0.9638  0.5130  0.4758
 2346TIP3    H228530   0.739   4.305   3.953 -0.9874  0.6205  0.5204
 2347TIP3   OH228531   6.269   5.111  11.291 -0.3100  0.4754 -0.4309
 2347TIP3    H128532   6.346   5.163  11.267 -0.6842  0.8605 -0.8131
 2347TIP3    H228533   6.212   5.173  11.336  1.1912 -0.6089  3.3606
 2348TIP3   OH228534   4.790   2.069  15.156 -0.1483  0.5760 -0.2211
 2348TIP3    H128535   4.778   1.986  15.202 -0.5306  0.4458 -0.5557
 2348TIP3    H228536   4.880   2.095  15.178 -0.9340  1.5374  2.2483
 2349TIP3   OH228537   5.737   1.499   6.452  0.1378 -0.6109  0.3189
 2349TIP3    H128538   5.799   1.536   6.515 -0.7623  1.5694  0.0013
 2349TIP3    H228539   5.694   1.428   6.501  2.3375 -1.7378  0.7493
 2350TIP3   OH228540   1.394   2.356  16.885  0.5151  0.5025 -0.1764
 2350TIP3    H128541   1.405   2.263  16.866 -0.3213  0.1436  0.9858
 2350TIP3    H228542   1.314   2.361  16.937  0.9585  1.7883  0.4242
 2351TIP3   OH228543   3.858   3.532   3.993  0.4921 -0.1744 -0.2518
 2351TIP3    H128544   3.897   3.495   3.914 -0.3308  0.9760 -1.2208
 2351TIP3    H228545   3.795   3.465   4.022  1.5636 -1.0734  0.0810
 2352TIP3   OH228546   5.766   0.843  16.708 -0.1135 -0.2371 -0.0952
 2352TIP3    H128547   5.759   0.933  16.743  1.9076  0.1433 -0.5496
 2352TIP3    H228548   5.745   0.787  16.783  0.1469  0.6169  0.6397
 2353TIP3   OH228549   5.724   5.398   6.108 -0.1884  0.1526  0.2626
 2353TIP3    H128550   5.656   5.465   6.115 -0.6561 -0.1839 -0.8717
 2353TIP3    H228551   5.734   5.383   6.014  2.7686  1.5341  0.2228
 2354TIP3   OH228552   5.178   1.630  13.597 -0.6624  0.0517  0.2126
 2354TIP3    H128553   5.154   1.545  13.562  0.2449  0.1782 -0.7893
 2354TIP3    H228554   5.098   1.682  13.593 -2.0048 -1.5075  3.4580
 2355TIP3   OH228555   4.908   0.214  14.891 -0.2221  0.0950 -0.1531
 2355TIP3    H128556   4.957   0.266  14.955 -0.4667 -1.6919  1.6230
 2355TIP3    H228557   4.912   0.264  14.810 -0.5404  2.8592  1.4361
 2356TIP3   OH228558   2.832   0.211  10.705  0.1475 -0.0120  0.0350
 2356TIP3    H128559   2.839   0.277  10.635  0.3718 -0.9863 -0.8865
 2356TIP3    H228560   2.879   0.250  10.779  1.3451  0.3745 -0.8839
 2357TIP3   OH228561   2.140   6.767  16.094  0.0150  1.0561  0.9769
 2357TIP3    H128562   2.060   6.735  16.053  0.2982  1.5959 -0.0505
 2357TIP3    H228563   2.167   6.696  16.152 -0.3342  0.1776  0.0997
 2358TIP3   OH228564   2.420   5.322  11.363  0.6222 -0.4886 -0.5667
 2358TIP3    H128565   2.377   5.387  11.308  1.2609  1.4733  1.1071
 2358TIP3    H228566   2.352   5.291  11.422  0.6440 -0.1735 -0.3711
 2359TIP3   OH228567   6.642   6.678  13.960 -0.0982 -0.3924 -0.0697
 2359TIP3    H128568   6.629   6.728  14.041 -0.5153 -0.4595 -0.0938
 2359TIP3    H228569   6.610   6.735  13.891 -1.0574 -0.8757 -0.0509
 2360TIP3   OH228570   1.455   2.804   3.250 -0.0334  0.1394 -0.6237
 2360TIP3    H128571   1.418   2.840   3.169 -3.6488 -0.9208  0.3439
 2360TIP3    H228572   1.423   2.713   3.252  1.2962 -0.3530  1.2566
 2361TIP3   OH228573   0.876   1.052   4.992 -0.1175 -0.0488 -0.0418
 2361TIP3    H128574   0.963   1.093   4.998  0.2203 -0.9207  1.6864
 2361TIP3    H228575   0.893   0.958   4.999 -0.9927 -0.4941 -2.6387
 2362TIP3   OH228576   2.623   1.474  16.375 -0.6465  0.1774  0.4726
 2362TIP3    H128577   2.696   1.439  16.426  0.8316  2.9214  0.4386
 2362TIP3    H228578   2.546   1.457  16.429  0.3863 -0.2893  1.8567
 2363TIP3   OH228579   4.794   1.515   0.328 -0.1273  0.7027 -0.0581
 2363TIP3    H128580   4.777   1.454   0.399  0.3667 -1.5086 -1.7433
 2363TIP3    H228581   4.819   1.460   0.254  1.9104  3.0140 -1.2530
 2364TIP3   OH228582   2.665   1.145   3.392 -0.6188 -0.3291 -0.0276
 2364TIP3    H128583   2.619   1.106   3.466 -0.9497 -0.4160 -0.2781
 2364TIP3    H228584   2.752   1.106   3.395  0.9698  2.8683  2.9833
 2365TIP3   OH228585   4.884   5.239   3.160  0.8101  0.0491  0.1268
 2365TIP3    H128586   4.953   5.205   3.217  0.2067 -0.4880  0.5491
 2365TIP3    H228587   4.840   5.161   3.126  0.0373  0.3929  0.3243
 2366TIP3   OH228588   3.717   0.091   2.422  0.1048  0.1270 -0.0233
 2366TIP3    H128589   3.793   0.125   2.469 -0.5497 -1.2583  2.2003
 2366TIP3    H228590   3.649   0.156   2.437  0.6023  1.0168 -1.4179
 2367TIP3   OH228591   2.624   0.659  12.369  0.5388 -0.7624 -0.2600
 2367TIP3    H128592   2.632   0.596  12.441  1.7103 -1.4367 -0.9456
 2367TIP3    H228593   2.651   0.610  12.291 -1.3811 -0.2621 -1.3068
 2368TIP3   OH228594   2.374   1.368   1.636  0.2240  0.5071 -0.1962
 2368TIP3    H128595   2.338   1.454   1.611 -0.6341  0.0812 -0.4471
 2368TIP3    H228596   2.302   1.307   1.623  0.9955 -0.3461 -0.5488
 2369TIP3   OH228597   1.278   5.432  10.588 -0.4883 -0.1775  0.7964
 2369TIP3    H128598   1.244   5.343  10.576  1.9975 -1.1508  0.2651
 2369TIP3    H228599   1.296   5.438  10.682 -0.5615 -0.2758  0.8170
 2370TIP3   OH228600   1.600   4.574   5.223 -0.0047 -0.1971  0.0997
 2370TIP3    H128601   1.688   4.560   5.257 -0.2747 -0.3842  0.7525
 2370TIP3    H228602   1.552   4.495   5.249 -0.1706 -0.4534 -0.9330
 2371TIP3   OH228603   0.269   4.029  12.833 -1.1413 -0.3814  0.0976
 2371TIP3    H128604   0.340   3.971  12.858 -0.6586  0.0919 -0.1625
 2371TIP3    H228605   0.213   4.033  12.911 -0.1229  0.3776  0.8125
 2372TIP3   OH228606   5.839   3.078   3.623 -0.6061 -0.2880 -0.2240
 2372TIP3    H128607   5.823   3.163   3.581 -1.1599 -0.8575 -1.1764
 2372TIP3    H228608   5.855   3.100   3.715 -2.7296  0.7011 -0.0293
 2373TIP3   OH228609   1.858   6.106  14.509  0.5380  0.1917 -0.1834
 2373TIP3    H128610   1.953   6.095  14.516  0.4745 -0.9914 -0.8862
 2373TIP3    H228611   1.835   6.163  14.582  1.6955 -0.1057  0.4386
 2374TIP3   OH228612   0.050   0.462   3.108 -0.5731 -0.5880  0.0580
 2374TIP3    H128613   0.008   0.542   3.078 -0.4538 -0.2985  0.6360
 2374TIP3    H228614   0.009   0.444   3.193 -1.5600 -1.8884 -0.6469
 2375TIP3   OH228615   1.798   2.901   2.228  0.4690 -0.1791  0.1222
 2375TIP3    H128616   1.778   2.814   2.193 -1.6570 -0.4510  1.7805
 2375TIP3    H228617   1.752   2.961   2.169  1.6738 -0.1842 -0.8399
 2376TIP3   OH228618   2.547   1.945   0.061 -0.0525  0.3105 -0.2889
 2376TIP3    H128619   2.621   1.893   0.030  0.2691  0.8065 -0.3772
 2376TIP3    H228620   2.497   1.886   0.116  0.6455  0.0838  0.1136
 2377TIP3   OH228621   0.766   6.215  13.009  0.0522 -0.3211 -0.0749
 2377TIP3    H128622   0.755   6.239  12.917 -0.4307  0.0254  0.0710
 2377TIP3    H228623   0.858   6.189  13.016  0.9642  2.6151  0.0085
 2378TIP3   OH228624   4.206   2.726  15.180 -0.0062  0.1533  0.1881
 2378TIP3    H128625   4.295   2.698  15.203 -0.1458 -0.2304  0.2733
 2378TIP3    H228626   4.218   2.796  15.116  0.3435 -0.5475 -0.5299
 2379TIP3   OH228627   1.199   4.012  17.186 -0.5412  1.1339  0.1220
 2379TIP3    H128628   1.202   4.035  17.093  3.8297 -0.2191 -0.3345
 2379TIP3    H228629   1.170   3.920  17.187  1.1439  0.5501 -0.2200
 2380TIP3   OH228630   1.280   0.175  12.925  0.3245 -0.3101 -0.1218
 2380TIP3    H128631   1.275   0.115  12.850 -0.1435 -0.0029 -0.3414
 2380TIP3    H228632   1.274   0.118  13.001  0.0806 -0.5655 -0.3295
 2381TIP3   OH228633   5.306   4.223   1.406 -0.2367  0.3918 -0.1307
 2381TIP3    H128634   5.319   4.318   1.411 -4.3426  1.2255 -1.8632
 2381TIP3    H228635   5.329   4.200   1.316 -3.2687  0.6796 -1.0869
 2382TIP3   OH228636   5.447   4.727   1.225  0.4394  0.0766  0.1267
 2382TIP3    H128637   5.406   4.805   1.188 -1.2814 -0.8029  0.0896
 2382TIP3    H228638   5.541   4.744   1.218  0.1122  2.1655  0.2008
 2383TIP3   OH228639   1.984   1.375   6.006 -0.3304  0.0535 -0.7278
 2383TIP3    H128640   2.000   1.293   6.052  1.9956  1.6296  1.5285
 2383TIP3    H228641   2.071   1.404   5.978 -1.2499  1.1519 -2.6593
 2384TIP3   OH228642   0.683   5.696   2.234 -0.6957 -0.4919 -0.8134
 2384TIP3    H128643   0.708   5.784   2.261 -1.9715 -0.4965  0.5522
 2384TIP3    H228644   0.762   5.644   2.244 -0.2162  0.2719 -0.5331
 2385TIP3   OH228645   3.373   5.360  12.228  0.1256 -0.1322  0.4871
 2385TIP3    H128646   3.331   5.385  12.310 -0.0173  1.9388 -0.1689
 2385TIP3    H228647   3.439   5.296  12.253  1.2103  1.6426  2.4519
 2386TIP3   OH228648   4.961   3.069  10.787  0.5662 -0.4316 -0.4231
 2386TIP3    H128649   5.018   3.111  10.851 -0.9212 -0.9267  1.3339
 2386TIP3    H228650   4.959   3.130  10.713  2.2158  0.2508  0.0460
 2387TIP3   OH228651   6.443   1.469  13.822 -0.1115  0.1517  0.1370
 2387TIP3    H128652   6.364   1.487  13.873  0.3783  0.6799  0.7178
 2387TIP3    H228653   6.516   1.493  13.880  0.4907 -0.6661 -0.2600
 2388TIP3   OH228654   4.856   5.001   3.014  0.2678  0.1798  0.0077
 2388TIP3    H128655   4.825   4.944   3.084  1.1426 -0.0074  0.2464
 2388TIP3    H228656   4.863   4.944   2.937  1.0959 -0.0291  0.2345
 2389TIP3   OH228657   0.001   5.517  14.581  0.2988 -0.9943 -0.2533
 2389TIP3    H128658  -0.026   5.602  14.614 -0.0102 -0.9789 -0.5420
 2389TIP3    H228659  -0.010   5.524  14.486  2.2172 -0.6500 -0.5069
 2390TIP3   OH228660   5.098   4.037  15.077  0.5933  0.2237  0.2685
 2390TIP3    H128661   5.095   4.096  15.001 -0.7463 -0.4459 -0.2358
 2390TIP3    H228662   5.160   3.968  15.052  0.0152 -0.0961 -0.3159
 2391TIP3   OH228663   0.905   4.734  13.980 -0.1948 -0.0471  0.0447
 2391TIP3    H128664   0.818   4.694  13.988 -0.0640 -0.0685  1.7664
 2391TIP3    H228665   0.890   4.827  14.000 -0.2970  0.6353 -2.7560
 2392TIP3   OH228666   5.064   0.865   0.518 -0.2879 -0.0501 -0.0317
 2392TIP3    H128667   5.126   0.934   0.544 -0.3553  0.8862 -2.1411
 2392TIP3    H228668   5.118   0.788   0.503 -0.0011 -0.0158  0.7935
 2393TIP3   OH228669   6.213   3.149  12.716  0.8556 -0.1866 -0.0620
 2393TIP3    H128670   6.134   3.187  12.679 -1.1329 -1.0846  2.9373
 2393TIP3    H228671   6.222   3.190  12.802  2.0180 -2.1357  0.8238
 2394TIP3   OH228672   5.386   6.790   0.314  0.3711  0.2568 -0.1837
 2394TIP3    H128673   5.332   6.736   0.255  0.5102  0.6031 -0.6300
 2394TIP3    H228674   5.357   6.764   0.401 -0.5040  0.4152 -0.4119
 2395TIP3   OH228675   0.274   3.365  14.510  0.4409 -0.2881  0.0336
 2395TIP3    H128676   0.337   3.396  14.575  0.6627 -0.3132 -0.1682
 2395TIP3    H228677   0.222   3.443  14.488  1.4137  0.1141 -0.9447
 2396TIP3   OH228678   4.516   5.107  11.093  0.1181  0.6534 -0.4953
 2396TIP3    H128679   4.463   5.143  11.021 -0.9158 -0.2394 -0.2184
 2396TIP3    H228680   4.476   5.142  11.172 -1.2662 -1.4426 -0.1877
 2397TIP3   OH228681   0.021   2.880   2.563 -0.8194 -0.1405  0.4576
 2397TIP3    H128682   0.087   2.817   2.591 -1.6199 -1.2475 -0.0406
 2397TIP3    H228683  -0.027   2.835   2.493 -0.8056  1.3854 -0.5852
 2398TIP3   OH228684   2.152   2.530   3.486  0.0955 -0.5861  0.1383
 2398TIP3    H128685   2.166   2.450   3.537 -0.1585 -0.4039  0.4998
 2398TIP3    H228686   2.057   2.540   3.483  0.1317  0.4468  1.2921
 2399TIP3   OH228687   2.794   3.159  13.542  0.5633  0.3759  0.1355
 2399TIP3    H128688   2.874   3.184  13.495  0.4891 -0.5468 -0.5000
 2399TIP3    H228689   2.767   3.077  13.502  0.1814 -0.1555  1.4329
 2400TIP3   OH228690   0.823   0.095   1.359 -0.0035 -0.2705 -0.3217
 2400TIP3    H128691   0.902   0.118   1.407  0.2896 -0.7489 -0.5725
 2400TIP3    H228692   0.817   0.000   1.366 -1.2846 -0.1359  0.8269
 2401TIP3   OH228693   4.404   6.398  16.028  0.1687 -0.0155  0.4488
 2401TIP3    H128694   4.461   6.439  16.093  2.3459 -1.9946 -0.1048
 2401TIP3    H228695   4.365   6.472  15.980  1.9250  1.4249  1.1325
 2402TIP3   OH228696   6.046   5.230  12.739  0.2915  0.0032 -0.1213
 2402TIP3    H128697   5.988   5.223  12.815 -3.0631  0.8070 -2.3682
 2402TIP3    H228698   6.064   5.139  12.714  2.8815 -0.3430  2.4195
 2403TIP3   OH228699   4.671   4.765   4.921 -0.5236  0.8600 -0.2718
 2403TIP3    H128700   4.748   4.820   4.913 -0.5777  1.3640  2.0341
 2403TIP3    H228701   4.603   4.823   4.956 -0.5649 -0.5968  2.3222
 2404TIP3   OH228702   3.647   4.640  14.837 -0.0913 -0.1968 -0.2142
 2404TIP3    H128703   3.568   4.674  14.880 -0.2553 -2.1967  1.2160
 2404TIP3    H228704   3.718   4.661  14.898  0.6776  2.0669 -1.7331
 2405TIP3   OH228705   3.150   4.018  13.518  0.6039  0.0486 -0.2322
 2405TIP3    H128706   3.072   3.971  13.547  0.7661 -1.8931 -2.6096
 2405TIP3    H228707   3.184   4.060  13.597 -1.8533 -0.4715  1.2029
 2406TIP3   OH228708   1.699   5.380   2.315  0.2200  0.0628 -0.6070
 2406TIP3    H128709   1.762   5.309   2.306  0.7415  0.4725 -0.1921
 2406TIP3    H228710   1.618   5.344   2.277  0.9133 -0.1657 -1.9465
 2407TIP3   OH228711   4.648   3.601  13.843  0.2448  0.4589  0.4115
 2407TIP3    H128712   4.675   3.510  13.850 -1.3734 -0.3122 -1.9612
 2407TIP3    H228713   4.725   3.647  13.809  1.3825  0.2308  2.5431
 2408TIP3   OH228714   3.171   0.599   0.145 -0.5375  0.1289  0.3537
 2408TIP3    H128715   3.154   0.595   0.051 -2.8431  1.2125  0.6652
 2408TIP3    H228716   3.120   0.527   0.182 -1.0588  0.7929  0.9381
 2409TIP3   OH228717   6.056   4.363  13.183  0.1337  0.0060  0.4742
 2409TIP3    H128718   6.140   4.354  13.228 -0.1231  0.4128  1.0465
 2409TIP3    H228719   6.010   4.281  13.202  0.7515 -0.6266 -0.6221
 2410TIP3   OH228720   0.614   3.291  12.124  0.6387  0.2748 -0.0273
 2410TIP3    H128721   0.581   3.337  12.047  0.1623  1.8095  1.0622
 2410TIP3    H228722   0.597   3.198  12.105  0.0302  0.6562 -1.5174
 2411TIP3   OH228723   4.772   5.098  11.409 -0.3241  0.5659  0.3765
 2411TIP3    H128724   4.683   5.105  11.443 -0.7923  3.5562 -1.1497
 2411TIP3    H228725   4.772   5.151  11.329  2.5502 -0.2926 -0.3324
 2412TIP3   OH228726   1.259   6.253  16.992  0.0135 -0.1405  0.5125
 2412TIP3    H128727   1.276   6.333  17.042 -0.3704 -0.1804  0.7107
 2412TIP3    H228728   1.276   6.278  16.901  0.0648  0.1190  0.5924
 2413TIP3   OH228729   5.807   3.844  15.439 -0.0302  0.0629 -0.0015
 2413TIP3    H128730   5.728   3.793  15.421  0.4261 -0.9483  0.7993
 2413TIP3    H228731   5.854   3.845  15.355 -0.1367 -0.6719 -0.0797
 2414TIP3   OH228732   3.834   5.328   0.741 -0.0044 -0.1483 -0.2531
 2414TIP3    H128733   3.846   5.277   0.661  0.4548 -0.0557 -0.2452
 2414TIP3    H228734   3.768   5.280   0.790 -0.1263 -0.3257 -0.5863
 2415TIP3   OH228735   0.308   5.236  14.403 -0.7199 -0.8979  0.6862
 2415TIP3    H128736   0.258   5.269  14.477  1.1986 -2.0014  2.5817
 2415TIP3    H228737   0.372   5.305  14.384 -1.3439 -0.5250 -0.1269
 2416TIP3   OH228738   1.536   4.149  15.589  0.2174 -0.1822 -0.0653
 2416TIP3    H128739   1.579   4.132  15.505 -1.5414 -0.0991 -1.0386
 2416TIP3    H228740   1.607   4.175  15.647  1.4304  0.2390 -1.6485
 2417TIP3   OH228741   1.542   2.091  12.647 -0.3512  0.4459 -0.0374
 2417TIP3    H128742   1.475   2.047  12.594 -1.9447  2.5191  0.1284
 2417TIP3    H228743   1.611   2.025  12.658 -2.0754 -1.5983 -0.7237
 2418TIP3   OH228744   4.192   1.059   3.146 -0.5373 -0.2745  0.0305
 2418TIP3    H128745   4.272   1.006   3.146 -1.0127 -1.0449 -1.4698
 2418TIP3    H228746   4.218   1.141   3.103 -0.2723 -0.0486  0.6152
 2419TIP3   OH228747   6.321   4.560   4.528  0.4854  0.1979  0.4075
 2419TIP3    H128748   6.282   4.506   4.597  0.9006 -0.1092  0.4009
 2419TIP3    H228749   6.310   4.650   4.559  2.1051  0.0177  1.6528
 2420TIP3   OH228750   0.871   5.516   1.541  0.7270 -0.0552 -0.0916
 2420TIP3    H128751   0.822   5.506   1.623  0.4691  0.4199 -0.1781
 2420TIP3    H228752   0.911   5.603   1.548 -0.3481  0.5476 -0.9931
 2421TIP3   OH228753   5.600   4.119  16.825  0.2236 -0.0066 -0.2962
 2421TIP3    H128754   5.615   4.116  16.920  1.1754  1.7805 -0.3536
 2421TIP3    H228755   5.622   4.031  16.795 -0.2864 -0.6620  1.1594
 2422TIP3   OH228756   1.850   4.751  14.537  0.1369  0.7109 -0.9927
 2422TIP3    H128757   1.907   4.710  14.472 -0.1182  0.0286 -0.7972
 2422TIP3    H228758   1.787   4.683  14.560 -0.2920  1.2149 -0.6468
 2423TIP3   OH228759   1.063   2.553  14.270 -0.0299  0.0919 -0.7185
 2423TIP3    H128760   1.126   2.623  14.287 -1.3233  0.9599  0.7703
 2423TIP3    H228761   1.007   2.587  14.200 -1.7510  1.3888  1.1715
 2424TIP3   OH228762   6.123   6.402  13.916  0.6215 -0.4902  0.2829
 2424TIP3    H128763   6.216   6.423  13.915  1.1004 -2.1876  2.5902
 2424TIP3    H228764   6.116   6.319  13.869  0.0928  0.1453 -0.7904
 2425TIP3   OH228765   2.757   6.060   2.473  0.6830  0.0813 -0.5274
 2425TIP3    H128766   2.841   6.085   2.511  0.2184  1.1374 -0.1542
 2425TIP3    H228767   2.779   6.016   2.391  1.6721 -1.3046  0.4336
 2426TIP3   OH228768   5.226   3.328   3.172  0.1403 -0.4422  0.1887
 2426TIP3    H128769   5.244   3.397   3.236 -1.9584  1.6345 -1.2935
 2426TIP3    H228770   5.137   3.298   3.192  1.1533 -3.1653  1.0807
 2427TIP3   OH228771   2.651   4.588   3.445  0.4003 -0.4341  0.2604
 2427TIP3    H128772   2.649   4.539   3.362  2.0167  0.7322 -0.5122
 2427TIP3    H228773   2.560   4.615   3.458  0.4232  1.2379 -2.3311
 2428TIP3   OH228774   3.603   4.361   1.002  0.2432  0.1474  0.1786
 2428TIP3    H128775   3.553   4.290   0.962 -0.1624  0.6405 -0.1901
 2428TIP3    H228776   3.604   4.338   1.096  1.5592 -1.2305 -0.1300
 2429TIP3   OH228777   4.780   5.171   5.916 -0.6013  0.3617  0.4064
 2429TIP3    H128778   4.826   5.155   5.833  0.9344  0.5291  1.2004
 2429TIP3    H228779   4.699   5.119   5.908  1.6420 -3.6332  0.6776
 2430TIP3   OH228780   3.639   0.206   4.963 -0.0302 -0.7148  0.1882
 2430TIP3    H128781   3.691   0.267   4.912 -1.0101 -0.3055 -0.3338
 2430TIP3    H228782   3.693   0.127   4.968  0.7318 -0.2273 -0.1382
 2431TIP3   OH228783   4.368   3.555   4.984 -0.2415 -0.1922  0.0939
 2431TIP3    H128784   4.408   3.480   5.029  3.1446  0.5985 -1.2995
 2431TIP3    H228785   4.380   3.628   5.045 -0.5204 -0.1273  0.0739
 2432TIP3   OH228786   6.275   2.917  11.771  0.1920 -0.5696  0.4252
 2432TIP3    H128787   6.188   2.879  11.764 -0.1219  0.1016  0.6771
 2432TIP3    H228788   6.317   2.895  11.687  0.1640 -1.7924  0.7051
 2433TIP3   OH228789   3.582   4.529  11.629  0.0859 -0.2619 -0.7334
 2433TIP3    H128790   3.567   4.560  11.540 -1.3000  1.4126  0.0217
 2433TIP3    H228791   3.623   4.604  11.673  0.1857 -0.8501  0.1928
 2434TIP3   OH228792   3.348   1.057   2.563 -0.1633  0.1642  0.0948
 2434TIP3    H128793   3.391   1.142   2.571  1.3171 -0.4556 -0.9889
 2434TIP3    H228794   3.258   1.073   2.593  0.7832  1.4583  2.5394
 2435TIP3   OH228795   3.425   6.677   3.279 -0.5943 -0.1575  0.1288
 2435TIP3    H128796   3.388   6.714   3.199 -0.6284 -1.8573 -0.6849
 2435TIP3    H228797   3.459   6.591   3.252 -0.1462 -0.5445  1.8240
 2436TIP3   OH228798   2.789   4.763   2.538  0.1886 -0.0016  0.0698
 2436TIP3    H128799   2.796   4.669   2.557  0.5455  0.1506  0.7594
 2436TIP3    H228800   2.722   4.769   2.471 -0.2023 -0.7138  0.3765
 2437TIP3   OH228801   6.233   3.991   0.048 -0.2167  0.2103 -0.1385
 2437TIP3    H128802   6.243   4.023  -0.041 -1.3141 -1.1759 -0.7959
 2437TIP3    H228803   6.307   3.932   0.061 -0.5766 -0.3223 -0.4827
 2438TIP3   OH228804   5.527   3.138  13.716 -0.6156 -0.4182  0.3454
 2438TIP3    H128805   5.553   3.181  13.798  0.6255 -0.6263  0.0883
 2438TIP3    H228806   5.598   3.077  13.698 -1.0277 -0.5985 -0.7344
 2439TIP3   OH228807   1.669   4.630  11.282 -0.2216 -0.4588  0.3885
 2439TIP3    H128808   1.752   4.652  11.323  0.7970 -1.0784 -1.2566
 2439TIP3    H228809   1.673   4.668  11.195 -0.4333 -2.8354 -0.7528
 2440TIP3   OH228810   5.033   0.081   0.282 -0.0196 -0.2922  0.3285
 2440TIP3    H128811   5.083   0.078   0.364  0.1516 -1.5782  0.2089
 2440TIP3    H228812   5.078   0.145   0.228  0.9716 -0.7627  0.5732
 2441TIP3   OH228813   0.230   3.129  15.229  0.5459  0.3450 -0.0448
 2441TIP3    H128814   0.195   3.155  15.144 -0.6875 -0.5985  0.1485
 2441TIP3    H228815   0.221   3.207  15.284 -0.2364  0.4539 -0.3162
 2442TIP3   OH228816   1.316   5.251  12.524 -0.0562 -0.5859  0.3376
 2442TIP3    H128817   1.334   5.331  12.574  0.9959  0.4790 -1.6252
 2442TIP3    H228818   1.400   5.205  12.521 -0.2232 -0.8729 -0.0229
 2443TIP3   OH228819   0.237   2.020  12.670  0.2467 -0.0050  0.4093
 2443TIP3    H128820   0.222   1.947  12.609 -1.4112 -1.0637  1.9789
 2443TIP3    H228821   0.171   2.085  12.646 -0.4973 -0.4793  1.0811
 2444TIP3   OH228822   4.367   2.782   3.774 -0.1538  0.5584 -0.4353
 2444TIP3    H128823   4.452   2.774   3.730  0.9093 -0.0900  1.6400
 2444TIP3    H228824   4.319   2.845   3.720  1.5583  0.8178 -1.7645
 2445TIP3   OH228825   1.660   3.370  14.887  0.3299 -0.2403  0.8317
 2445TIP3    H128826   1.618   3.327  14.812 -3.1451  2.4003  0.9788
 2445TIP3    H228827   1.750   3.383  14.860 -0.0998 -1.8258 -1.7439
 2446TIP3   OH228828   2.674   1.641  13.384 -0.4532 -0.0882 -0.1954
 2446TIP3    H128829   2.733   1.656  13.459  0.0082 -0.4158 -0.4824
 2446TIP3    H228830   2.602   1.591  13.421 -0.2397 -0.2296  0.0419
 2447TIP3   OH228831   2.555   6.181  11.709 -0.2168  0.1010 -0.0470
 2447TIP3    H128832   2.461   6.169  11.723  0.2942 -0.9529  3.4587
 2447TIP3    H228833   2.579   6.252  11.768  1.6914 -2.0656  1.9873
 2448TIP3   OH228834   4.653   1.174  11.847 -0.2816  0.4293 -0.0252
 2448TIP3    H128835   4.630   1.254  11.800  0.8773  0.8149  0.0275
 2448TIP3    H228836   4.720   1.132  11.793  0.3427  0.3710  0.7711
 2449TIP3   OH228837   2.958   2.076  10.684  0.0694  0.2585 -0.5815
 2449TIP3    H128838   2.884   2.050  10.737  0.1949  1.0486  0.0064
 2449TIP3    H228839   2.967   2.007  10.618 -0.3461 -0.5219  0.1656
 2450TIP3   OH228840   2.721   2.341  14.468  0.1524  0.3489  0.1366
 2450TIP3    H128841   2.695   2.325  14.378 -1.1467 -0.3031  0.5918
 2450TIP3    H228842   2.655   2.402  14.502  0.7369  0.7388  0.5897
 2451TIP3   OH228843   0.812   3.301   0.330 -0.4075 -0.1415 -0.2559
 2451TIP3    H128844   0.823   3.222   0.277  0.5182  0.3221 -0.7919
 2451TIP3    H228845   0.894   3.350   0.317 -0.9158  0.8507  0.1545
 2452TIP3   OH228846   3.156   5.907   0.636 -0.4175 -0.6622  0.2177
 2452TIP3    H128847   3.126   5.971   0.701  1.3194 -0.9537  1.3659
 2452TIP3    H228848   3.154   5.824   0.682  1.7702 -0.7310  0.2562
 2453TIP3   OH228849   2.402   4.511  12.393  0.2342 -0.1715  0.0085
 2453TIP3    H128850   2.407   4.561  12.312  0.3655  1.3452  0.9052
 2453TIP3    H228851   2.394   4.578  12.461 -1.1844 -1.4276  1.1521
 2454TIP3   OH228852   5.536   0.001   0.968 -0.8822 -0.4240 -0.1409
 2454TIP3    H128853   5.592   0.077   0.982 -2.5185  0.5515  1.5386
 2454TIP3    H228854   5.585  -0.072   1.006 -0.1723  0.1527  0.0883
 2455TIP3   OH228855   5.824   3.404   6.515  0.5488 -0.1479  0.0538
 2455TIP3    H128856   5.776   3.322   6.498  0.8664 -0.0616 -1.3810
 2455TIP3    H228857   5.911   3.375   6.542  0.5348 -0.2889 -0.0502
 2456TIP3   OH228858   5.620   2.092  14.769 -0.1316  0.1833 -0.0842
 2456TIP3    H128859   5.652   2.043  14.694 -0.2915 -0.0751  0.0149
 2456TIP3    H228860   5.526   2.098  14.756 -0.5574 -2.0501  1.3250
 2457TIP3   OH228861   1.721   1.014  15.221 -0.2978 -0.4483 -0.0725
 2457TIP3    H128862   1.754   1.049  15.139 -0.0012 -2.9206 -1.1058
 2457TIP3    H228863   1.782   0.943  15.243 -2.6316 -2.5625  0.0254
 2458TIP3   OH228864   3.102   0.277  14.281 -0.2885 -0.6415  0.5655
 2458TIP3    H128865   3.015   0.272  14.241  0.6051  0.8933 -1.7624
 2458TIP3    H228866   3.162   0.245  14.214  1.2376  1.2968  0.9112
 2459TIP3   OH228867   3.458   5.496  16.088  0.2475  0.0937 -0.4347
 2459TIP3    H128868   3.427   5.406  16.080  1.5791 -0.3101 -1.2572
 2459TIP3    H228869   3.495   5.500  16.176  1.1879 -0.5007 -0.7894
 2460TIP3   OH228870   4.093   6.649  14.566  0.3617  0.5071  0.1989
 2460TIP3    H128871   4.034   6.606  14.627  0.8999 -0.0910  0.3062
 2460TIP3    H228872   4.053   6.636  14.480  1.1044 -1.2841  0.0719
 2461TIP3   OH228873   6.688   0.181   3.155  0.7193 -0.4737  0.3327
 2461TIP3    H128874   6.697   0.121   3.080 -1.7193 -1.4482  0.7231
 2461TIP3    H228875   6.749   0.146   3.220  0.2738 -1.7738  0.0813
 2462TIP3   OH228876   3.884   5.150   5.118 -0.4477  0.1127  0.2937
 2462TIP3    H128877   3.946   5.122   5.051  2.3589  1.4284  2.1085
 2462TIP3    H228878   3.838   5.225   5.080 -1.3358 -1.1504 -1.2464
 2463TIP3   OH228879   0.912   0.493   0.332  0.0513 -0.7022 -0.2092
 2463TIP3    H128880   0.914   0.414   0.277 -1.0344  0.6521 -2.3369
 2463TIP3    H228881   0.863   0.467   0.410 -1.6372 -1.7726 -1.5629
 2464TIP3   OH228882   4.218   2.960   0.949 -0.3331 -0.0351 -0.1116
 2464TIP3    H128883   4.164   2.951   1.028 -1.0333 -0.9753 -0.6813
 2464TIP3    H228884   4.278   3.032   0.970  0.2908 -1.0184  1.7366
 2465TIP3   OH228885   4.245   3.403   4.735  0.0280 -0.3218 -0.1726
 2465TIP3    H128886   4.300   3.451   4.673  0.4452  0.5981  0.8622
 2465TIP3    H228887   4.186   3.470   4.770 -0.1592 -0.8020  0.4481
 2466TIP3   OH228888   5.413   6.580   4.161  0.1431  0.6336  0.4124
 2466TIP3    H128889   5.414   6.570   4.256  1.3293 -0.2908  0.3171
 2466TIP3    H228890   5.409   6.491   4.127 -2.3116  0.9908 -0.4327
 2467TIP3   OH228891   1.028   6.628  14.382  0.2341  0.4376  0.4147
 2467TIP3    H128892   0.935   6.649  14.396 -0.1088 -0.5949 -0.1671
 2467TIP3    H228893   1.066   6.626  14.469 -1.1945 -3.0197  1.1352
 2468TIP3   OH228894   4.757   3.025   6.270  0.2492  0.7561 -0.4151
 2468TIP3    H128895   4.724   2.936   6.256 -0.5044  0.7180  1.3800
 2468TIP3    H228896   4.688   3.082   6.235 -0.6715  0.6382  1.1127
 2469TIP3   OH228897   1.712   0.978   1.818 -0.0908  0.9998  0.2407
 2469TIP3    H128898   1.735   1.071   1.818  1.0632  0.7660  2.2012
 2469TIP3    H228899   1.784   0.935   1.864 -1.4505 -0.6280  0.9686
 2470TIP3   OH228900   1.492   4.801  11.546 -0.1815  0.1041  0.0970
 2470TIP3    H128901   1.397   4.807  11.534 -0.1287 -1.5718 -1.6425
 2470TIP3    H228902   1.526   4.882  11.508 -0.8374 -0.0301 -0.8229
 2471TIP3   OH228903   6.439   1.176  13.944 -0.3674  0.0711  0.2740
 2471TIP3    H128904   6.518   1.221  13.914  0.2588  0.4815  2.3981
 2471TIP3    H228905   6.368   1.214  13.892  0.5330  1.3417 -0.0685
 2472TIP3   OH228906   1.704   5.380   3.501  0.1218  0.1709  0.1098
 2472TIP3    H128907   1.675   5.368   3.411  1.1668 -0.6792 -0.1281
 2472TIP3    H228908   1.795   5.408   3.494  0.1100  0.4477  0.9018
 2473TIP3   OH228909   1.768   5.369  10.527  0.1880 -0.1635 -0.2679
 2473TIP3    H128910   1.803   5.349  10.613  1.1001  0.6267 -0.4343
 2473TIP3    H228911   1.785   5.291  10.475 -2.3877 -1.5672  0.7952
 2474TIP3   OH228912   4.445   4.479  11.868 -0.2112 -0.1283 -0.6302
 2474TIP3    H128913   4.496   4.560  11.860 -0.4985 -0.1115 -2.7079
 2474TIP3    H228914   4.371   4.502  11.924  1.0818  0.3153  0.9755
 2475TIP3   OH228915   3.499   0.437   0.464  0.7278  0.1673  0.3690
 2475TIP3    H128916   3.573   0.403   0.515  2.1567  2.7360  0.1912
 2475TIP3    H228917   3.504   0.532   0.475 -1.3447  0.5473 -1.3360
 2476TIP3   OH228918   3.924   1.371  14.989 -0.0029  0.0064  0.2778
 2476TIP3    H128919   4.013   1.339  14.977  0.7337  2.2472 -0.8755
 2476TIP3    H228920   3.935   1.457  15.029 -1.7061  0.0005  0.8327
 2477TIP3   OH228921   3.397   0.984   2.008  0.1568  0.5604 -0.4009
 2477TIP3    H128922   3.450   1.015   2.082  0.2248  0.2454 -0.3146
 2477TIP3    H228923   3.342   0.915   2.045 -1.9208  2.3350  0.0219
 2478TIP3   OH228924   0.340   2.306  11.282 -0.3822 -0.2061 -0.0492
 2478TIP3    H128925   0.323   2.213  11.300  2.1251 -0.5871  0.7753
 2478TIP3    H228926   0.382   2.306  11.196 -0.5232  0.1748 -0.1156
 2479TIP3   OH228927   0.995   0.715   1.930  0.0586  0.8920 -0.0882
 2479TIP3    H128928   1.043   0.639   1.965 -3.0675 -0.5216  1.5235
 2479TIP3    H228929   1.018   0.787   1.988  0.1972  0.2412  0.6769
 2480TIP3   OH228930   1.185   4.406  15.181  0.2697  0.0074 -0.1029
 2480TIP3    H128931   1.195   4.316  15.149 -1.9897  0.3021 -1.8879
 2480TIP3    H228932   1.220   4.461  15.112 -2.0993  0.5678 -0.9476
 2481TIP3   OH228933   6.591   4.686  14.515  0.0551  0.1403 -0.5954
 2481TIP3    H128934   6.654   4.758  14.522 -0.7154  0.7810 -0.1209
 2481TIP3    H228935   6.586   4.669  14.421  0.9521  0.0546 -0.6408
 2482TIP3   OH228936   2.647   2.858   4.313 -0.4137 -0.3051 -0.1315
 2482TIP3    H128937   2.709   2.890   4.379 -0.5930  0.8835 -0.5071
 2482TIP3    H228938   2.592   2.796   4.359  0.0232 -0.1407  0.6205
 2483TIP3   OH228939   2.824   1.397  14.898  0.2558  0.1767 -0.3190
 2483TIP3    H128940   2.857   1.412  14.810  1.3792 -1.7406 -0.2747
 2483TIP3    H228941   2.809   1.485  14.933 -0.6728  0.9816 -2.5338
 2484TIP3   OH228942   4.429   0.316   0.123  0.6231 -0.0874  0.5615
 2484TIP3    H128943   4.406   0.276   0.207 -1.5496 -0.9426 -0.3630
 2484TIP3    H228944   4.441   0.242   0.063  1.0831  0.5297 -0.1342
 2485TIP3   OH228945   6.650   4.054  12.362 -0.6224  0.5988  0.3980
 2485TIP3    H128946   6.658   3.966  12.326 -1.0952 -0.0203  1.7481
 2485TIP3    H228947   6.557   4.075  12.355 -0.1388  2.2320 -2.6305
 2486TIP3   OH228948   0.156   3.141  16.201 -0.3019 -0.0853  0.4206
 2486TIP3    H128949   0.222   3.121  16.135  0.5467  0.0296  1.2185
 2486TIP3    H228950   0.080   3.172  16.151 -0.4031 -1.9075 -0.6230
 2487TIP3   OH228951   5.741   5.971  15.647 -0.1026  0.0306 -0.3153
 2487TIP3    H128952   5.768   5.880  15.632 -0.2699  0.0439 -0.7045
 2487TIP3    H228953   5.686   5.967  15.725  0.4823 -0.0934  0.0938
 2488TIP3   OH228954   4.547   6.532   4.127  0.6024  0.2182  0.3495
 2488TIP3    H128955   4.523   6.528   4.035 -0.8319 -0.8392  0.7369
 2488TIP3    H228956   4.477   6.582   4.168 -1.1669 -2.9004  1.4977
 2489TIP3   OH228957   2.754   4.536  16.217 -0.1173 -0.0642  0.1294
 2489TIP3    H128958   2.773   4.626  16.190  1.4601 -1.0211 -2.2334
 2489TIP3    H228959   2.695   4.502  16.150 -0.7581 -0.8226  1.0363
 2490TIP3   OH228960   2.319   4.723  15.483  0.8054  0.5882  0.0439
 2490TIP3    H128961   2.327   4.649  15.422  1.6281  0.9541 -0.3153
 2490TIP3    H228962   2.228   4.751  15.475  1.0881  1.1295 -1.6302
 2491TIP3   OH228963   0.333   1.828  16.651  0.2584 -0.2927 -0.1074
 2491TIP3    H128964   0.376   1.801  16.732  0.3419 -0.4741 -0.2125
 2491TIP3    H228965   0.246   1.858  16.679 -0.6142 -2.5361 -0.1759
 2492TIP3   OH228966   4.143   2.019   1.260  0.0014  0.0514 -0.2395
 2492TIP3    H128967   4.095   2.082   1.314  1.3768  0.8060  0.1457
 2492TIP3    H228968   4.180   2.070   1.189  0.1568 -0.5309 -0.5864
 2493TIP3   OH228969   5.137   4.984  11.368  0.2598  0.1342 -0.2060
 2493TIP3    H128970   5.169   5.064  11.327 -0.2840  0.4460 -0.0244
 2493TIP3    H228971   5.116   4.927  11.294 -1.4520  0.9794 -0.4250
 2494TIP3   OH228972   3.072   4.817  13.752  0.5602  0.3315 -0.8560
 2494TIP3    H128973   3.158   4.774  13.753  0.4752  0.1516  0.5778
 2494TIP3    H228974   3.022   4.768  13.687  1.0235 -0.6233 -0.5134
 2495TIP3   OH228975   4.281   1.628   2.060 -0.0570 -0.2331 -0.1075
 2495TIP3    H128976   4.355   1.600   2.006  0.4559  0.2277  0.3347
 2495TIP3    H228977   4.298   1.722   2.075  0.1675 -0.4933  1.3879
 2496TIP3   OH228978   6.750   2.450   5.606 -0.2681 -0.5536 -0.3569
 2496TIP3    H128979   6.707   2.488   5.529  2.9485  2.1409 -1.0209
 2496TIP3    H228980   6.750   2.519   5.671  1.4515 -1.0285  0.2122
 2497TIP3   OH228981   5.853   2.706  11.914  0.0154 -0.0505  0.1119
 2497TIP3    H128982   5.763   2.738  11.906  0.6073  1.4014 -1.1927
 2497TIP3    H228983   5.851   2.647  11.990 -1.6661  1.2071  1.1061
 2498TIP3   OH228984   6.206   1.216   4.087  0.4404  0.3378 -0.2292
 2498TIP3    H128985   6.265   1.180   4.153  0.0827  0.3769  0.1164
 2498TIP3    H228986   6.177   1.300   4.124 -1.1037 -0.4150  0.3693
 2499TIP3   OH228987   3.802   2.460  14.902 -0.0683 -0.2121  0.2485
 2499TIP3    H128988   3.805   2.390  14.967  1.5711 -1.9818 -1.6251
 2499TIP3    H228989   3.891   2.496  14.901 -0.4514  0.7604 -0.0486
 2500TIP3   OH228990   1.297   4.654  14.606  0.3688  0.3113  0.5279
 2500TIP3    H128991   1.213   4.680  14.567  0.6004 -2.0655 -1.8620
 2500TIP3    H228992   1.273   4.590  14.672  0.2447  0.4384  0.6074
 2501TIP3   OH228993   5.529   2.829  13.460  0.0531 -0.2737  0.3188
 2501TIP3    H128994   5.518   2.735  13.442 -0.1955 -0.0613 -0.6654
 2501TIP3    H228995   5.469   2.847  13.532  0.2329 -0.9052  0.6382
 2502TIP3   OH228996   4.618   0.479  15.447 -0.7462 -0.4543  0.2130
 2502TIP3    H128997   4.660   0.562  15.468  0.8777 -0.8838 -1.1249
 2502TIP3    H228998   4.588   0.489  15.357 -1.3671 -1.0022  0.3500
 2503TIP3   OH228999   6.487   2.514  13.334  0.4043 -0.6036  0.3790
 2503TIP3    H129000   6.537   2.439  13.364 -0.2433 -1.6321 -0.9879
 2503TIP3    H229001   6.395   2.486  13.344  0.0098  1.1742  2.7009
 2504TIP3   OH229002   6.001   0.301   1.827 -0.6196  0.3741  0.0560
 2504TIP3    H129003   6.061   0.277   1.757 -2.5972 -1.7207 -1.0702
 2504TIP3    H229004   5.951   0.374   1.793 -0.6534  0.2511 -0.1583
 2505TIP3   OH229005   0.679   6.757  10.493 -0.2514  0.3098 -0.1331
 2505TIP3    H129006   0.720   6.705  10.424 -0.8442  0.0979 -0.3336
 2505TIP3    H229007   0.600   6.708  10.516 -0.1596  0.4793  0.5610
 2506TIP3   OH229008   0.006   6.603   1.097 -0.1232 -0.3804 -0.3151
 2506TIP3    H129009  -0.042   6.524   1.119 -0.4618 -0.0493  0.1537
 2506TIP3    H229010  -0.048   6.646   1.030 -1.2885  0.7371  1.2496
 2507TIP3   OH229011   0.511   3.622   1.794 -0.0533 -0.2592  0.3440
 2507TIP3    H129012   0.536   3.529   1.789  0.3040 -0.1207 -0.6982
 2507TIP3    H229013   0.430   3.622   1.845  0.9355 -0.9341  1.9912
 2508TIP3   OH229014   2.381   4.657   1.455  0.1230 -0.5793  0.1490
 2508TIP3    H129015   2.414   4.714   1.525 -1.9380  0.5501  0.2913
 2508TIP3    H229016   2.447   4.663   1.386  0.0685  1.9632  0.2064
 2509TIP3   OH229017   2.241   0.175  17.163 -0.1664  0.1014  0.0924
 2509TIP3    H129018   2.160   0.217  17.133 -1.1758 -1.4066  0.6001
 2509TIP3    H229019   2.309   0.240  17.147 -1.6637  1.9527  0.8951
 2510TIP3   OH229020   2.532   3.973  13.336  0.0975 -0.2042  0.2544
 2510TIP3    H129021   2.474   3.929  13.274  1.0703 -2.1697  0.6710
 2510TIP3    H229022   2.473   4.020  13.395 -0.8892  0.6919 -1.3838
 2511TIP3   OH229023   0.086   0.738  15.198 -0.3218  0.0600  0.3324
 2511TIP3    H129024   0.126   0.733  15.111 -2.3181  0.8385 -0.6829
 2511TIP3    H229025   0.099   0.829  15.224 -0.5215  0.0569  0.4409
 2512TIP3   OH229026   0.620   4.343   1.590  0.1820  0.4021  0.3085
 2512TIP3    H129027   0.676   4.265   1.595  0.7146  0.8429  1.3880
 2512TIP3    H229028   0.639   4.381   1.505  1.6953  0.6616  0.7470
 2513TIP3   OH229029   3.529   0.409  11.376  0.0890 -0.0819 -0.8908
 2513TIP3    H129030   3.467   0.418  11.303 -1.8056  1.5064  0.7980
 2513TIP3    H229031   3.572   0.325  11.360 -1.4886 -0.5977 -2.9092
 2514TIP3   OH229032   5.588   3.517  14.248  0.4705  0.5904  0.5023
 2514TIP3    H129033   5.546   3.556  14.325 -0.1334 -1.6874  1.4214
 2514TIP3    H229034   5.574   3.422  14.259  2.5128  0.0183 -1.1672
 2515TIP3   OH229035   5.877   6.454  17.068 -0.1969  0.2645  0.3638
 2515TIP3    H129036   5.967   6.421  17.071  0.2016  1.3919  2.4810
 2515TIP3    H229037   5.823   6.375  17.063  0.8479 -0.5395  1.2900
 2516TIP3   OH229038   2.674   0.929   1.100  0.0328  0.4136 -0.1358
 2516TIP3    H129039   2.654   0.977   1.020  0.9361  1.5774  0.3031
 2516TIP3    H229040   2.653   0.837   1.080 -2.9100  1.0883 -0.6144
 2517TIP3   OH229041   2.014   5.006   2.350 -0.1153  0.3627  0.1114
 2517TIP3    H129042   2.109   4.999   2.343  0.0020 -1.2751  2.3158
 2517TIP3    H229043   1.985   5.029   2.262  2.2217 -0.1459 -0.8577
 2518TIP3   OH229044   0.289   5.927  17.120 -0.0277 -0.2831  0.2118
 2518TIP3    H129045   0.286   5.912  17.025 -0.0285 -0.8583  0.3003
 2518TIP3    H229046   0.198   5.949  17.143 -0.2687 -1.2623  0.2490
 2519TIP3   OH229047   1.082   1.037   4.596 -0.2907 -0.2077  0.2323
 2519TIP3    H129048   1.101   0.945   4.617 -0.4155 -1.0169 -2.6810
 2519TIP3    H229049   1.006   1.033   4.538  1.1432  1.4706 -1.9224
 2520TIP3   OH229050   3.557   4.658   6.018  0.2595  0.5189  0.2415
 2520TIP3    H129051   3.509   4.724   6.068 -2.0885 -1.4051  0.7043
 2520TIP3    H229052   3.642   4.654   6.061  0.5159  3.1791  0.1803
 2521TIP3   OH229053   0.571   0.875  12.849 -0.2845  0.3795  0.1268
 2521TIP3    H129054   0.525   0.838  12.924  0.1022  2.0084  1.2319
 2521TIP3    H229055   0.546   0.820  12.775 -0.1863 -1.6609  1.5464
 2522TIP3   OH229056   2.456   3.466  15.090  0.4306  0.4755 -0.0082
 2522TIP3    H129057   2.381   3.443  15.145  0.7979  1.8352  1.0894
 2522TIP3    H229058   2.437   3.554  15.058  0.7973  0.1804 -1.1067
 2523TIP3   OH229059   0.665   2.543   4.820 -0.1104  0.3093 -0.7884
 2523TIP3    H129060   0.694   2.559   4.910  0.6996 -1.4096 -0.6952
 2523TIP3    H229061   0.578   2.581   4.816  0.5287  1.9785  0.1806
 2524TIP3   OH229062   2.742   1.057   0.563 -0.1490 -0.0413  0.0169
 2524TIP3    H129063   2.831   1.022   0.575  0.3107  0.2693 -1.9915
 2524TIP3    H229064   2.756   1.139   0.515 -1.5181  0.0356 -0.2751
 2525TIP3   OH229065   2.186   2.575  12.973  0.9835  0.2589 -0.2413
 2525TIP3    H129066   2.110   2.527  12.940  0.6506  1.1576 -0.8205
 2525TIP3    H229067   2.162   2.668  12.964  0.5514  0.6269  3.1555
 2526TIP3   OH229068   1.163   6.320  16.389 -0.0518 -0.1110 -0.0370
 2526TIP3    H129069   1.220   6.247  16.363 -0.3017 -0.6359  0.8381
 2526TIP3    H229070   1.173   6.384  16.319  2.4553  0.2990  0.5803
 2527TIP3   OH229071   6.791   2.774  15.196  0.0218  0.8478  0.1142
 2527TIP3    H129072   6.729   2.836  15.235 -0.6639 -0.8569  1.9327
 2527TIP3    H229073   6.873   2.822  15.190 -0.6034  2.0835  1.0237
 2528TIP3   OH229074   6.248   1.055   5.521 -0.0880 -0.3497  0.1226
 2528TIP3    H129075   6.234   1.118   5.592 -0.2280 -0.4052  0.1439
 2528TIP3    H229076   6.339   1.069   5.495  0.5667 -1.6238  1.5745
 2529TIP3   OH229077   0.065   3.416  12.231  0.2752 -0.2078  0.4243
 2529TIP3    H129078  -0.010   3.380  12.185  0.6824  0.9869 -1.2780
 2529TIP3    H229079   0.125   3.342  12.242 -0.1523 -0.6650 -0.3082
 2530TIP3   OH229080   5.342   6.610  12.568  0.0893 -0.4493  0.0251
 2530TIP3    H129081   5.290   6.565  12.501  0.6553 -0.2986 -0.5257
 2530TIP3    H229082   5.280   6.627  12.639 -1.0549  1.2295 -1.2862
 2531TIP3   OH229083   1.517   5.450   5.426 -0.1726  0.6142  0.1972
 2531TIP3    H129084   1.596   5.498   5.447 -0.3257  0.5707  0.9088
 2531TIP3    H229085   1.464   5.511   5.373  0.3256  0.6400 -0.2768
 2532TIP3   OH229086   4.473   2.624   4.671 -0.4136  0.5175  0.2277
 2532TIP3    H129087   4.511   2.698   4.624 -2.1882 -0.2209 -2.5802
 2532TIP3    H229088   4.428   2.664   4.745  2.2605  1.7459  1.3484
 2533TIP3   OH229089   6.751   1.005  11.070  0.7528  0.6664  0.0043
 2533TIP3    H129090   6.744   1.100  11.080  1.6944  0.7908 -0.3531
 2533TIP3    H229091   6.837   0.984  11.108  0.1895 -0.1609  0.8411
 2534TIP3   OH229092   5.926   3.641   3.125 -0.6174 -0.0317 -0.2697
 2534TIP3    H129093   5.889   3.595   3.050 -0.0066 -1.1223  0.0623
 2534TIP3    H229094   5.965   3.571   3.178  1.7438  0.9895 -0.5220
 2535TIP3   OH229095   3.242   3.848  11.739  0.2403  0.2246  0.0356
 2535TIP3    H129096   3.275   3.777  11.684 -1.3427 -1.3027  0.9463
 2535TIP3    H229097   3.233   3.922  11.679 -0.1799 -0.9880 -1.4739
 2536TIP3   OH229098   0.538   0.813  17.063 -0.3266  0.3784  0.2831
 2536TIP3    H129099   0.516   0.804  16.970  1.0736 -0.1018 -0.0328
 2536TIP3    H229100   0.481   0.883  17.094 -3.6331 -1.9849  0.0555
 2537TIP3   OH229101   3.825   5.963   5.052  0.0826 -0.1226 -0.1213
 2537TIP3    H129102   3.786   6.016   5.122  0.2405 -0.7996  0.4988
 2537TIP3    H229103   3.779   5.989   4.973 -0.1228  0.6427  0.2418
 2538TIP3   OH229104   5.135   0.331   5.459 -0.3664 -0.2664  0.6671
 2538TIP3    H129105   5.058   0.337   5.403  0.7672  0.4440 -0.8738
 2538TIP3    H229106   5.176   0.248   5.436 -1.3974 -1.3800  2.5462
 2539TIP3   OH229107   3.408   3.283  10.980 -0.0109 -0.4388 -0.2075
 2539TIP3    H129108   3.434   3.372  10.956 -1.2742 -0.2680 -1.0025
 2539TIP3    H229109   3.321   3.293  11.020  0.1178 -1.2474  0.3039
 2540TIP3   OH229110   4.760   0.284  15.270  0.4967  0.0041 -0.2269
 2540TIP3    H129111   4.855   0.276  15.262  1.2077  4.1884  1.4253
 2540TIP3    H229112   4.739   0.367  15.228 -2.2299 -0.1819  0.5730
 2541TIP3   OH229113   4.187   1.892   4.082 -0.1987  0.4722 -0.2473
 2541TIP3    H129114   4.210   1.962   4.143 -0.7520 -0.3197  0.9000
 2541TIP3    H229115   4.111   1.926   4.035 -1.9549 -0.2179  1.9536
 2542TIP3   OH229116   3.971   5.133   4.581 -0.0227  0.6924 -0.0788
 2542TIP3    H129117   4.020   5.074   4.525  0.0642  0.4382  0.2655
 2542TIP3    H229118   3.903   5.169   4.524  0.3080  0.7385 -0.4502
 2543TIP3   OH229119   1.549   0.093  13.273  0.7473  0.1207 -0.8097
 2543TIP3    H129120   1.543   0.052  13.360  1.6863 -1.5583 -1.4946
 2543TIP3    H229121   1.538   0.187  13.290 -3.2696 -0.4099  0.6569
 2544TIP3   OH229122   5.286   1.598  15.759 -0.0346 -0.5018 -0.0261
 2544TIP3    H129123   5.251   1.528  15.704  0.8338 -2.0159  1.2617
 2544TIP3    H229124   5.314   1.665  15.697  0.4687 -1.9314 -1.4065
 2545TIP3   OH229125   3.559   0.153  12.652 -0.2763  0.2468  0.0318
 2545TIP3    H129126   3.503   0.224  12.623  0.7480  2.3069  2.7035
 2545TIP3    H229127   3.504   0.099  12.709 -0.3738  0.4577  0.1370
 2546TIP3   OH229128   3.679   1.980  15.737 -0.3627 -0.1385  0.2294
 2546TIP3    H129129   3.591   2.013  15.719  0.3692  1.5679 -0.3776
 2546TIP3    H229130   3.672   1.886  15.724 -2.5572 -0.3390  2.0771
 2547TIP3   OH229131   6.033   0.021  15.872  0.4056  0.2987 -0.1730
 2547TIP3    H129132   6.043   0.082  15.944  2.0086 -0.0576 -0.0620
 2547TIP3    H229133   6.105  -0.040  15.881  0.4806  0.0616 -1.9049
 2548TIP3   OH229134   0.871   0.991  11.441 -0.0556  0.9090  0.9257
 2548TIP3    H129135   0.923   1.036  11.375  1.2536  1.8339  2.5258
 2548TIP3    H229136   0.826   1.061  11.489  0.5065  0.4299  2.2094
 2549TIP3   OH229137   2.043   6.746   3.693  0.6555 -0.2305  0.2811
 2549TIP3    H129138   2.107   6.812   3.666  1.1567 -0.9884 -0.4209
 2549TIP3    H229139   1.965   6.767   3.641  0.3776  0.5878  1.0122
 2550TIP3   OH229140   3.231   5.973  13.292 -0.0876 -0.7406 -0.1430
 2550TIP3    H129141   3.250   5.879  13.298  1.9891 -0.4862 -1.5237
 2550TIP3    H229142   3.189   5.983  13.207 -1.1777 -0.5239  0.4132
 2551TIP3   OH229143   3.824   0.911   1.923 -0.9027  0.3181 -0.3205
 2551TIP3    H129144   3.759   0.856   1.968 -1.4853  0.6355 -0.7707
 2551TIP3    H229145   3.908   0.887   1.965 -1.3998  0.4605  0.7874
 2552TIP3   OH229146   0.149   4.593   1.365 -0.1409  0.7020 -0.8067
 2552TIP3    H129147   0.187   4.667   1.319 -2.4861  2.5013 -0.0272
 2552TIP3    H229148   0.195   4.591   1.449 -0.5221  1.7500 -0.5577
 2553TIP3   OH229149   1.288   1.061   5.592  0.5584  0.3526  0.4953
 2553TIP3    H129150   1.243   1.131   5.545 -0.0492 -1.7775 -2.3775
 2553TIP3    H229151   1.296   0.991   5.528  2.0595 -1.8532  2.9082
 2554TIP3   OH229152   0.440   4.767   5.234  0.4933 -0.0775  0.2984
 2554TIP3    H129153   0.454   4.768   5.140  0.9946 -5.1188  0.0856
 2554TIP3    H229154   0.348   4.792   5.244  0.1807 -0.3185 -1.5853
 2555TIP3   OH229155   5.336   6.694   0.572 -0.4607 -0.0766  0.4311
 2555TIP3    H129156   5.412   6.664   0.623 -0.0722 -0.8434 -0.5622
 2555TIP3    H229157   5.278   6.733   0.637  0.9921  0.9787  1.1695
 2556TIP3   OH229158   4.111   4.601   2.326 -0.1977  0.4391 -0.6089
 2556TIP3    H129159   4.043   4.601   2.258  1.0481 -0.6372 -1.9233
 2556TIP3    H229160   4.174   4.535   2.296  1.1127  0.9676  0.8832
 2557TIP3   OH229161   3.413   5.008  13.473 -0.5783 -0.6699 -0.0719
 2557TIP3    H129162   3.481   4.989  13.537 -0.5407 -1.0208 -0.2117
 2557TIP3    H229163   3.450   4.978  13.389 -2.2222 -4.2620  0.2823
 2558TIP3   OH229164   1.968   5.795  16.602 -0.2655 -0.2366  0.5285
 2558TIP3    H129165   2.005   5.780  16.689  0.9306 -1.3439 -0.1275
 2558TIP3    H229166   1.906   5.724  16.589 -0.8526  0.2394  0.6740
 2559TIP3   OH229167   3.298   6.006   2.332 -0.8691  0.3808  0.0147
 2559TIP3    H129168   3.291   6.063   2.408 -1.5953 -0.9127  0.9575
 2559TIP3    H229169   3.335   5.925   2.366  2.2430  0.9318 -1.6671
 2560TIP3   OH229170   0.481   1.630  13.333 -0.0133 -0.3969 -0.2891
 2560TIP3    H129171   0.447   1.643  13.422 -0.3530  0.1905 -0.4990
 2560TIP3    H229172   0.571   1.663  13.337 -0.4229  0.8001 -0.4642
 2561TIP3   OH229173   1.868   1.148   4.057 -0.0278  0.4463 -0.5823
 2561TIP3    H129174   1.929   1.075   4.047 -1.1952 -0.6512  0.0886
 2561TIP3    H229175   1.921   1.225   4.037  1.4637 -0.4949 -0.4686
 2562TIP3   OH229176   3.166   5.569   5.244  0.5660  0.3084  0.2977
 2562TIP3    H129177   3.247   5.590   5.290  0.3594  0.6629  0.4981
 2562TIP3    H229178   3.191   5.565   5.151  0.7051  0.9454  0.3068
 2563TIP3   OH229179   4.854   6.272  13.457  0.0376 -0.5832  0.1146
 2563TIP3    H129180   4.891   6.223  13.383 -1.1816 -0.9462 -0.2803
 2563TIP3    H229181   4.854   6.363  13.428  1.1100 -0.5028  0.3372
 2564TIP3   OH229182   3.587   3.764   5.488  0.1551  0.4366 -0.3286
 2564TIP3    H129183   3.586   3.784   5.582 -1.2192  0.3572 -0.3118
 2564TIP3    H229184   3.680   3.751   5.468  0.3455 -1.3804  1.4118
 2565TIP3   OH229185   5.818   1.987  12.653  0.7145  0.4033 -0.1657
 2565TIP3    H129186   5.867   2.066  12.627  1.0652 -0.1810 -1.3466
 2565TIP3    H229187   5.777   1.957  12.572  1.1363 -1.0116  0.1259
 2566TIP3   OH229188   3.529   6.122   5.432 -0.2231 -0.1002 -0.5061
 2566TIP3    H129189   3.471   6.062   5.479 -0.7775 -0.4078 -1.5652
 2566TIP3    H229190   3.591   6.064   5.387  2.2080  0.2137  2.0852
 2567TIP3   OH229191   2.903   3.994  16.285 -0.2004  0.4822  0.2382
 2567TIP3    H129192   2.982   4.039  16.254  0.8762 -1.3870  0.1319
 2567TIP3    H229193   2.894   4.022  16.376  0.5955  0.7305  0.2500
 2568TIP3   OH229194   6.253   3.145   1.195  0.1841 -0.0578  0.2331
 2568TIP3    H129195   6.214   3.153   1.108 -1.7519 -0.3542  1.0262
 2568TIP3    H229196   6.326   3.085   1.183  0.8293  0.9710 -1.4339
 2569TIP3   OH229197   0.066   3.362  11.124 -0.0257  0.2568  0.0142
 2569TIP3    H129198   0.152   3.375  11.084 -0.1029 -0.9012 -0.5735
 2569TIP3    H229199   0.014   3.322  11.055 -1.3315  1.7701  0.0734
 2570TIP3   OH229200   3.217   3.805   4.691  0.3277 -0.3774 -0.0991
 2570TIP3    H129201   3.145   3.827   4.750 -0.9359 -1.3844 -1.2036
 2570TIP3    H229202   3.282   3.873   4.706 -0.9033  0.6402  0.8447
 2571TIP3   OH229203   0.347   2.728   0.556 -0.1715  0.5398 -0.1037
 2571TIP3    H129204   0.402   2.803   0.578  1.3346 -0.3301 -0.7851
 2571TIP3    H229205   0.362   2.666   0.628  0.0828  0.1143 -0.5253
 2572TIP3   OH229206   0.331   3.140  16.856 -0.4553 -0.3847  0.3124
 2572TIP3    H129207   0.269   3.131  16.928 -2.2161 -0.3852 -1.1198
 2572TIP3    H229208   0.387   3.063  16.863 -2.1767 -1.7073  0.2658
 2573TIP3   OH229209   2.949   4.393   2.852 -0.4953 -0.1675 -0.0055
 2573TIP3    H129210   2.977   4.302   2.860  0.8192  0.1918 -0.3305
 2573TIP3    H229211   2.991   4.438   2.925 -1.6086  0.0910  0.5003
 2574TIP3   OH229212   3.788   6.695   5.060  0.5630 -0.5782 -0.0607
 2574TIP3    H129213   3.847   6.726   4.992  0.9293 -0.0024  0.5113
 2574TIP3    H229214   3.841   6.636   5.114  0.3242 -0.8929 -0.1665
 2575TIP3   OH229215   1.341   0.742  10.785 -0.4167 -0.2389 -0.0332
 2575TIP3    H129216   1.295   0.699  10.857 -0.6791 -0.6204 -0.4233
 2575TIP3    H229217   1.271   0.772  10.727 -0.2906  1.6036  0.7216
 2576TIP3   OH229218   1.224   6.127   1.685  0.3550 -0.1238 -0.0421
 2576TIP3    H129219   1.317   6.147   1.672  0.3559  0.2325  0.4675
 2576TIP3    H229220   1.194   6.193   1.748  0.3080 -1.5664  1.5171
 2577TIP3   OH229221   1.957   0.428  12.704  0.1894  0.3773 -0.6396
 2577TIP3    H129222   1.876   0.461  12.742  1.1205  1.8025  0.1725
 2577TIP3    H229223   2.010   0.506  12.688  1.6781 -0.5807 -0.5143
 2578TIP3   OH229224   1.872   5.078  12.188 -0.1846 -0.0354 -0.3293
 2578TIP3    H129225   1.877   5.043  12.099 -2.4170  1.5951 -1.1875
 2578TIP3    H229226   1.793   5.038  12.225 -0.1178  0.4583  0.3633
 2579TIP3   OH229227   5.490   3.830  15.691 -0.2404  0.0031  0.5097
 2579TIP3    H129228   5.547   3.755  15.708  2.1879  1.4465 -0.8206
 2579TIP3    H229229   5.491   3.840  15.596  2.0108  3.4776  0.7470
 2580TIP3   OH229230   6.522   6.462   4.630  0.6174  0.1110  0.2016
 2580TIP3    H129231   6.512   6.391   4.693 -0.8742 -0.9521 -1.1305
 2580TIP3    H229232   6.511   6.420   4.544 -1.4052  2.0359 -0.6088
 2581TIP3   OH229233   3.026   0.893  12.728  0.1517 -0.1691 -0.4189
 2581TIP3    H129234   3.067   0.928  12.649  1.8906 -1.6079 -0.2345
 2581TIP3    H229235   3.071   0.937  12.800  1.1792 -1.4466 -0.2239
 2582TIP3   OH229236   3.492   6.484  13.958  0.3937  0.4536  0.2597
 2582TIP3    H129237   3.534   6.519  14.037 -0.5114  2.4730 -0.0903
 2582TIP3    H229238   3.418   6.543  13.942 -0.8257 -1.2766 -0.8086
 2583TIP3   OH229239   0.573   3.068  11.309 -0.1030 -0.5489  0.2841
 2583TIP3    H129240   0.608   3.055  11.221  1.1667 -0.2469  0.7152
 2583TIP3    H229241   0.520   3.148  11.302 -0.5241 -0.8698 -0.3302
 2584TIP3   OH229242   2.885   1.861  14.380  0.5594  0.4798  0.1345
 2584TIP3    H129243   2.892   1.828  14.469  0.5347 -0.6094 -0.2464
 2584TIP3    H229244   2.818   1.805  14.339 -1.2650  2.5276  0.1194
 2585TIP3   OH229245   0.615   2.869   1.395 -0.0391 -0.6206 -0.0398
 2585TIP3    H129246   0.692   2.895   1.445  1.3179 -1.6112 -1.5201
 2585TIP3    H229247   0.556   2.944   1.400  2.6915  1.8652 -2.1625
 2586TIP3   OH229248   1.158   2.883   0.558 -1.0833  0.3637  0.2341
 2586TIP3    H129249   1.080   2.875   0.612 -2.2756 -0.1769 -1.4809
 2586TIP3    H229250   1.184   2.793   0.538 -1.1269  0.5445 -0.7056
 2587TIP3   OH229251   0.120   1.783   2.336  0.2295  0.1430  1.0379
 2587TIP3    H129252   0.147   1.836   2.410  0.1282  0.2660  0.9860
 2587TIP3    H229253   0.189   1.717   2.327  1.2532  1.3192  0.0067
 2588TIP3   OH229254   6.769   5.229   2.513  0.1450 -0.0407  0.4481
 2588TIP3    H129255   6.778   5.234   2.418 -0.2627 -0.8089  0.3533
 2588TIP3    H229256   6.836   5.287   2.548  0.1097  0.4669 -0.3128
 2589TIP3   OH229257   5.022   1.958   1.682  0.0096 -0.4027  0.4939
 2589TIP3    H129258   4.991   2.004   1.760 -0.9327 -1.1566  0.5726
 2589TIP3    H229259   5.096   1.904   1.714  0.4290  0.2301  0.6076
 2590TIP3   OH229260   1.455   1.427  10.626 -0.2122  0.0707  0.1062
 2590TIP3    H129261   1.372   1.433  10.672  0.5330  0.0198  1.5128
 2590TIP3    H229262   1.521   1.427  10.695  0.8978 -1.5806 -0.8667
 2591TIP3   OH229263   0.478   6.685  14.486 -0.1403 -0.0473 -0.3449
 2591TIP3    H129264   0.398   6.640  14.457 -0.7374  1.9202 -2.0285
 2591TIP3    H229265   0.476   6.679  14.581 -1.7773 -0.9363 -0.3941
 2592TIP3   OH229266   0.201   6.425  13.722 -0.0270  0.1451  0.0252
 2592TIP3    H129267   0.105   6.420  13.720 -0.0254  0.4951 -1.4466
 2592TIP3    H229268   0.229   6.334  13.718 -0.2760  0.0127  0.8709
 2593TIP3   OH229269   2.966   2.911  13.586  0.0820 -0.1104  0.3183
 2593TIP3    H129270   3.031   2.980  13.596  0.3538 -0.3671  0.3242
 2593TIP3    H229271   3.016   2.829  13.585 -0.2902 -0.3534  0.9802
 2594TIP3   OH229272   3.276   2.813  16.644 -0.1441 -0.4921  0.1166
 2594TIP3    H129273   3.256   2.824  16.551  1.3185 -1.1357 -0.3049
 2594TIP3    H229274   3.289   2.902  16.677 -0.3752 -0.2781 -0.3727
 2595TIP3   OH229275   2.790   0.814   2.756 -0.1043  0.0670 -0.1234
 2595TIP3    H129276   2.884   0.823   2.740  0.0343  0.1054  0.6858
 2595TIP3    H229277   2.775   0.859   2.840 -0.6233 -1.0341  0.3905
 2596TIP3   OH229278   1.543   4.437   1.340  0.9925 -0.0262 -0.2232
 2596TIP3    H129279   1.479   4.417   1.408  1.0095  0.8261  0.0568
 2596TIP3    H229280   1.541   4.361   1.282  1.1747 -0.8907  0.8748
 2597TIP3   OH229281   5.366   0.103   2.532  0.6868 -0.2998 -0.2149
 2597TIP3    H129282   5.411   0.186   2.512  1.7045 -0.9634 -0.7895
 2597TIP3    H229283   5.437   0.041   2.548 -0.0827 -0.7442  1.6470
 2598TIP3   OH229284   5.615   0.504   4.155  0.1979  0.9317  0.3592
 2598TIP3    H129285   5.647   0.418   4.182  0.4202  0.5251 -1.1269
 2598TIP3    H229286   5.692   0.548   4.118  0.3639  2.2453  2.1406
 2599TIP3   OH229287   3.881   5.154   2.654 -0.9457  0.0359 -0.0955
 2599TIP3    H129288   3.972   5.150   2.627 -0.2945 -0.4849  2.0038
 2599TIP3    H229289   3.870   5.244   2.686 -1.4665  0.3869 -1.2041
 2600TIP3   OH229290   2.153   3.234   1.951  0.6097 -0.5569 -0.1237
 2600TIP3    H129291   2.101   3.177   1.895 -0.7293  1.0860 -0.6165
 2600TIP3    H229292   2.194   3.296   1.891  0.6551  0.0785  0.5528
 2601TIP3   OH229293   5.670   4.853   0.265 -0.1677 -0.1996 -0.4195
 2601TIP3    H129294   5.579   4.847   0.295 -0.4899 -0.0575 -1.3526
 2601TIP3    H229295   5.722   4.832   0.343 -0.9751  0.4968  0.3358
 2602TIP3   OH229296   0.624   1.124  13.655  0.1094  0.2297 -0.3176
 2602TIP3    H129297   0.615   1.044  13.603  1.1754  0.5430 -1.0360
 2602TIP3    H229298   0.639   1.094  13.744 -1.2035 -0.3318 -0.2720
 2603TIP3   OH229299   4.800   5.710  15.945 -0.3303  0.0166 -0.1862
 2603TIP3    H129300   4.847   5.791  15.967 -0.5745  0.5879 -1.6397
 2603TIP3    H229301   4.721   5.713  15.999  0.4446 -0.1064  1.0080
 2604TIP3   OH229302   6.267   0.801  11.377  0.6961 -0.2843 -0.1295
 2604TIP3    H129303   6.292   0.713  11.404  0.5637 -0.1043  0.6128
 2604TIP3    H229304   6.240   0.844  11.458  0.0901  0.2167 -0.5895
 2605TIP3   OH229305   4.702   3.017  13.928 -0.0511  0.2204 -0.0818
 2605TIP3    H129306   4.727   3.014  14.020  2.5696 -1.9269 -0.7378
 2605TIP3    H229307   4.623   2.964  13.922  0.7162 -1.0583  0.7262
 2606TIP3   OH229308   1.538   0.576  11.919 -0.3607  0.0784  0.3644
 2606TIP3    H129309   1.489   0.500  11.950 -0.3524 -0.3143 -0.5588
 2606TIP3    H229310   1.471   0.642  11.901 -0.4090  0.1217  0.7001
 2607TIP3   OH229311   4.954   0.402   3.253 -0.1478 -0.2505 -0.5082
 2607TIP3    H129312   4.933   0.357   3.335 -0.0277 -0.7717 -0.7575
 2607TIP3    H229313   5.023   0.463   3.276 -1.0955  0.6435  0.0760
 2608TIP3   OH229314   1.322   0.905  16.266 -0.4160 -0.6874  0.6347
 2608TIP3    H129315   1.403   0.888  16.217 -0.9534  1.7316 -1.2590
 2608TIP3    H229316   1.327   0.845  16.341  2.3029 -1.8141 -0.3114
 2609TIP3   OH229317   3.443   4.159  13.948  0.1941  0.6209  0.2244
 2609TIP3    H129318   3.427   4.094  14.017  0.3920 -0.5796 -0.8387
 2609TIP3    H229319   3.538   4.170  13.947  0.4998 -1.4928 -1.6909
 2610TIP3   OH229320   6.387   4.882  11.379  0.0476 -0.0298 -0.3205
 2610TIP3    H129321   6.448   4.873  11.306  0.0760  0.7199 -0.4047
 2610TIP3    H229322   6.342   4.965  11.362 -0.0516  0.0802  0.4280
 2611TIP3   OH229323   4.493   5.202   0.433  0.3660 -0.3296 -0.4166
 2611TIP3    H129324   4.548   5.133   0.396  1.0896 -0.8896  1.5676
 2611TIP3    H229325   4.432   5.156   0.492 -0.1532  0.5743 -0.2243
 2612TIP3   OH229326   2.176   3.833   3.492 -0.4455  0.7607  0.1398
 2612TIP3    H129327   2.235   3.889   3.543 -0.9632  1.3158  0.1415
 2612TIP3    H229328   2.095   3.830   3.544 -1.3543  2.1864 -1.1148
 2613TIP3   OH229329   5.645   2.240  11.109  0.2754  0.1419  0.1885
 2613TIP3    H129330   5.599   2.217  11.028 -0.7351  1.6733  0.2980
 2613TIP3    H229331   5.704   2.311  11.084 -1.6606  2.2068  1.1734
 2614TIP3   OH229332   3.665   5.147  11.897  0.1894  0.6034  0.3188
 2614TIP3    H129333   3.593   5.209  11.894 -0.3392 -0.0201 -0.9986
 2614TIP3    H229334   3.649   5.094  11.975 -2.1226 -1.0179 -1.1153
 2615TIP3   OH229335   4.711   2.837  11.870  0.5025  0.2259 -0.0538
 2615TIP3    H129336   4.800   2.831  11.906  0.4013 -1.3136  0.0003
 2615TIP3    H229337   4.724   2.859  11.778  0.9228  0.1682 -0.0101
 2616TIP3   OH229338   2.032   2.537   4.114  0.2071  0.0542 -0.1010
 2616TIP3    H129339   2.006   2.629   4.113 -0.1503 -0.0436 -1.0249
 2616TIP3    H229340   1.950   2.488   4.123  0.4506 -0.1673  1.0191
 2617TIP3   OH229341   2.288   4.663  11.380 -0.1028  0.5901 -0.3655
 2617TIP3    H129342   2.337   4.729  11.332 -0.9524  0.4961 -1.4026
 2617TIP3    H229343   2.200   4.664  11.341 -0.5697 -0.1038  0.6034
 2618TIP3   OH229344   5.521   2.884   2.493  0.0644 -0.2416 -0.2093
 2618TIP3    H129345   5.614   2.903   2.502  0.2600 -0.9457 -0.6951
 2618TIP3    H229346   5.516   2.788   2.493 -0.7661 -0.2229  0.8670
 2619TIP3   OH229347   1.586   4.977  11.294  0.0119  0.0947  0.0051
 2619TIP3    H129348   1.656   4.963  11.230  1.9946  2.2006  1.5410
 2619TIP3    H229349   1.508   4.994  11.241  0.9111 -1.0307 -1.7757
 2620TIP3   OH229350   4.296   3.704   0.056  0.4230  0.2196  0.1926
 2620TIP3    H129351   4.224   3.654   0.018  0.0251  1.1183 -0.2443
 2620TIP3    H229352   4.254   3.782   0.094  1.1887  0.8533 -0.2463
 2621TIP3   OH229353   6.656   4.767  15.820  0.1027 -0.3684 -0.2178
 2621TIP3    H129354   6.647   4.849  15.772 -1.2675  0.4537  1.3363
 2621TIP3    H229355   6.684   4.704  15.754  0.0098  1.0720 -1.7081
 2622TIP3   OH229356   3.015   1.525   3.846  0.9347 -0.1083 -0.4647
 2622TIP3    H129357   2.925   1.499   3.826  0.9706  0.2129 -1.0680
 2622TIP3    H229358   3.020   1.522   3.942  0.5331 -0.9475 -0.4584
 2623TIP3   OH229359   2.456   0.020   5.067 -0.4045 -0.3516  0.3220
 2623TIP3    H129360   2.497   0.040   4.982  1.1583  0.0327  1.1336
 2623TIP3    H229361   2.461  -0.076   5.073 -1.5288 -0.4828 -0.4812
 2624TIP3   OH229362   5.628   2.123   4.555  0.2253  0.0471 -0.5609
 2624TIP3    H129363   5.550   2.130   4.610  1.7878  0.0611  1.7791
 2624TIP3    H229364   5.628   2.204   4.505 -0.6129  0.6279  0.3302
 2625TIP3   OH229365   4.226   0.565  15.475 -0.3191  0.4330 -0.6252
 2625TIP3    H129366   4.285   0.574  15.550 -1.6164  5.4806  0.1210
 2625TIP3    H229367   4.164   0.497  15.502 -0.0617  1.2767  2.4347
 2626TIP3   OH229368   1.197   3.589   0.916 -0.0247  0.6095 -0.0711
 2626TIP3    H129369   1.135   3.594   0.844 -0.1325 -1.9446 -0.2453
 2626TIP3    H229370   1.147   3.619   0.992 -0.9184  0.3210 -0.5245
 2627TIP3   OH229371   1.194   1.696  15.255  0.2849  0.0514 -0.4431
 2627TIP3    H129372   1.177   1.678  15.348 -1.5559 -0.5836 -0.8787
 2627TIP3    H229373   1.281   1.737  15.255 -1.2244  3.7699  1.9742
 2628TIP3   OH229374   1.007   5.357   3.808  0.1289  0.2205 -0.4536
 2628TIP3    H129375   1.092   5.334   3.770  0.7196  0.8735  0.4235
 2628TIP3    H229376   0.943   5.310   3.755  1.1382 -1.7491 -0.0252
 2629TIP3   OH229377   4.289   4.683   1.301 -0.7395 -0.1135  0.0745
 2629TIP3    H129378   4.274   4.745   1.372 -1.1311  1.2316 -1.1116
 2629TIP3    H229379   4.222   4.705   1.236 -1.5511 -2.5084  0.0232
 2630TIP3   OH229380   0.993   5.631  13.744 -0.1369  0.1323  0.2429
 2630TIP3    H129381   0.984   5.654  13.652 -0.9326  0.9040  0.4976
 2630TIP3    H229382   0.906   5.602  13.771 -0.2470  1.1133  1.0479
 2631TIP3   OH229383   5.101   0.941  16.921 -0.0365 -0.4293  0.4287
 2631TIP3    H129384   5.160   1.016  16.912 -1.5036  0.7758  0.5858
 2631TIP3    H229385   5.077   0.918  16.831  0.6887 -0.9678  0.3591
 2632TIP3   OH229386   1.577   4.802  14.951  0.0736  0.2647  0.6502
 2632TIP3    H129387   1.614   4.725  14.994 -1.5876 -0.6710  0.5090
 2632TIP3    H229388   1.482   4.785  14.951 -0.2124  1.7042 -0.5643
 2633TIP3   OH229389   3.459   2.329   0.553 -0.0762 -0.1819 -0.8778
 2633TIP3    H129390   3.393   2.278   0.601  0.6796 -1.1171 -0.8036
 2633TIP3    H229391   3.501   2.384   0.619 -0.6975  0.3436 -0.9086
 2634TIP3   OH229392   0.093   0.916   0.255 -0.5549  0.4288  0.2239
 2634TIP3    H129393   0.046   0.890   0.335  2.2770 -1.6860  1.3855
 2634TIP3    H229394   0.097   0.836   0.203 -0.1592  1.1361 -0.8622
 2635TIP3   OH229395   3.224   5.568  12.976  0.3440 -0.1532  0.2874
 2635TIP3    H129396   3.266   5.653  12.963 -0.1606 -0.0293 -0.6076
 2635TIP3    H229397   3.141   5.588  13.018  0.0041 -0.1457 -0.3709
 2636TIP3   OH229398   6.784   2.646   0.339 -0.8033 -0.2806 -0.4343
 2636TIP3    H129399   6.862   2.616   0.291 -1.2585 -1.6916 -0.3293
 2636TIP3    H229400   6.820   2.694   0.414  0.0516 -2.4571  0.6273
 2637TIP3   OH229401   2.700   6.188  14.579 -0.4032  0.3672 -0.2343
 2637TIP3    H129402   2.627   6.197  14.639  0.2828  0.9336  0.5371
 2637TIP3    H229403   2.739   6.275  14.575  0.0139  0.1572 -0.9117
 2638TIP3   OH229404   4.662   3.839  16.980 -0.5322 -0.4894  0.0806
 2638TIP3    H129405   4.586   3.781  16.991 -0.9665  0.3301  1.7033
 2638TIP3    H229406   4.736   3.786  17.010 -0.5390 -1.0309 -0.8006
 2639TIP3   OH229407   2.782   4.003  13.352 -0.3533  0.4798 -0.1259
 2639TIP3    H129408   2.687   3.993  13.356 -0.4393 -0.1525 -2.4194
 2639TIP3    H229409   2.816   3.923  13.392 -0.7383  1.1637  1.6330
 2640TIP3   OH229410   4.072   3.930   3.411 -0.4775 -0.4480 -0.3074
 2640TIP3    H129411   4.072   3.979   3.328  2.3072 -0.3034 -0.3184
 2640TIP3    H229412   4.088   3.997   3.478 -0.0078 -0.9003  0.0397
 2641TIP3   OH229413   3.273   4.962   0.174  0.0493  0.5540 -0.2242
 2641TIP3    H129414   3.316   5.047   0.182  0.6348  0.2945 -0.5824
 2641TIP3    H229415   3.306   4.912   0.249 -0.2202  0.6036 -0.0693
 2642TIP3   OH229416   4.426   2.963  11.253 -0.7512 -0.4322 -0.0656
 2642TIP3    H129417   4.478   3.001  11.324 -1.1328  0.0653 -0.0468
 2642TIP3    H229418   4.489   2.910  11.203  0.3685  1.9808 -1.4103
 2643TIP3   OH229419   3.877   2.245  15.076 -0.8601  0.3821  0.2337
 2643TIP3    H129420   3.851   2.153  15.070 -2.9440  0.9546 -0.2430
 2643TIP3    H229421   3.956   2.243  15.130  1.1718 -2.0036 -2.4414
 2644TIP3   OH229422   0.025   2.613   6.555  0.0562 -0.4897  0.0165
 2644TIP3    H129423   0.077   2.642   6.630  0.1832 -1.4564  0.3112
 2644TIP3    H229424   0.087   2.565   6.501  0.2923  1.2917 -1.4009
 2645TIP3   OH229425   4.329   3.430   3.053  0.0633 -0.1865 -0.1360
 2645TIP3    H129426   4.336   3.347   3.006 -0.4310 -0.1209 -0.3238
 2645TIP3    H229427   4.238   3.457   3.042  0.4751  0.9290 -1.0181
 2646TIP3   OH229428   5.804   2.253  15.904 -0.0613  0.1512 -0.1473
 2646TIP3    H129429   5.808   2.159  15.889 -1.0687 -0.3668  2.3358
 2646TIP3    H229430   5.732   2.283  15.850 -0.3236 -0.6713 -0.2681
 2647TIP3   OH229431   1.355   3.223   3.501  0.1113 -0.3031 -0.3656
 2647TIP3    H129432   1.427   3.272   3.461  1.3942 -0.4082  1.6711
 2647TIP3    H229433   1.359   3.247   3.594 -1.7226 -1.2707 -0.0019
 2648TIP3   OH229434   4.763   1.556   2.208  0.2206 -0.1967  0.6305
 2648TIP3    H129435   4.772   1.635   2.261 -0.6479  0.4386 -0.1429
 2648TIP3    H229436   4.709   1.497   2.261 -1.3304  0.7465  0.1452
 2649TIP3   OH229437   2.673   6.587  14.550  0.0016 -0.2079  0.2836
 2649TIP3    H129438   2.764   6.568  14.530 -0.4594  0.0974 -2.5034
 2649TIP3    H229439   2.667   6.683  14.550 -0.0543 -0.1766  2.0676
 2650TIP3   OH229440   5.292   2.612   3.159 -0.5732  0.3647  0.5976
 2650TIP3    H129441   5.227   2.672   3.198  0.1514  0.1997  2.1170
 2650TIP3    H229442   5.362   2.607   3.225 -0.0523 -1.1963 -0.0496
 2651TIP3   OH229443   3.775   4.407   0.060 -0.1552 -0.3770  0.2824
 2651TIP3    H129444   3.842   4.341   0.074  0.9352  0.3952 -1.0873
 2651TIP3    H229445   3.693   4.364   0.086  0.8258 -1.3356  1.9587
 2652TIP3   OH229446   4.539   5.964   6.154 -0.1041  0.2042  0.6503
 2652TIP3    H129447   4.471   5.898   6.141 -1.5150  1.5742  0.8244
 2652TIP3    H229448   4.603   5.921   6.211 -1.4390 -0.7155  1.5264
 2653TIP3   OH229449   6.260   1.715  12.145 -1.0121 -0.2634  0.0606
 2653TIP3    H129450   6.176   1.737  12.185 -0.4913  0.6235  0.6798
 2653TIP3    H229451   6.262   1.767  12.065 -0.8074  0.1499  0.3328
 2654TIP3   OH229452   5.719   3.157  15.332  0.3459 -0.2801  0.4118
 2654TIP3    H129453   5.814   3.144  15.342  0.3548 -0.7729 -0.2617
 2654TIP3    H229454   5.680   3.076  15.364  0.2238 -0.6296 -0.6097
 2655TIP3   OH229455   4.681   0.951  15.070 -0.3194  0.1130 -0.2354
 2655TIP3    H129456   4.617   1.005  15.024 -0.5482  3.2535  3.2979
 2655TIP3    H229457   4.628   0.892  15.125 -0.2632  1.1154  0.9525
 2656TIP3   OH229458   3.450   4.113   6.237  0.2296 -0.4474  0.1250
 2656TIP3    H129459   3.432   4.207   6.227  3.6275  0.1138 -3.0983
 2656TIP3    H229460   3.406   4.089   6.318 -0.9211  3.8890  1.0757
 2657TIP3   OH229461   2.273   0.998  16.701 -0.1144  0.5166  0.0023
 2657TIP3    H129462   2.220   0.924  16.730  1.1120 -0.5878 -0.4757
 2657TIP3    H229463   2.328   1.019  16.777 -0.2038  0.7048  0.0161
 2658TIP3   OH229464   2.582   3.548  11.531 -0.4229  0.3431 -0.2848
 2658TIP3    H129465   2.611   3.490  11.602 -3.8477 -0.6564  0.5058
 2658TIP3    H229466   2.617   3.508  11.452 -0.2452 -1.1550  0.5091
 2659TIP3   OH229467   3.179   4.170  11.899  0.0661 -0.4197  0.0956
 2659TIP3    H129468   3.173   4.138  11.809 -2.4113  0.2312 -0.0443
 2659TIP3    H229469   3.157   4.263  11.892  2.6009  0.3337  1.0722
 2660TIP3   OH229470   1.580   4.997  16.322 -0.4813 -0.2504  0.1116
 2660TIP3    H129471   1.646   5.001  16.390 -0.8798 -1.1618  0.5702
 2660TIP3    H229472   1.517   5.065  16.345  0.4885  0.9089 -0.5639
 2661TIP3   OH229473   3.602   3.789  11.740  0.2203 -0.3416 -0.2645
 2661TIP3    H129474   3.524   3.783  11.684 -0.7289 -0.2007  0.9762
 2661TIP3    H229475   3.666   3.731  11.699 -0.5328 -0.4347 -1.3403
 2662TIP3   OH229476   4.999   4.418  13.892  0.4229  0.1377  0.1737
 2662TIP3    H129477   4.935   4.408  13.962 -1.3171 -0.7523 -1.4859
 2662TIP3    H229478   5.033   4.507  13.904 -0.2590  0.2163  1.7763
 2663TIP3   OH229479   0.521   3.496  11.672 -0.6971 -0.4345  0.3103
 2663TIP3    H129480   0.508   3.577  11.623 -1.2393  0.4051  1.7653
 2663TIP3    H229481   0.468   3.431  11.626 -1.2584  0.3524 -0.1732
 2664TIP3   OH229482   0.821   2.776   5.354  0.0049  0.5763 -0.5753
 2664TIP3    H129483   0.762   2.784   5.429 -0.3077 -2.6630 -0.3679
 2664TIP3    H229484   0.830   2.866   5.322 -2.0978  1.6809  1.6024
 2665TIP3   OH229485   1.699   3.226  17.162 -0.3709 -0.0536 -0.2124
 2665TIP3    H129486   1.769   3.177  17.206 -0.3521 -0.0355 -0.2220
 2665TIP3    H229487   1.618   3.184  17.191 -0.3975  0.4022  0.3970
 2666TIP3   OH229488   6.095   5.151   2.423 -0.1781 -0.0652 -0.0780
 2666TIP3    H129489   6.059   5.067   2.451  0.1925  0.2341  1.3784
 2666TIP3    H229490   6.189   5.134   2.413 -0.3175 -0.2075 -1.3900
 2667TIP3   OH229491   0.663   4.733   3.207  0.0731 -0.3451 -0.3643
 2667TIP3    H129492   0.655   4.692   3.121  0.8919 -2.9122  0.6753
 2667TIP3    H229493   0.757   4.730   3.226 -0.1280 -0.0451  0.7364
 2668TIP3   OH229494   3.932   4.772  16.813  0.1967 -0.0967  0.1441
 2668TIP3    H129495   3.864   4.732  16.758  0.5142 -0.0294 -0.2974
 2668TIP3    H229496   3.951   4.856  16.772  1.6717 -0.7811 -0.6506
 2669TIP3   OH229497   0.666   5.701  13.399 -0.4949  0.0607 -0.2439
 2669TIP3    H129498   0.655   5.698  13.304  0.0994 -0.0674 -0.3139
 2669TIP3    H229499   0.753   5.739  13.412 -0.1533 -0.8569  0.2267
 2670TIP3   OH229500   1.657   0.683  15.284 -0.1201 -0.1210  0.3782
 2670TIP3    H129501   1.649   0.594  15.319 -1.5062 -0.1542  0.0435
 2670TIP3    H229502   1.567   0.711  15.269  0.0640  2.3683  2.9275
 2671TIP3   OH229503   5.077   5.618   5.676 -1.2323  0.7492  0.2165
 2671TIP3    H129504   5.044   5.666   5.753  1.4194 -1.1010  2.7392
 2671TIP3    H229505   5.018   5.543   5.667 -0.4299 -0.1265  1.8378
 2672TIP3   OH229506   3.467   1.244   4.019 -0.2059  0.1061  0.4888
 2672TIP3    H129507   3.485   1.162   3.974  0.2236  0.5985 -0.2564
 2672TIP3    H229508   3.384   1.274   3.982 -0.3961 -0.0090  0.8076
 2673TIP3   OH229509   0.366   4.982  13.009 -0.0442 -0.1441 -0.1783
 2673TIP3    H129510   0.402   4.967  13.096 -0.1932 -1.6853 -0.3516
 2673TIP3    H229511   0.434   4.951  12.949 -1.7694 -3.8217 -0.5082
 2674TIP3   OH229512   3.577   6.152  14.296 -0.3628  0.2683 -0.0472
 2674TIP3    H129513   3.507   6.126  14.236 -1.8193 -0.2898  1.8212
 2674TIP3    H229514   3.656   6.152  14.241 -1.7505  0.7396 -2.1735
 2675TIP3   OH229515   2.724   6.369   5.559  0.4251  0.0503 -0.1853
 2675TIP3    H129516   2.794   6.306   5.543  0.2068 -0.8574  2.0620
 2675TIP3    H229517   2.757   6.424   5.630 -0.9708 -0.1888  0.6943
 2676TIP3   OH229518   6.077   4.425   5.075 -0.3933 -0.1958 -0.0754
 2676TIP3    H129519   5.996   4.378   5.089 -0.7790  0.2584 -0.7158
 2676TIP3    H229520   6.142   4.378   5.128 -1.0096 -0.7135  0.2349
 2677TIP3   OH229521   4.149   5.998  12.784  0.4011  1.0584  0.4395
 2677TIP3    H129522   4.097   5.992  12.703  0.7735  0.0686  0.2678
 2677TIP3    H229523   4.110   5.933  12.842 -0.6815  2.6170  1.5637
 2678TIP3   OH229524   5.589   0.084  11.094 -0.7540  0.1429 -0.1691
 2678TIP3    H129525   5.657   0.144  11.123 -1.7442  1.1153  0.1636
 2678TIP3    H229526   5.531   0.073  11.169  0.6793 -3.1722  0.6479
 2679TIP3   OH229527   5.038   2.729   3.247 -0.5610 -0.2583 -0.4828
 2679TIP3    H129528   4.982   2.765   3.178 -1.0567 -0.5382 -0.2332
 2679TIP3    H229529   5.084   2.805   3.282  0.6660 -0.2709 -1.9662
 2680TIP3   OH229530   5.405   6.052  16.642  0.5501  0.1703 -0.1817
 2680TIP3    H129531   5.490   6.074  16.605  1.2535  0.8032  1.7262
 2680TIP3    H229532   5.380   5.971  16.599  3.2096 -1.3048  0.8738
 2681TIP3   OH229533   1.260   4.767   6.207  0.6854  0.1297 -0.3977
 2681TIP3    H129534   1.313   4.748   6.284 -0.2210 -0.4205  0.1117
 2681TIP3    H229535   1.171   4.776   6.240  0.6124  2.3907 -1.0507
 2682TIP3   OH229536   5.599   6.727  14.679 -0.1204 -0.1480  0.3836
 2682TIP3    H129537   5.683   6.682  14.669 -0.1737 -0.1619 -0.0419
 2682TIP3    H229538   5.582   6.763  14.592 -0.2789  0.3410  0.6159
 2683TIP3   OH229539   0.562   1.120  15.057  0.1090  0.0006 -0.3973
 2683TIP3    H129540   0.604   1.034  15.057 -0.7734 -0.5625  2.5951
 2683TIP3    H229541   0.612   1.171  15.121 -0.4617  1.1103 -0.8167
 2684TIP3   OH229542   0.077   2.401   3.487 -0.4181  0.5685  0.8538
 2684TIP3    H129543   0.146   2.465   3.468  1.7309 -1.5739  1.0285
 2684TIP3    H229544   0.101   2.365   3.572 -2.4462  0.5766  1.4721
 2685TIP3   OH229545   0.444   0.167  14.991 -0.4895 -0.1478  0.5814
 2685TIP3    H129546   0.422   0.075  15.004 -1.8050 -0.2700 -1.8479
 2685TIP3    H229547   0.537   0.167  14.971 -0.3643 -0.8852  1.1498
 2686TIP3   OH229548   6.586   2.843   2.993 -0.2993 -0.0986 -0.1628
 2686TIP3    H129549   6.495   2.814   2.994 -0.3143 -0.1651  2.3218
 2686TIP3    H229550   6.581   2.938   2.991 -0.4862 -0.0699  0.9436
 2687TIP3   OH229551   3.557   1.410   4.248 -0.1607 -0.5888  0.3233
 2687TIP3    H129552   3.561   1.361   4.330  2.4514 -1.9586 -0.4837
 2687TIP3    H229553   3.531   1.344   4.183  2.5252 -0.8322 -0.6381
 2688TIP3   OH229554   3.647   1.457  12.939  0.3956  0.0116  0.3988
 2688TIP3    H129555   3.606   1.390  12.884  1.7700 -1.3219  0.9312
 2688TIP3    H229556   3.707   1.504  12.880  1.6623 -1.2367  0.6374
 2689TIP3   OH229557   0.696   5.483  10.644 -0.2441  0.5124 -0.1072
 2689TIP3    H129558   0.659   5.404  10.604 -1.2120  1.5630 -1.3319
 2689TIP3    H229559   0.670   5.554  10.586 -0.4721  1.9150  1.6310
 2690TIP3   OH229560   0.169   5.935   3.429 -0.1951  0.0770  0.5435
 2690TIP3    H129561   0.076   5.949   3.445  0.0080  0.4992  1.4779
 2690TIP3    H229562   0.206   6.023   3.424 -0.0529 -0.0548 -1.3251
 2691TIP3   OH229563   4.959   4.591  12.287 -0.5524 -0.0176  0.5390
 2691TIP3    H129564   5.045   4.618  12.320 -0.4439  1.2930 -0.7136
 2691TIP3    H229565   4.896   4.626  12.350 -0.3146  1.8128 -0.1828
 2692TIP3   OH229566   3.484   4.835   3.909  0.6453  0.3206 -0.2999
 2692TIP3    H129567   3.403   4.836   3.858  1.1742  0.8207 -1.1502
 2692TIP3    H229568   3.552   4.863   3.847  2.1673 -3.7719 -0.8099
 2693TIP3   OH229569   6.308   5.873   5.485  0.3648  0.6011  0.2043
 2693TIP3    H129570   6.237   5.819   5.452 -1.4397  2.3206  1.0319
 2693TIP3    H229571   6.350   5.820   5.553 -1.1732  0.1296  0.8199
 2694TIP3   OH229572   3.264   6.790  14.914 -0.5298 -0.0347  0.1914
 2694TIP3    H129573   3.336   6.841  14.878 -0.5253  0.3399  0.7161
 2694TIP3    H229574   3.269   6.805  15.009 -0.3659 -1.2066  0.3840
 2695TIP3   OH229575   4.923   3.699   6.262  0.1067 -0.1881 -0.0032
 2695TIP3    H129576   5.017   3.683   6.253 -0.1708 -2.1505  0.0187
 2695TIP3    H229577   4.882   3.617   6.233 -1.6642  0.9992 -1.0894
 2696TIP3   OH229578   2.161   3.950  14.419  0.0944 -0.5469 -0.0036
 2696TIP3    H129579   2.090   3.982  14.474 -0.0297 -2.2684  0.9237
 2696TIP3    H229580   2.168   4.014  14.349  0.2235  1.7302  1.9547
 2697TIP3   OH229581   3.359   4.320   4.622 -0.1845 -0.4253 -0.4631
 2697TIP3    H129582   3.432   4.374   4.654 -1.0187 -0.6348  2.0849
 2697TIP3    H229583   3.365   4.325   4.527  1.0164  2.4631 -0.3411
 2698TIP3   OH229584   2.862   4.954   2.052  0.2439  0.5620  0.0197
 2698TIP3    H129585   2.880   4.913   2.137  0.9359  0.9617  0.0715
 2698TIP3    H229586   2.945   4.951   2.005  0.1094  1.2057 -0.2764
 2699TIP3   OH229587   5.968   5.650   2.273 -0.0179  0.3548  0.0143
 2699TIP3    H129588   5.996   5.725   2.325 -1.7563  1.0710 -0.0082
 2699TIP3    H229589   5.901   5.685   2.215 -0.0908 -1.0051 -0.7625
 2700TIP3   OH229590   0.213   4.953   0.250 -0.1198 -0.3569  0.1735
 2700TIP3    H129591   0.168   5.032   0.219 -0.9162 -0.7097  0.4097
 2700TIP3    H229592   0.226   4.900   0.171  1.9393  0.7215 -0.2810
 2701TIP3   OH229593   5.516   6.210  16.096 -0.2191 -0.4455 -0.0211
 2701TIP3    H129594   5.431   6.221  16.139  0.1438 -1.3482  0.9695
 2701TIP3    H229595   5.558   6.139  16.144  1.1622  0.0816 -0.4099
 2702TIP3   OH229596   1.506   6.653  13.857  0.4285  0.0733  0.0506
 2702TIP3    H129597   1.597   6.683  13.852  0.2094  0.6159 -1.1431
 2702TIP3    H229598   1.493   6.629  13.949  0.9499  2.6618  0.8889
 2703TIP3   OH229599   6.468   5.649   0.236 -0.1606  0.0817 -0.0240
 2703TIP3    H129600   6.528   5.631   0.309 -0.8562 -0.7338  0.3613
 2703TIP3    H229601   6.435   5.563   0.210 -0.4189  0.4275 -0.8820
 2704TIP3   OH229602   2.612   6.548  13.296  0.6595 -0.3322 -0.2578
 2704TIP3    H129603   2.600   6.627  13.348 -0.2603  0.5225 -1.7141
 2704TIP3    H229604   2.527   6.533  13.255  0.7984 -2.1249  0.0291
 2705TIP3   OH229605   5.511   4.750  13.226  0.3093 -0.2405 -0.4844
 2705TIP3    H129606   5.598   4.717  13.248  0.4126 -0.3714 -1.0669
 2705TIP3    H229607   5.508   4.746  13.130 -0.5772 -0.8411 -0.4308
 2706TIP3   OH229608   1.003   5.113  12.900 -0.4081 -0.1270  0.7258
 2706TIP3    H129609   1.057   5.067  12.835  2.0990 -0.7089  3.0595
 2706TIP3    H229610   0.948   5.044  12.937 -0.7160 -0.1023  0.3211
 2707TIP3   OH229611   6.725   2.437  15.029  1.1379 -0.5636  0.3869
 2707TIP3    H129612   6.784   2.485  15.087  2.7077 -1.2741 -0.5497
 2707TIP3    H229613   6.743   2.472  14.942 -2.6001  1.9464  0.3736
 2708TIP3   OH229614   3.104   3.058  13.138  0.2338 -0.1675  0.0656
 2708TIP3    H129615   3.138   2.969  13.125  2.0798  0.3312  1.0766
 2708TIP3    H229616   3.138   3.108  13.063  0.6159  0.0358  0.3693
 2709TIP3   OH229617   5.054   0.344  16.397 -0.6035 -0.6762 -0.8953
 2709TIP3    H129618   5.058   0.269  16.338 -1.8719  1.0318 -3.3364
 2709TIP3    H229619   5.129   0.399  16.372 -0.7554 -0.2546 -0.4510
 2710TIP3   OH229620   3.821   1.684   3.457  0.7655  0.0816 -0.4195
 2710TIP3    H129621   3.762   1.759   3.470 -0.9132 -0.9198 -1.7558
 2710TIP3    H229622   3.829   1.676   3.362 -0.1909 -2.1950 -0.3819
 2711TIP3   OH229623   1.674   6.095   6.031 -0.7263 -0.7205 -0.0146
 2711TIP3    H129624   1.600   6.073   5.975 -1.3547 -0.1821  0.5674
 2711TIP3    H229625   1.643   6.172   6.081  0.7194  0.3781 -0.7441
 2712TIP3   OH229626   0.569   1.725  10.686 -0.4264  0.4076  0.3768
 2712TIP3    H129627   0.532   1.811  10.668  0.4708  0.4714 -1.4036
 2712TIP3    H229628   0.558   1.676  10.604 -0.5342 -1.0291  1.2197
 2713TIP3   OH229629   2.832   1.295  14.313  0.0760 -0.3154 -0.4397
 2713TIP3    H129630   2.837   1.383  14.349  2.0389 -0.0475 -1.2463
 2713TIP3    H229631   2.740   1.285  14.288 -0.4200  1.0608  0.6907
 2714TIP3   OH229632   2.189   0.116   3.610 -0.2860  0.0966 -0.1094
 2714TIP3    H129633   2.237   0.184   3.658  0.0456 -0.0031 -0.2895
 2714TIP3    H229634   2.230   0.115   3.523  0.9959 -1.5885  0.4419
 2715TIP3   OH229635   3.937   3.568   4.302  0.0870  0.8589 -0.0226
 2715TIP3    H129636   3.881   3.597   4.231  1.9561  0.7893 -1.6093
 2715TIP3    H229637   3.914   3.476   4.316  0.7538  0.4188 -1.6434
 2716TIP3   OH229638   1.869   6.097  15.605 -0.6774  0.1598  0.4359
 2716TIP3    H129639   1.858   6.042  15.682  2.3146 -1.5983 -0.2216
 2716TIP3    H229640   1.813   6.057  15.538  0.3288 -1.2426  0.3988
 2717TIP3   OH229641   4.709   3.823  12.861  0.2249 -0.1064 -0.5008
 2717TIP3    H129642   4.654   3.819  12.783  1.4209  1.3089 -1.4820
 2717TIP3    H229643   4.650   3.851  12.931 -0.8397 -1.2665 -0.9049
 2718TIP3   OH229644   4.288   6.237   2.305 -0.2657  0.6379 -0.2187
 2718TIP3    H129645   4.277   6.287   2.224 -1.9265  3.9321  1.8032
 2718TIP3    H229646   4.379   6.252   2.330  0.0361  0.2392 -1.0354
 2719TIP3   OH229647   4.533   2.939  14.638  0.3719 -0.2417  0.5796
 2719TIP3    H129648   4.474   2.865  14.626 -0.3492  0.3501  0.3892
 2719TIP3    H229649   4.595   2.910  14.705  0.9858 -1.5330 -0.5129
 2720TIP3   OH229650   2.309   6.766  12.635  0.0524  0.5019 -0.0062
 2720TIP3    H129651   2.289   6.855  12.610 -0.2716  0.8288  1.3438
 2720TIP3    H229652   2.316   6.768  12.730 -1.2989 -1.1759  0.1806
 2721TIP3   OH229653   2.551   5.523   0.057 -0.2486  0.3821 -0.5999
 2721TIP3    H129654   2.544   5.504  -0.037 -0.3016  2.6634 -1.1045
 2721TIP3    H229655   2.461   5.522   0.088 -0.2205 -0.5443 -0.4951
 2722TIP3   OH229656   1.341   5.922   3.710 -0.1841 -0.2405  0.2880
 2722TIP3    H129657   1.267   5.906   3.769  0.3988 -0.3931  0.9934
 2722TIP3    H229658   1.309   5.897   3.623 -1.7670  1.9852  0.1550
 2723TIP3   OH229659   0.605   2.031   0.443  0.4209 -0.3543 -0.5771
 2723TIP3    H129660   0.537   2.073   0.496  1.6602 -1.2939  1.8972
 2723TIP3    H229661   0.592   2.066   0.355 -0.9422  2.3060  0.5814
 2724TIP3   OH229662   2.369   4.992  13.812  0.5656 -0.1109 -0.1433
 2724TIP3    H129663   2.407   4.907  13.792 -0.8981 -0.6664 -0.7476
 2724TIP3    H229664   2.404   5.015  13.898  1.2041 -1.1786 -0.1008
 2725TIP3   OH229665   3.601   3.348  12.134  0.0751 -0.0704 -0.0508
 2725TIP3    H129666   3.588   3.389  12.219  0.0576  1.0229 -0.5652
 2725TIP3    H229667   3.516   3.309  12.112 -0.0091 -0.0771  0.2898
 2726TIP3   OH229668   2.512   5.381   3.058  0.5883 -0.3435 -0.4198
 2726TIP3    H129669   2.542   5.457   3.007  1.2416  0.5009  1.1491
 2726TIP3    H229670   2.567   5.381   3.136 -0.4550 -1.5202  0.3599
 2727TIP3   OH229671   2.820   3.320   5.192  0.0598 -0.1792 -0.0264
 2727TIP3    H129672   2.883   3.298   5.261 -0.6849  2.1718  1.5480
 2727TIP3    H229673   2.746   3.262   5.207  0.0720  0.0417  0.9271
 2728TIP3   OH229674   5.504   2.397  16.345 -0.4356 -0.3404 -0.2976
 2728TIP3    H129675   5.415   2.383  16.377 -0.4516  0.2591 -0.0704
 2728TIP3    H229676   5.544   2.454  16.411  0.0752 -0.5018 -0.4645
 2729TIP3   OH229677   5.492   4.737  12.283 -0.1900 -0.9142  0.0967
 2729TIP3    H129678   5.411   4.776  12.248 -0.3000 -0.5698  0.7351
 2729TIP3    H229679   5.561   4.797  12.257 -0.3802 -0.1911  1.2300
 2730TIP3   OH229680   6.014   6.384   2.005  0.0204  0.2441  1.2826
 2730TIP3    H129681   5.996   6.371   1.912  1.0045  1.0536  0.9668
 2730TIP3    H229682   6.104   6.415   2.009 -0.0234  0.2855  2.5061
 2731TIP3   OH229683   0.130   3.870   0.153 -0.0956  0.3101  0.0780
 2731TIP3    H129684   0.043   3.843   0.123 -0.5868  0.3133  1.4080
 2731TIP3    H229685   0.122   3.964   0.167  0.3159  0.4191 -0.3975
 2732TIP3   OH229686   1.180   4.874   0.153  0.1309 -0.0326 -0.0977
 2732TIP3    H129687   1.183   4.944   0.218 -0.4473  0.6121 -0.7513
 2732TIP3    H229688   1.169   4.794   0.205 -2.1681  0.6172  0.5470
 2733TIP3   OH229689   0.444   1.943   4.546  0.6497 -0.4342  0.2322
 2733TIP3    H129690   0.375   1.879   4.565 -0.9272  0.9643 -0.4721
 2733TIP3    H229691   0.494   1.950   4.627 -0.6721 -0.7628  1.1070
 2734TIP3   OH229692   4.879   0.911  14.863  0.9079  0.5241 -0.3492
 2734TIP3    H129693   4.958   0.897  14.915  1.5300  1.4129 -1.0217
 2734TIP3    H229694   4.817   0.951  14.924  1.0363 -0.0089  0.1345
 2735TIP3   OH229695   2.937   6.560   0.648 -0.0357  0.0780  0.4897
 2735TIP3    H129696   2.856   6.602   0.680  0.6554  0.9458  1.1513
 2735TIP3    H229697   2.980   6.628   0.596 -0.1775 -0.6929 -0.6735
 2736TIP3   OH229698   4.875   0.441  10.705  0.3034 -0.2477 -0.5956
 2736TIP3    H129699   4.851   0.534  10.706 -0.7954 -0.4759  1.3882
 2736TIP3    H229700   4.822   0.403  10.776  1.2871 -2.2419 -0.8791
 2737TIP3   OH229701   1.788   0.331   2.462  0.2617  0.1925 -0.2790
 2737TIP3    H129702   1.739   0.410   2.442 -0.0856 -0.1596 -0.8381
 2737TIP3    H229703   1.834   0.309   2.381 -0.1169 -0.5102 -0.3089
 2738TIP3   OH229704   3.981   5.777  13.769 -0.2859  0.0786  0.3887
 2738TIP3    H129705   4.017   5.689  13.755  1.1948  0.9921 -2.2672
 2738TIP3    H229706   4.051   5.825  13.812  0.3607  0.9082 -1.5285
 2739TIP3   OH229707   6.369   2.076  15.087  0.2314  0.5084 -0.1663
 2739TIP3    H129708   6.410   2.162  15.088  0.2166  0.5527  2.4384
 2739TIP3    H229709   6.420   2.024  15.149  0.3138 -1.4528 -1.7648
 2740TIP3   OH229710   6.559   5.253   4.165 -0.6773  0.8024 -0.1463
 2740TIP3    H129711   6.598   5.263   4.079  0.1072  3.1093  0.4031
 2740TIP3    H229712   6.466   5.271   4.152 -0.4037  2.1684 -0.3879
 2741TIP3   OH229713   1.983   1.889   4.599 -0.9818 -0.3523  0.6968
 2741TIP3    H129714   2.051   1.832   4.633  0.5002  1.0629  0.2497
 2741TIP3    H229715   1.906   1.869   4.652  0.3389 -0.5412  2.6379
 2742TIP3   OH229716   1.123   0.805  14.946 -0.1838 -0.3413  0.2696
 2742TIP3    H129717   1.045   0.755  14.969  0.3013 -2.3534 -2.0380
 2742TIP3    H229718   1.196   0.753  14.980  0.3170 -1.2544 -1.9878
 2743TIP3   OH229719   5.066   6.066   0.051  0.5429 -0.3281  0.0900
 2743TIP3    H129720   5.128   5.993   0.059  1.0328  0.1835  1.1744
 2743TIP3    H229721   5.106   6.124  -0.014  0.4643 -0.7012 -0.3000
 2744TIP3   OH229722   6.703   0.245  14.144  0.6982  0.3217 -0.1803
 2744TIP3    H129723   6.783   0.195  14.153  0.5053  0.1223  0.4589
 2744TIP3    H229724   6.717   0.324  14.197  0.4617  0.2707 -0.0380
 2745TIP3   OH229725   2.476   3.305  14.856 -0.0833 -0.0095 -0.1031
 2745TIP3    H129726   2.510   3.300  14.946 -0.1008 -1.4099 -0.1557
 2745TIP3    H229727   2.461   3.399  14.842 -0.8632  0.1900  1.6579
 2746TIP3   OH229728   1.316   3.862   5.913  0.4078 -0.2935 -0.6347
 2746TIP3    H129729   1.330   3.865   5.818  0.9395  0.0282 -0.5481
 2746TIP3    H229730   1.399   3.831   5.949  0.0855 -0.7773 -0.2981
 2747TIP3   OH229731   3.913   3.495  14.053  0.3107 -0.1672  0.0881
 2747TIP3    H129732   3.965   3.501  13.973 -0.4395  1.5312 -0.3179
 2747TIP3    H229733   3.860   3.416  14.042 -0.2558  0.3954 -1.4064
 2748TIP3   OH229734   4.675   1.705   5.447  0.0131 -0.3954 -0.0788
 2748TIP3    H129735   4.672   1.658   5.531 -1.1882  0.7972  0.5959
 2748TIP3    H229736   4.688   1.796   5.472 -1.2405  0.1008 -1.1200
 2749TIP3   OH229737   0.746   0.599   0.664  0.1642  0.0686 -0.0392
 2749TIP3    H129738   0.833   0.631   0.638  0.0172 -0.6144 -1.4550
 2749TIP3    H229739   0.743   0.509   0.631 -1.5911  0.5365 -1.2528
 2750TIP3   OH229740   6.267   4.783   5.639  0.2140 -0.2012 -0.1002
 2750TIP3    H129741   6.316   4.851   5.593  0.0814 -0.4250 -0.5750
 2750TIP3    H229742   6.179   4.787   5.602 -0.6206  1.3076  1.8839
 2751TIP3   OH229743   2.289   5.320  15.510  0.0736 -0.5786  0.0080
 2751TIP3    H129744   2.197   5.314  15.484  0.3641 -0.6505 -1.0654
 2751TIP3    H229745   2.287   5.353  15.600 -0.9929 -0.3335 -0.0968
 2752TIP3   OH229746   5.065   0.679  16.010  0.1101  0.3183  0.3486
 2752TIP3    H129747   5.038   0.587  16.019 -0.4007  0.5623  1.4267
 2752TIP3    H229748   5.084   0.707  16.100 -0.1245  1.3866  0.0723
 2753TIP3   OH229749   1.692   3.440   0.644  0.1228 -0.0373 -0.0146
 2753TIP3    H129750   1.639   3.363   0.665 -0.8409  0.3107 -1.0630
 2753TIP3    H229751   1.634   3.514   0.661  1.0074  0.4770  0.8966
 2754TIP3   OH229752   1.012   3.763  12.941  0.0031 -0.5268 -0.7691
 2754TIP3    H129753   1.104   3.766  12.916  0.5658 -1.1013  1.0766
 2754TIP3    H229754   0.980   3.853  12.927  1.4137  0.2097  0.5294
 2755TIP3   OH229755   6.257   5.238  10.760 -0.0319  0.1075 -0.5791
 2755TIP3    H129756   6.345   5.246  10.724  0.4831  1.3166  0.8245
 2755TIP3    H229757   6.217   5.324  10.744  0.4849  0.9851  2.2490
 2756TIP3   OH229758   1.840   6.450  16.582 -0.6985  0.0477 -0.1158
 2756TIP3    H129759   1.812   6.457  16.673 -2.6117 -0.0602 -0.6546
 2756TIP3    H229760   1.769   6.490  16.531 -0.8746 -2.0547 -1.6916
 2757TIP3   OH229761   2.269   1.021   0.539  0.2358  0.7228 -0.2886
 2757TIP3    H129762   2.301   0.976   0.617 -1.6931  0.7731  0.5887
 2757TIP3    H229763   2.330   1.094   0.526  2.9118 -1.5465 -1.2367
 2758TIP3   OH229764   5.781   3.316   4.022 -0.7866  0.3189 -0.1880
 2758TIP3    H129765   5.797   3.378   3.951 -1.3711 -0.3031 -0.8899
 2758TIP3    H229766   5.687   3.325   4.041 -0.6268  0.4969  0.5218
 2759TIP3   OH229767   5.210   3.504  15.389 -0.0936  0.5737  0.0438
 2759TIP3    H129768   5.266   3.445  15.439  0.6325  2.1621  1.2149
 2759TIP3    H229769   5.131   3.453  15.370 -0.3755 -0.1755  2.7803
 2760TIP3   OH229770   6.153   3.485  11.223 -0.1480  0.1984 -0.7308
 2760TIP3    H129771   6.088   3.436  11.273  1.9222 -1.6149  0.3512
 2760TIP3    H229772   6.176   3.427  11.150 -1.2288  1.7334 -2.4043
 2761TIP3   OH229773   2.056   4.408  15.939  0.6867  0.3004 -0.1682
 2761TIP3    H129774   2.029   4.349  15.869 -0.5243  0.9129 -0.2502
 2761TIP3    H229775   2.024   4.367  16.019  0.8314  0.2954 -0.1120
 2762TIP3   OH229776   0.888   0.423  14.636 -0.5409 -0.0148  0.6537
 2762TIP3    H129777   0.843   0.383  14.562 -2.5548  0.2365  1.6913
 2762TIP3    H229778   0.914   0.510  14.603  1.4985 -1.0469 -0.7355
 2763TIP3   OH229779   2.542   6.161  10.356  0.1469 -0.2857  0.1440
 2763TIP3    H129780   2.594   6.082  10.365 -0.5491 -0.6443  1.0913
 2763TIP3    H229781   2.582   6.224  10.416  1.1076  0.3217 -1.0914
 2764TIP3   OH229782   3.494   1.045   1.595  0.9178  0.3657 -0.4433
 2764TIP3    H129783   3.525   1.131   1.567 -1.2087  0.6629 -2.1756
 2764TIP3    H229784   3.426   1.064   1.659 -0.4823  0.0798 -1.8035
 2765TIP3   OH229785   5.335   4.982   0.826  0.0630 -0.4987 -0.2675
 2765TIP3    H129786   5.270   4.932   0.875 -0.1290  0.0357  0.0339
 2765TIP3    H229787   5.296   4.995   0.740  0.2916 -1.2182 -0.4895
 2766TIP3   OH229788   4.812   3.722  16.327  0.7755  0.4318 -0.2617
 2766TIP3    H129789   4.811   3.772  16.246  0.9163 -0.5706 -0.9063
 2766TIP3    H229790   4.901   3.686  16.332  0.7564  0.4486  0.3154
 2767TIP3   OH229791   4.119   5.485  16.088 -0.1690 -0.0710  1.0063
 2767TIP3    H129792   4.071   5.524  16.161  0.9126  0.0644  1.6714
 2767TIP3    H229793   4.183   5.427  16.130  0.1835 -0.3180  0.1439
 2768TIP3   OH229794   5.623   5.130  12.857 -0.1603  0.1779  0.9866
 2768TIP3    H129795   5.626   5.082  12.940 -0.7434 -2.0673 -0.2147
 2768TIP3    H229796   5.594   5.065  12.793 -0.8237  2.1283 -0.7946
 2769TIP3   OH229797   2.520   3.052   1.054  0.6171 -0.1156  0.3033
 2769TIP3    H129798   2.528   3.001   0.974 -2.0857  0.0891 -0.2074
 2769TIP3    H229799   2.552   3.139   1.031 -1.2038  0.2761 -1.0037
 2770TIP3   OH229800   1.372   2.388   0.538 -0.0517  0.1603  0.0100
 2770TIP3    H129801   1.406   2.319   0.481 -0.2832  2.2328 -2.8713
 2770TIP3    H229802   1.450   2.434   0.571  0.0748 -0.9127  1.2988
 2771TIP3   OH229803   0.083   0.420   2.288 -0.3678 -0.3811  0.4357
 2771TIP3    H129804   0.045   0.505   2.310 -1.5890 -0.3367 -1.5808
 2771TIP3    H229805   0.168   0.441   2.249  0.6168 -0.3140  2.4951
 2772TIP3   OH229806   5.597   0.826   5.422 -0.0980 -0.1082  0.1668
 2772TIP3    H129807   5.581   0.830   5.328 -2.0155 -1.0623  0.4009
 2772TIP3    H229808   5.510   0.830   5.462  0.6622  0.2179  1.9106
 2773TIP3   OH229809   2.406   2.665   3.572 -0.2187  0.4395  0.4802
 2773TIP3    H129810   2.452   2.729   3.518 -0.3786  2.0395  2.1662
 2773TIP3    H229811   2.341   2.626   3.513 -0.1809  1.8948 -0.5624
 2774TIP3   OH229812   6.638   4.660   1.636  0.0941  0.3542 -0.3292
 2774TIP3    H129813   6.572   4.591   1.636 -0.4064  0.8026  1.1878
 2774TIP3    H229814   6.718   4.616   1.664 -0.4867  0.5604  1.8560
 2775TIP3   OH229815   0.616   0.835  12.010  0.6376 -0.0775 -0.2758
 2775TIP3    H129816   0.682   0.799  12.069  0.1370  1.0380  0.9982
 2775TIP3    H229817   0.655   0.825  11.923  1.2513 -2.0594  0.1608
 2776TIP3   OH229818   4.295   1.927   2.083  0.0997 -0.1580  0.7183
 2776TIP3    H129819   4.376   1.977   2.078 -0.6297  1.0409  0.5577
 2776TIP3    H229820   4.231   1.988   2.119 -1.2683 -0.3598 -1.2159
 2777TIP3   OH229821   0.623   0.182  13.400  0.2058 -0.4332  0.0209
 2777TIP3    H129822   0.677   0.254  13.432  1.2599 -0.6354 -1.1856
 2777TIP3    H229823   0.562   0.222  13.338 -0.8120 -0.2630  1.0955
 2778TIP3   OH229824   3.201   4.422   3.978 -0.4028  0.3340  0.2479
 2778TIP3    H129825   3.283   4.442   4.023 -1.0933  0.3569  1.5389
 2778TIP3    H229826   3.137   4.481   4.017 -1.1644 -0.1118 -0.3018
 2779TIP3   OH229827   4.377   1.439  12.697  0.2163  0.1182  0.4086
 2779TIP3    H129828   4.370   1.355  12.742  0.9013  0.5683  1.4056
 2779TIP3    H229829   4.404   1.416  12.608 -2.3186 -0.8571 -0.1843
 2780TIP3   OH229830   0.008   3.400   3.594  0.0221  0.4823 -0.4851
 2780TIP3    H129831  -0.025   3.354   3.517 -1.5108 -0.4423  0.6642
 2780TIP3    H229832  -0.070   3.434   3.637  0.5360 -1.2072  1.9985
 2781TIP3   OH229833   5.162   5.979  11.544 -0.3458  0.4770  0.1046
 2781TIP3    H129834   5.111   5.953  11.467  0.5583 -2.1346  0.2977
 2781TIP3    H229835   5.106   5.960  11.618 -0.7370  1.8328  0.1898
 2782TIP3   OH229836   3.016   2.994   5.189 -0.5401  0.3850 -0.0796
 2782TIP3    H129837   3.065   3.049   5.250 -1.9236  0.4338  1.0627
 2782TIP3    H229838   3.036   2.904   5.217 -0.9451  0.4012  0.2763
 2783TIP3   OH229839   6.757   3.301  14.633 -1.1304 -0.1293  0.4900
 2783TIP3    H129840   6.761   3.324  14.726 -0.5647  0.0681  0.4227
 2783TIP3    H229841   6.764   3.384  14.587 -0.6945 -0.2846  0.2648
 2784TIP3   OH229842   5.696   2.888   4.866 -0.1675 -0.1532 -0.1593
 2784TIP3    H129843   5.748   2.828   4.920 -1.3685 -0.0227  1.1990
 2784TIP3    H229844   5.720   2.975   4.899  0.5288  0.0582 -1.1771
 2785TIP3   OH229845   5.390   6.690  16.732  0.5164  0.2131  0.2257
 2785TIP3    H129846   5.478   6.652  16.730  1.2567  1.8681 -1.0580
 2785TIP3    H229847   5.384   6.741  16.652 -1.9043 -0.3883 -0.0587
 2786TIP3   OH229848   5.154   1.865   4.102 -0.5185 -0.5111  0.0073
 2786TIP3    H129849   5.093   1.893   4.034  0.9477 -1.4733 -1.8171
 2786TIP3    H229850   5.163   1.771   4.088  0.2336 -0.6467  1.2312
 2787TIP3   OH229851   1.238   5.881   0.594  0.1180  0.0188  0.1717
 2787TIP3    H129852   1.198   5.958   0.633  0.0577 -0.5091  1.2034
 2787TIP3    H229853   1.173   5.812   0.606 -0.5062  0.1263 -2.1636
 2788TIP3   OH229854   1.811   3.810  16.029 -0.3819  0.1747 -0.7903
 2788TIP3    H129855   1.737   3.859  16.063 -2.3186 -3.5874  1.0027
 2788TIP3    H229856   1.878   3.815  16.098 -0.6534  0.1076 -0.5231
 2789TIP3   OH229857   6.007   1.727  13.058  0.7359 -0.4642 -0.4208
 2789TIP3    H129858   6.055   1.685  13.130 -0.3818 -1.8850 -0.4789
 2789TIP3    H229859   5.931   1.767  13.100  2.2161  2.4449 -0.2101
 2790TIP3   OH229860   6.674   4.652  13.623  0.7167 -0.3521 -0.0067
 2790TIP3    H129861   6.659   4.650  13.528  1.9092 -0.5327 -0.2067
 2790TIP3    H229862   6.743   4.717  13.635  0.3695 -0.1194  0.7772
 2791TIP3   OH229863   2.519   5.682  16.854  0.4238  0.0603  0.5049
 2791TIP3    H129864   2.473   5.751  16.901  0.5698  0.2645  0.3483
 2791TIP3    H229865   2.550   5.622  16.922  0.5867  0.3244  0.6633
 2792TIP3   OH229866   2.286   1.656  14.950 -0.1811 -0.2237 -0.2921
 2792TIP3    H129867   2.236   1.599  15.007 -3.0269  2.9208  0.6452
 2792TIP3    H229868   2.324   1.722  15.008 -0.1413  0.9997 -1.6511
 2793TIP3   OH229869   5.891   6.129  13.705  0.2305 -0.2065 -0.8370
 2793TIP3    H129870   5.892   6.065  13.633 -0.2792 -1.0461 -0.1150
 2793TIP3    H229871   5.983   6.150  13.719  0.3027  0.3981 -2.1022
 2794TIP3   OH229872   6.232   5.419  16.422  0.3504 -0.3983  0.3702
 2794TIP3    H129873   6.165   5.480  16.454  1.1415 -0.0314  1.3925
 2794TIP3    H229874   6.194   5.380  16.344 -0.3253  1.1655 -0.1223
 2795TIP3   OH229875   1.236   4.357  11.357  0.3929  0.0827 -0.1374
 2795TIP3    H129876   1.297   4.429  11.367  2.1827 -1.3899  0.1628
 2795TIP3    H229877   1.223   4.324  11.446  0.6136 -0.7399 -0.3998
 2796TIP3   OH229878   1.347   3.493   2.930  0.2693 -0.1847  0.0276
 2796TIP3    H129879   1.355   3.461   3.020  1.5788 -1.6982 -0.5852
 2796TIP3    H229880   1.436   3.520   2.907  0.1799 -0.9084 -1.2029
 2797TIP3   OH229881   4.092   5.145  14.267 -0.1275  0.4653  0.3443
 2797TIP3    H129882   4.063   5.232  14.239  0.0443  0.4168  0.0083
 2797TIP3    H229883   4.011   5.095  14.277 -0.3193  1.0346  1.8154
 2798TIP3   OH229884   0.269   0.261   3.581  0.1682  0.1587 -0.2001
 2798TIP3    H129885   0.260   0.204   3.657 -2.3227 -0.5667 -0.9570
 2798TIP3    H229886   0.306   0.205   3.513 -2.3390 -0.7067 -0.9636
 2799TIP3   OH229887   4.641   3.156   2.473 -0.1199  0.4990  0.3158
 2799TIP3    H129888   4.732   3.151   2.504 -0.4097 -0.6368  1.0254
 2799TIP3    H229889   4.641   3.101   2.394 -0.8796 -2.2930  2.1281
 2800TIP3   OH229890   3.431   4.567  12.908 -0.2799  0.2962  0.1784
 2800TIP3    H129891   3.424   4.490  12.852 -1.6360  1.2139 -0.9860
 2800TIP3    H229892   3.483   4.629  12.856 -1.5489  1.1572 -0.1008
 2801TIP3   OH229893   2.967   4.216   5.388 -0.3176  0.0012  0.2639
 2801TIP3    H129894   2.936   4.291   5.337 -1.7345 -0.3545  0.5663
 2801TIP3    H229895   2.995   4.153   5.321 -0.7205  0.1317 -0.0314
 2802TIP3   OH229896   4.207   0.861  11.628  0.3876 -0.8097  0.3679
 2802TIP3    H129897   4.178   0.920  11.698  3.9012  0.7873  0.7281
 2802TIP3    H229898   4.172   0.900  11.547 -0.5554 -0.4913  0.9212
 2803TIP3   OH229899   4.309   0.466  15.215 -0.2088 -0.8272 -0.0338
 2803TIP3    H129900   4.249   0.527  15.171  1.4893  0.7810 -0.3061
 2803TIP3    H229901   4.287   0.472  15.307  1.1418  1.8337  0.2217
 2804TIP3   OH229902   5.552   2.787  14.238  0.0319 -0.1778 -0.0110
 2804TIP3    H129903   5.539   2.714  14.179 -0.0084 -0.4237  0.3001
 2804TIP3    H229904   5.643   2.815  14.223 -0.2524  0.3420 -0.8352
 2805TIP3   OH229905   5.357   4.334   3.681  0.5342 -0.0986 -0.1508
 2805TIP3    H129906   5.392   4.312   3.595  2.8465 -0.4845  0.8042
 2805TIP3    H229907   5.412   4.407   3.711 -0.6523  0.4599  0.7440
 2806TIP3   OH229908   4.443   0.418  11.780  0.3429  0.5180 -0.3439
 2806TIP3    H129909   4.397   0.499  11.802  1.2868  1.3632 -1.3553
 2806TIP3    H229910   4.512   0.410  11.845 -1.5602 -1.1295  1.6150
 2807TIP3   OH229911   1.923   2.982  15.221  0.0998 -0.4931  0.2453
 2807TIP3    H129912   1.978   2.927  15.277  1.7011 -1.1407 -1.8039
 2807TIP3    H229913   1.911   2.930  15.141 -0.1666  1.2386 -0.9127
 2808TIP3   OH229914   5.470   0.574  15.039 -0.4516  0.0439  0.2536
 2808TIP3    H129915   5.544   0.565  15.099  0.2389  0.0575 -0.5665
 2808TIP3    H229916   5.396   0.536  15.085  0.8513 -3.6575 -0.3739
 2809TIP3   OH229917   4.462   0.251   4.190  0.1002  0.4762 -0.0346
 2809TIP3    H129918   4.449   0.331   4.241 -1.7372  0.1975  0.0195
 2809TIP3    H229919   4.413   0.266   4.109 -1.9026 -1.2498  0.7680
 2810TIP3   OH229920   2.411   2.975   6.136 -0.0321 -0.2270  0.1639
 2810TIP3    H129921   2.465   2.956   6.213  0.1896 -2.1849 -0.4342
 2810TIP3    H229922   2.449   3.055   6.099  2.2289 -1.3380 -0.0241
 2811TIP3   OH229923   5.613   4.504  12.772  0.2946 -0.1113  0.2660
 2811TIP3    H129924   5.664   4.503  12.691  0.3696  0.8300  0.2951
 2811TIP3    H229925   5.524   4.483  12.745  0.4392 -0.4573  0.0403
 2812TIP3   OH229926   6.132   2.063   3.425 -0.3448  0.2449 -0.0610
 2812TIP3    H129927   6.162   2.152   3.442 -1.3722  0.4236  0.9221
 2812TIP3    H229928   6.171   2.010   3.495 -0.5244  0.1011 -0.0673
 2813TIP3   OH229929   1.066   4.289   4.521  0.0552 -0.4132  1.0687
 2813TIP3    H129930   1.124   4.289   4.444 -1.5492 -1.4304 -0.2015
 2813TIP3    H229931   1.094   4.212   4.571  0.9888  0.1523  1.4514
 2814TIP3   OH229932   2.975   4.537   2.561 -0.0562 -0.5554 -0.3172
 2814TIP3    H129933   3.050   4.479   2.543  1.0182  0.7311 -0.1424
 2814TIP3    H229934   2.943   4.507   2.646  0.0320 -1.3628 -0.5621
 2815TIP3   OH229935   4.820   0.020   5.757  0.0097 -0.3265  0.1404
 2815TIP3    H129936   4.729  -0.011   5.751 -0.5873  1.3935 -0.7368
 2815TIP3    H229937   4.845   0.035   5.666 -0.2756  2.9041  0.4611
 2816TIP3   OH229938   5.701   4.777  10.826  0.0219 -0.0921  0.2007
 2816TIP3    H129939   5.753   4.709  10.784  2.1803  0.4668  1.8247
 2816TIP3    H229940   5.726   4.857  10.781 -0.8825 -0.0483 -0.2490
 2817TIP3   OH229941   5.069   1.141  14.429  0.0886  0.0185 -0.3643
 2817TIP3    H129942   5.047   1.054  14.462  2.1779  0.2369  1.9020
 2817TIP3    H229943   5.163   1.149  14.445  0.2400  2.1408 -1.9399
 2818TIP3   OH229944   0.130   2.328  10.957 -0.1413 -0.2146  0.0919
 2818TIP3    H129945   0.066   2.354  10.890  2.1135 -1.0322 -2.5887
 2818TIP3    H229946   0.195   2.398  10.955 -0.1616 -0.1233  1.7139
 2819TIP3   OH229947   1.429   5.296   2.198 -0.0424  0.3864  0.9149
 2819TIP3    H129948   1.403   5.207   2.218 -0.1055 -0.4116 -2.2298
 2819TIP3    H229949   1.351   5.337   2.161  0.7107  0.8035 -0.2843
 2820TIP3   OH229950   5.051   3.478  14.600 -0.0168  0.7785 -0.3500
 2820TIP3    H129951   5.029   3.395  14.559  0.2530 -0.1522  1.2922
 2820TIP3    H229952   5.086   3.532  14.529  1.9646 -1.3023 -1.0544
 2821TIP3   OH229953   1.522   6.749   5.169 -0.6114  0.0973 -0.0455
 2821TIP3    H129954   1.589   6.727   5.233 -0.5491  2.4913  0.8416
 2821TIP3    H229955   1.548   6.705   5.089  3.1677  2.3759 -0.2965
 2822TIP3   OH229956   3.807   5.036  14.750 -0.3975  0.6185 -0.2295
 2822TIP3    H129957   3.889   4.991  14.764 -1.6353 -1.4384  0.8536
 2822TIP3    H229958   3.750   4.971  14.707 -1.4881  1.9652 -0.9404
 2823TIP3   OH229959   5.065   6.441  16.568 -0.0842 -0.3019 -0.7678
 2823TIP3    H129960   5.018   6.495  16.631 -0.0279 -0.2390 -0.7808
 2823TIP3    H229961   5.092   6.502  16.499  1.7669  0.0560  0.2068
 2824TIP3   OH229962   4.206   1.971   4.932  0.1854  0.5822 -0.1189
 2824TIP3    H129963   4.201   1.935   5.020 -0.6601  2.4137  0.6297
 2824TIP3    H229964   4.300   1.987   4.919  0.3720 -0.1710  0.2236
 2825TIP3   OH229965   5.133   6.246   1.085  0.0441 -0.2088 -0.2950
 2825TIP3    H129966   5.087   6.162   1.083  0.9453 -0.7223 -2.2534
 2825TIP3    H229967   5.081   6.302   1.027 -1.4113  1.1409  2.1654
 2826TIP3   OH229968   5.480   2.533   4.751  0.6031  0.3459  0.0007
 2826TIP3    H129969   5.561   2.495   4.784  0.3170 -0.6713 -0.4403
 2826TIP3    H229970   5.412   2.471   4.778  0.3789 -0.7077 -2.6930
 2827TIP3   OH229971   6.430   4.865   1.489 -0.2365  0.1247 -0.4158
 2827TIP3    H129972   6.460   4.858   1.579  0.5544 -1.9799 -0.7767
 2827TIP3    H229973   6.488   4.931   1.449 -1.2543  1.8377  0.8068
 2828TIP3   OH229974   5.444   3.599  14.720 -0.3401  0.3444 -0.4427
 2828TIP3    H129975   5.508   3.621  14.652  0.5326 -1.0261 -0.1128
 2828TIP3    H229976   5.459   3.665  14.788  0.7741  0.0163 -0.3484
 2829TIP3   OH229977   6.424   6.351  15.907 -0.0897  0.4281 -0.8734
 2829TIP3    H129978   6.388   6.433  15.943 -1.1865  0.4478 -1.9568
 2829TIP3    H229979   6.482   6.380  15.837  1.2679  0.3429  0.1659
 2830TIP3   OH229980   4.665   0.181   3.028 -0.4178 -0.0375 -0.5218
 2830TIP3    H129981   4.759   0.191   3.015 -0.5273  2.0685 -0.0718
 2830TIP3    H229982   4.654   0.175   3.123 -0.6741 -1.3997 -0.6218
 2831TIP3   OH229983   0.880   5.914  15.532 -0.6677 -0.0877 -0.2547
 2831TIP3    H129984   0.875   5.998  15.486 -0.3241 -0.2139 -0.5333
 2831TIP3    H229985   0.842   5.851  15.471 -2.0284  0.0418  0.4330
 2832TIP3   OH229986   3.599   1.993   4.566 -0.1535 -0.6712 -0.1451
 2832TIP3    H129987   3.538   2.065   4.581 -0.2269 -0.5808 -0.8310
 2832TIP3    H229988   3.543   1.918   4.549 -0.0748 -0.8080  0.1952
 2833TIP3   OH229989   0.349   1.764   1.390  0.3420 -0.0029  0.1179
 2833TIP3    H129990   0.274   1.756   1.332  0.2378  0.0478  0.2446
 2833TIP3    H229991   0.414   1.813   1.339 -0.1000  0.8694  0.3798
 2834TIP3   OH229992   6.234   0.411  14.590  0.0200 -0.4520  0.0264
 2834TIP3    H129993   6.292   0.375  14.522  0.1483  2.3263 -1.5058
 2834TIP3    H229994   6.149   0.419  14.546  0.0375  1.1294  0.2167
 2835TIP3   OH229995   3.132   4.785   3.027  0.4356  0.3950 -0.7417
 2835TIP3    H129996   3.048   4.831   3.029 -0.3353 -0.9393 -1.0733
 2835TIP3    H229997   3.139   4.754   2.937  0.0690 -1.6305 -0.1140
 2836TIP3   OH229998   4.808   5.531   6.423 -0.5727  0.7740 -0.8184
 2836TIP3    H129999   4.881   5.473   6.401  0.1061  1.5487 -0.6410
 2836TIP3    H230000   4.813   5.540   6.518  0.0448  2.0374 -0.9524
 2837TIP3   OH230001   3.215   2.412   2.412  0.6925  0.4485 -0.0232
 2837TIP3    H130002   3.264   2.422   2.494 -0.9633 -0.0145  1.0638
 2837TIP3    H230003   3.130   2.453   2.430 -0.8683 -2.3779 -0.3955
 2838TIP3   OH230004   5.324   0.814   2.826  0.0955  0.2318  1.0412
 2838TIP3    H130005   5.240   0.846   2.858  0.9872  1.3216  2.3728
 2838TIP3    H230006   5.381   0.890   2.828  1.2092 -0.5577  0.4071
 2839TIP3   OH230007   3.294   6.059  16.280  0.2348  0.4813  0.7609
 2839TIP3    H130008   3.381   6.045  16.317  0.4323  0.1530  0.1825
 2839TIP3    H230009   3.274   5.978  16.233 -0.6369  0.3225  1.3793
 2840TIP3   OH230010   5.136   5.351  16.501  0.0062 -0.1008 -0.1966
 2840TIP3    H130011   5.107   5.266  16.532 -0.8780  0.2221 -0.1133
 2840TIP3    H230012   5.063   5.385  16.449  1.1459 -0.2831 -2.0046
 2841TIP3   OH230013   4.498   0.746   4.055 -0.0645 -0.7047  0.0869
 2841TIP3    H130014   4.487   0.820   4.113  0.1351 -1.0652  0.5912
 2841TIP3    H230015   4.411   0.732   4.016 -0.2606 -0.6209  0.4909
 2842TIP3   OH230016   4.030   6.580   2.842  0.3600 -0.1871  0.1569
 2842TIP3    H130017   3.992   6.627   2.768  1.7631  3.0473  1.2773
 2842TIP3    H230018   3.972   6.506   2.857 -1.7468  0.8743 -2.1402
 2843TIP3   OH230019   0.495   1.165  12.581 -0.3420  1.0060 -0.7140
 2843TIP3    H130020   0.540   1.117  12.650  0.1012  2.3790 -0.0227
 2843TIP3    H230021   0.555   1.161  12.506  0.8103  2.4824  0.0783
 2844TIP3   OH230022   5.110   2.542   2.388  0.1425  0.3041 -0.0377
 2844TIP3    H130023   5.202   2.518   2.388  0.3443  1.0212  0.9138
 2844TIP3    H230024   5.064   2.463   2.359  0.9961 -0.3085  0.2539
 2845TIP3   OH230025   5.180   0.643   0.383 -0.1375 -0.8698  0.1854
 2845TIP3    H130026   5.156   0.671   0.295  1.2106 -1.3987 -0.3750
 2845TIP3    H230027   5.151   0.553   0.389 -0.5080 -0.7360  0.3923
 2846TIP3   OH230028   3.994   0.253   2.114 -0.4945 -0.3348 -0.0031
 2846TIP3    H130029   4.024   0.218   2.198 -1.0920 -0.5899  0.1110
 2846TIP3    H230030   3.961   0.176   2.067  0.4765 -0.3094 -0.7575
 2847TIP3   OH230031   0.123   3.456   4.993  0.0007  0.2375  0.1065
 2847TIP3    H130032   0.053   3.521   4.999 -0.8154 -0.1381 -3.2771
 2847TIP3    H230033   0.198   3.498   5.034 -1.3162  2.0544  0.7862
 2848TIP3   OH230034   1.084   1.399  13.938 -0.0277  0.1793  0.7128
 2848TIP3    H130035   1.054   1.314  13.970 -0.9009 -1.1025 -2.9739
 2848TIP3    H230036   1.179   1.397  13.950 -0.1560 -0.8444  1.7123
 2849TIP3   OH230037   0.356   4.284   6.065  0.0296  0.1167 -0.5121
 2849TIP3    H130038   0.353   4.349   6.135  0.6404 -1.2386  0.8143
 2849TIP3    H230039   0.430   4.228   6.087  0.0346 -0.5571 -2.0789
 2850TIP3   OH230040   0.324   1.062  11.534  0.4608 -1.0689 -0.3924
 2850TIP3    H130041   0.248   1.074  11.478  1.3757 -3.1961 -2.2541
 2850TIP3    H230042   0.398   1.091  11.482  1.1467 -1.0452  0.5597
 2851TIP3   OH230043   2.090   4.765   4.404 -0.0548  0.4057 -0.2477
 2851TIP3    H130044   2.082   4.746   4.498 -1.5251  2.0414  0.0118
 2851TIP3    H230045   2.179   4.738   4.382  0.0082 -0.9208  1.3803
 2852TIP3   OH230046   1.569   2.379   2.240 -0.6580  0.1820 -0.0157
 2852TIP3    H130047   1.514   2.415   2.171  0.9294 -1.1771 -2.0881
 2852TIP3    H230048   1.578   2.287   2.218 -0.1516 -0.3206  2.0856
 2853TIP3   OH230049   6.478   0.713   1.706  0.0207 -0.3475  0.4874
 2853TIP3    H130050   6.407   0.742   1.648 -0.2096 -0.8657  0.5108
 2853TIP3    H230051   6.435   0.661   1.773  0.3472 -0.1321  0.8718
 2854TIP3   OH230052   2.450   2.713  14.704  0.1397  0.2963  0.1855
 2854TIP3    H130053   2.507   2.646  14.667 -1.7449 -0.8042 -0.8907
 2854TIP3    H230054   2.377   2.664  14.743 -1.4395  1.6863 -0.8836
 2855TIP3   OH230055   2.009   6.222  16.673 -0.3204 -0.3138 -0.3042
 2855TIP3    H130056   1.975   6.311  16.682 -1.8808 -1.0173  1.6550
 2855TIP3    H230057   1.933   6.170  16.646 -0.0925 -1.4276  1.0787
 2856TIP3   OH230058   1.588   5.960  11.658 -0.2178  0.5071 -0.4058
 2856TIP3    H130059   1.620   6.047  11.681 -1.1025  0.7996 -0.2422
 2856TIP3    H230060   1.572   5.918  11.743 -0.0712  0.2908 -0.4851
 2857TIP3   OH230061   5.159   0.570  10.407 -0.2634 -0.3824 -0.2878
 2857TIP3    H130062   5.249   0.600  10.398  0.4121 -1.0925  2.9532
 2857TIP3    H230063   5.108   0.651  10.417  0.4257 -0.0476  0.5947
 2858TIP3   OH230064   1.183   4.355   4.203  0.3929 -0.1999 -0.4699
 2858TIP3    H130065   1.238   4.361   4.125  1.3780  1.2559  0.2670
 2858TIP3    H230066   1.219   4.282   4.252  0.1871 -0.7072 -1.0705
 2859TIP3   OH230067   3.980   0.678   0.415 -0.3209 -1.0370 -0.1222
 2859TIP3    H130068   3.918   0.723   0.358  0.2594 -0.3972 -0.2621
 2859TIP3    H230069   3.926   0.634   0.481 -0.9199 -0.6127 -0.3288
 2860TIP3   OH230070   3.258   0.079  16.007 -0.9249  0.4275  0.1128
 2860TIP3    H130071   3.298   0.077  16.094 -1.5471 -0.2757  0.3894
 2860TIP3    H230072   3.244  -0.013  15.985  0.0556  0.5541 -1.1277
 2861TIP3   OH230073   2.746   1.802   0.453 -0.1692 -0.4733  0.1479
 2861TIP3    H130074   2.718   1.877   0.400  0.0806 -1.0362 -0.8082
 2861TIP3    H230075   2.799   1.840   0.523 -1.4298  0.4037  0.6877
 2862TIP3   OH230076   2.007   5.523  12.485  0.1747 -0.2833 -0.3079
 2862TIP3    H130077   1.992   5.569  12.567 -0.4892 -1.6171  0.3506
 2862TIP3    H230078   1.961   5.575  12.419  2.3779  1.9083 -0.2496
 2863TIP3   OH230079   1.833   2.090   1.656  0.0069  0.2962  0.2736
 2863TIP3    H130080   1.790   2.004   1.656 -2.0012  1.2304  1.9810
 2863TIP3    H230081   1.855   2.106   1.748  1.2914  1.2026 -0.1611
 2864TIP3   OH230082   6.073   4.020   1.728  0.3443  0.3107 -0.1519
 2864TIP3    H130083   6.143   4.076   1.695 -0.8891  2.1506  0.2238
 2864TIP3    H230084   6.007   4.081   1.761 -1.3890 -1.3582 -0.3777
 2865TIP3   OH230085   4.727   3.895   3.987  0.0709  0.0085 -0.2780
 2865TIP3    H130086   4.779   3.824   4.026 -0.6713 -1.0369 -1.1463
 2865TIP3    H230087   4.722   3.962   4.056 -0.5728 -1.4678  1.1678
 2866TIP3   OH230088   2.726   5.854   2.649  0.4803  0.6295  0.3597
 2866TIP3    H130089   2.758   5.902   2.573  1.5261  1.6336  1.3911
 2866TIP3    H230090   2.633   5.843   2.633  0.0098  3.6800  0.3898
 2867TIP3   OH230091   1.359   3.577   5.568 -0.4669 -0.0855 -0.3279
 2867TIP3    H130092   1.399   3.541   5.647  0.4255  0.9228 -0.3007
 2867TIP3    H230093   1.353   3.502   5.508 -0.7951 -0.7671  0.5409
 2868TIP3   OH230094   6.197   4.898   1.879  0.2576 -1.1555  0.1862
 2868TIP3    H130095   6.147   4.976   1.905  0.5233 -1.0072  0.2571
 2868TIP3    H230096   6.168   4.880   1.790 -0.4006 -1.4570  0.4534
 2869TIP3   OH230097   4.843   5.797  16.219  0.4141 -0.2368 -1.0746
 2869TIP3    H130098   4.904   5.837  16.281  0.7984  0.7399 -2.0505
 2869TIP3    H230099   4.870   5.705  16.215  0.2472 -0.3702  0.3366
 2870TIP3   OH230100   0.880   1.310  17.143  0.1176  0.1668 -0.6801
 2870TIP3    H130101   0.848   1.273  17.060  0.1206 -3.0887  0.6131
 2870TIP3    H230102   0.803   1.353  17.180 -0.2954  0.3222 -1.6655
 2871TIP3   OH230103   0.045   4.166   2.134  0.2118 -0.0724 -0.9842
 2871TIP3    H130104   0.030   4.176   2.228  1.9797  3.3826 -0.9240
 2871TIP3    H230105   0.066   4.073   2.123  0.0358 -0.5670  2.0383
 2872TIP3   OH230106   2.025   0.541   4.669 -0.0611  0.0528  0.1881
 2872TIP3    H130107   2.042   0.452   4.638 -0.1020 -0.7845  2.4024
 2872TIP3    H230108   2.111   0.582   4.674 -0.0312  0.1180 -0.7110
 2873TIP3   OH230109   5.342   4.768  15.083  0.0160  0.1515 -0.1271
 2873TIP3    H130110   5.419   4.723  15.118  2.1700  2.2082 -1.8546
 2873TIP3    H230111   5.295   4.700  15.034  1.6902 -0.8151 -0.4746
 2874TIP3   OH230112   1.370   3.668  13.096 -0.1651 -0.6022  0.0304
 2874TIP3    H130113   1.295   3.631  13.143  0.6492 -0.3271  1.6091
 2874TIP3    H230114   1.413   3.724  13.160  1.7712 -1.2683 -0.6167
 2875TIP3   OH230115   0.715   2.191  12.019 -0.2979 -0.1541 -0.6629
 2875TIP3    H130116   0.748   2.188  11.929  0.3101  0.7475 -0.4957
 2875TIP3    H230117   0.757   2.269  12.057  0.7957 -1.4261  0.9169
 2876TIP3   OH230118   3.517   0.423   5.218 -0.0041 -0.3049  0.9462
 2876TIP3    H130119   3.456   0.490   5.187  0.4984 -0.9621 -1.7071
 2876TIP3    H230120   3.464   0.344   5.228 -0.1168 -0.1568  1.5536
 2877TIP3   OH230121   4.724   2.516   4.774  0.5087  0.6098  0.1905
 2877TIP3    H130122   4.818   2.524   4.761  0.3653  2.0364 -0.1234
 2877TIP3    H230123   4.686   2.584   4.719 -0.6464  0.7327  1.0953
 2878TIP3   OH230124   3.514   2.765   4.322  0.3467  0.3441  0.1147
 2878TIP3    H130125   3.434   2.715   4.332  0.3458  0.1711 -0.6758
 2878TIP3    H230126   3.500   2.818   4.243  1.1106  0.0956 -0.2026
 2879TIP3   OH230127   3.269   1.218  12.780 -0.4493 -0.1040 -0.3838
 2879TIP3    H130128   3.257   1.162  12.856 -0.6909  2.1956  1.3813
 2879TIP3    H230129   3.216   1.177  12.711  0.0614 -2.4403  0.5146
 2880TIP3   OH230130   4.492   3.429   3.267 -0.5203  0.2357  0.2768
 2880TIP3    H130131   4.439   3.469   3.197  0.0316  1.9646  0.8124
 2880TIP3    H230132   4.429   3.410   3.336 -1.0386 -1.2939 -0.5640
 2881TIP3   OH230133   0.897   2.014  10.573 -0.4747 -0.1465 -0.0037
 2881TIP3    H130134   0.881   1.924  10.603 -2.7302  0.6928  1.5866
 2881TIP3    H230135   0.907   2.006  10.479 -0.4927 -2.0819  0.1127
 2882TIP3   OH230136   6.786   1.161  16.121 -0.1522  0.1215 -0.5234
 2882TIP3    H130137   6.695   1.158  16.092  0.3717  1.2134 -2.4262
 2882TIP3    H230138   6.837   1.156  16.041  1.4854 -0.1186  0.4810
 2883TIP3   OH230139   1.484   6.270  14.885 -0.2041  0.1771 -0.0451
 2883TIP3    H130140   1.549   6.231  14.826 -2.2751 -1.6175 -1.2792
 2883TIP3    H230141   1.516   6.359  14.900  2.7648 -0.7584 -0.1721
 2884TIP3   OH230142   1.105   1.205   4.932 -0.3670  0.1114  0.4290
 2884TIP3    H130143   1.197   1.215   4.905 -0.1143 -1.5228  0.5952
 2884TIP3    H230144   1.058   1.190   4.850 -0.3368 -0.0548  0.4424
 2885TIP3   OH230145   0.865   6.763  15.077 -0.2885  0.1228 -0.2233
 2885TIP3    H130146   0.935   6.708  15.041  0.4605  1.2207 -0.5021
 2885TIP3    H230147   0.896   6.787  15.164 -0.1148  0.9373 -0.5000
 2886TIP3   OH230148   2.902   3.319  12.069  0.3232  0.2856 -0.5996
 2886TIP3    H130149   2.975   3.380  12.056  2.4385 -1.6567  1.2791
 2886TIP3    H230150   2.848   3.360  12.136  1.2846  0.5199  0.0618
 2887TIP3   OH230151   5.492   5.770  16.589 -0.1069  0.6824 -0.1198
 2887TIP3    H130152   5.515   5.697  16.531  0.0424  1.7883 -1.5051
 2887TIP3    H230153   5.545   5.756  16.667  0.1422 -0.5270 -0.4914
 2888TIP3   OH230154   1.642   1.014   4.273 -0.4429 -0.2737 -0.3947
 2888TIP3    H130155   1.674   0.953   4.207 -1.2947 -0.9485 -0.2036
 2888TIP3    H230156   1.721   1.056   4.307 -0.0144  0.2577 -1.9824
 2889TIP3   OH230157   0.496   0.921  14.129 -0.1092  0.4287 -0.8580
 2889TIP3    H130158   0.573   0.939  14.183 -0.0015  1.2644 -1.2640
 2889TIP3    H230159   0.431   0.888  14.190  0.2591  0.6360 -0.3445
 2890TIP3   OH230160   0.207   6.435   0.571  0.2402  0.5983 -0.2077
 2890TIP3    H130161   0.189   6.351   0.612  1.1991  0.5028  0.0424
 2890TIP3    H230162   0.171   6.427   0.483  1.1968 -0.4373 -0.5194
 2891TIP3   OH230163   0.886   3.699  14.153 -0.0762  0.3711 -0.1297
 2891TIP3    H130164   0.820   3.659  14.096 -0.2709  0.3570  0.1031
 2891TIP3    H230165   0.869   3.660  14.239  0.4546  0.1147 -0.1410
 2892TIP3   OH230166   0.359   6.550  11.511  0.0159  0.2720 -0.0256
 2892TIP3    H130167   0.450   6.526  11.530  0.4750  2.3780  0.6567
 2892TIP3    H230168   0.323   6.574  11.596 -1.5244 -1.4753 -0.1277
 2893TIP3   OH230169   1.453   0.698   1.841  0.1677  0.2044  0.0175
 2893TIP3    H130170   1.459   0.728   1.750  1.9256  1.4260  0.5020
 2893TIP3    H230171   1.446   0.778   1.893  0.5358 -0.4224  1.0592
 2894TIP3   OH230172   5.802   1.755   0.947  0.6460  0.1683  0.4045
 2894TIP3    H130173   5.833   1.789   0.863  2.1666  0.6929  1.1399
 2894TIP3    H230174   5.805   1.831   1.006 -0.0724 -0.2757  1.0287
 2895TIP3   OH230175   4.455   0.846   0.988 -0.2674  0.3258 -0.0841
 2895TIP3    H130176   4.423   0.901   0.916 -1.3430 -0.8088 -0.5131
 2895TIP3    H230177   4.517   0.786   0.946 -1.2609 -0.6573 -0.1793
 2896TIP3   OH230178   4.445   4.895   4.279  0.0015 -0.1711 -0.1226
 2896TIP3    H130179   4.386   4.835   4.234 -1.1755  0.3825  0.6602
 2896TIP3    H230180   4.435   4.978   4.233  0.4897 -0.1685 -0.2378
 2897TIP3   OH230181   4.450   3.719   1.554  0.2507 -0.1161  0.3212
 2897TIP3    H130182   4.466   3.627   1.532  0.1372 -0.3848  1.3183
 2897TIP3    H230183   4.537   3.758   1.555  0.2072  0.1108 -1.3793
 2898TIP3   OH230184   1.325   5.272  14.527  0.0667  0.4578  0.0966
 2898TIP3    H130185   1.394   5.338  14.530  0.1410  0.7927 -4.0752
 2898TIP3    H230186   1.370   5.192  14.500 -0.8127  0.0523 -0.1898
 2899TIP3   OH230187   3.810   1.483   2.279 -0.2914 -0.2331  0.1310
 2899TIP3    H130188   3.895   1.441   2.295 -1.3389 -2.1933  0.8883
 2899TIP3    H230189   3.810   1.502   2.186  1.2760  0.5114  0.2593
 2900TIP3   OH230190   2.853   4.956  12.845 -0.6120  0.2326 -0.5010
 2900TIP3    H130191   2.871   5.010  12.769 -0.4591  0.3406 -0.3893
 2900TIP3    H230192   2.899   4.874  12.827 -2.5896 -0.7090 -1.6657
 2901TIP3   OH230193   1.779   1.419  15.581 -0.0813 -0.1293  0.1475
 2901TIP3    H130194   1.758   1.362  15.506 -1.9735 -0.5604  0.9544
 2901TIP3    H230195   1.866   1.390  15.609 -0.1789 -1.3029 -0.6756
 2902TIP3   OH230196   0.303   3.758   0.732  0.3207  0.1537 -0.2633
 2902TIP3    H130197   0.318   3.667   0.755 -0.1790  0.0610 -0.2820
 2902TIP3    H230198   0.276   3.757   0.640  0.6497  0.3530 -0.3628
 2903TIP3   OH230199   4.067   5.180  12.337  0.6105  0.1767  0.1248
 2903TIP3    H130200   4.069   5.262  12.287 -1.3814 -0.3175 -0.8736
 2903TIP3    H230201   3.976   5.173  12.367  0.9946 -1.1834  1.0560
 2904TIP3   OH230202   4.156   1.413  16.802 -0.5511 -0.2812  0.5123
 2904TIP3    H130203   4.187   1.445  16.886  1.2821  1.0308 -0.5721
 2904TIP3    H230204   4.116   1.490  16.760 -1.4937 -0.9254  0.1760
 2905TIP3   OH230205   5.301   5.316  15.510  0.0476  0.6685  0.3620
 2905TIP3    H130206   5.287   5.354  15.423  0.8436  0.4324  0.1251
 2905TIP3    H230207   5.330   5.227  15.493 -0.8970  0.2514  0.9031
 2906TIP3   OH230208   6.746   1.056   2.522  0.3144 -0.2363 -0.1029
 2906TIP3    H130209   6.792   1.030   2.602  0.2351 -0.6181 -0.1817
 2906TIP3    H230210   6.668   1.001   2.521 -0.3130  0.6219  0.1985
 2907TIP3   OH230211   2.784   4.201  14.904 -0.1130  0.2029 -0.0588
 2907TIP3    H130212   2.695   4.165  14.906 -0.2038  0.4529  1.0805
 2907TIP3    H230213   2.800   4.230  14.994  0.1866  2.4184 -0.7543
 2908TIP3   OH230214   1.518   2.627  11.473 -0.8765 -0.2940 -0.6854
 2908TIP3    H130215   1.442   2.609  11.417  0.7023 -1.1739 -2.6751
 2908TIP3    H230216   1.564   2.698  11.428 -0.8348  0.6982  0.8559
 2909TIP3   OH230217   2.592   1.820  15.387  0.2646 -0.3745 -0.0198
 2909TIP3    H130218   2.656   1.821  15.458 -0.1362 -0.5156  0.3528
 2909TIP3    H230219   2.595   1.908  15.350  0.6460 -0.3705  0.0164
 2910TIP3   OH230220   1.603   6.549   6.095 -0.1152 -0.2246 -0.1372
 2910TIP3    H130221   1.564   6.634   6.074  0.4271  0.4114  1.2742
 2910TIP3    H230222   1.689   6.571   6.132  0.1615 -1.4048 -0.0517
 2911TIP3   OH230223   5.421   3.234  16.653 -0.1702  0.0932 -0.5473
 2911TIP3    H130224   5.475   3.199  16.724  0.8466  0.7160 -0.9908
 2911TIP3    H230225   5.417   3.328  16.670 -0.1762  0.2026 -1.1539
 2912TIP3   OH230226   3.737   1.922   4.340  0.1825 -0.1813  0.6731
 2912TIP3    H130227   3.690   1.841   4.320 -0.0243  0.0642  0.1585
 2912TIP3    H230228   3.705   1.946   4.427 -0.3222 -0.2525  0.5162
 2913TIP3   OH230229   1.530   3.251   1.464  0.2338 -0.0936  0.3579
 2913TIP3    H130230   1.612   3.257   1.512  0.1722  1.6287  0.2922
 2913TIP3    H230231   1.528   3.329   1.410 -0.0393 -1.6099 -1.9657
 2914TIP3   OH230232   1.928   5.099  11.326 -0.0363 -0.6448 -0.1415
 2914TIP3    H130233   1.876   5.175  11.352  1.6012  0.9845 -1.4132
 2914TIP3    H230234   1.885   5.067  11.247 -0.5880 -0.9041  0.2590
 2915TIP3   OH230235   3.522   6.714   5.817  0.1538 -0.1699 -0.2230
 2915TIP3    H130236   3.490   6.734   5.904 -0.3192 -0.2473 -0.3750
 2915TIP3    H230237   3.511   6.796   5.768 -0.4384 -0.3886 -0.4565
 2916TIP3   OH230238   2.748   2.944   0.140 -0.5814 -0.1580  0.1753
 2916TIP3    H130239   2.658   2.974   0.123 -0.3533  1.0657  1.0426
 2916TIP3    H230240   2.752   2.932   0.235 -0.1898 -1.4974  0.0165
 2917TIP3   OH230241   6.638   4.357  14.135  0.0776 -0.0560 -0.1113
 2917TIP3    H130242   6.550   4.339  14.167  0.8913 -3.7587  0.4841
 2917TIP3    H230243   6.649   4.296  14.062  2.2012  0.2042 -0.0611
 2918TIP3   OH230244   2.915   0.318  13.497 -0.3547 -0.2765  0.1712
 2918TIP3    H130245   2.830   0.351  13.466 -0.9675 -0.8230  1.2322
 2918TIP3    H230246   2.946   0.263  13.425  0.5192  2.2162 -1.4805
 2919TIP3   OH230247   0.686   4.132  11.606  0.4138  0.1106  0.2779
 2919TIP3    H130248   0.670   4.058  11.547  0.7537  0.6273 -0.4749
 2919TIP3    H230249   0.757   4.181  11.565  0.1620  0.8868  0.7466
 2920TIP3   OH230250   4.521   0.777  16.093  0.1514  0.5116 -0.9320
 2920TIP3    H130251   4.534   0.810  16.182  0.1581 -1.3659 -0.1751
 2920TIP3    H230252   4.609   0.773  16.056  0.3738 -0.3366 -0.3590
 2921TIP3   OH230253   1.472   0.331   5.942  0.0188 -0.3945  0.2486
 2921TIP3    H130254   1.433   0.261   5.993 -1.4577 -0.6990 -1.1877
 2921TIP3    H230255   1.422   0.409   5.966 -0.3119 -0.4325 -0.2963
 2922TIP3   OH230256   6.307   1.173  16.055 -0.2396 -0.1679  0.3172
 2922TIP3    H130257   6.320   1.085  16.090  0.8047  0.7708  2.4694
 2922TIP3    H230258   6.290   1.227  16.132  0.6557  1.7677 -0.7772
 2923TIP3   OH230259   6.531   5.274  16.063 -0.2785  0.1053  0.1307
 2923TIP3    H130260   6.591   5.221  16.010  0.8466 -0.4777  1.9021
 2923TIP3    H230261   6.452   5.220  16.072 -1.2717  0.9958 -2.4572
 2924TIP3   OH230262   1.241   4.106  14.115  0.2815 -0.2195 -0.1023
 2924TIP3    H130263   1.302   4.080  14.185  2.0248 -1.1479 -1.8633
 2924TIP3    H230264   1.198   4.024  14.089 -0.9703  0.2569  0.3950
 2925TIP3   OH230265   1.715   4.183   5.485 -0.7144 -0.1361  0.1346
 2925TIP3    H130266   1.721   4.277   5.500 -1.9650  0.1001 -0.6736
 2925TIP3    H230267   1.806   4.152   5.491 -0.1622  1.2645 -0.5381
 2926TIP3   OH230268   2.816   0.303   4.935  0.1663  0.8505  0.2591
 2926TIP3    H130269   2.909   0.283   4.924 -0.3267 -0.8422 -1.4955
 2926TIP3    H230270   2.799   0.289   5.028  1.1456 -1.5010  0.1557
 2927TIP3   OH230271   1.374   6.104  12.050  0.7964 -0.4128  0.0434
 2927TIP3    H130272   1.307   6.138  11.990  1.5421 -0.3011 -0.7514
 2927TIP3    H230273   1.450   6.159  12.033  1.1670 -0.6960  0.7645
 2928TIP3   OH230274   6.807   4.125   0.280  0.0755  0.1101  0.3841
 2928TIP3    H130275   6.791   4.083   0.195 -2.6138 -0.8163  1.2612
 2928TIP3    H230276   6.843   4.211   0.257  2.4590 -1.2422 -1.5399
 2929TIP3   OH230277   5.455   1.874  15.776 -0.4879 -0.2151  0.2078
 2929TIP3    H130278   5.419   1.962  15.763  0.4715  0.1794  0.1427
 2929TIP3    H230279   5.473   1.842  15.687  0.5636  0.1323  0.2829
 2930TIP3   OH230280   4.545   1.566  14.365  0.2122  0.0548  0.2414
 2930TIP3    H130281   4.473   1.602  14.418  0.1086  0.5219 -0.2079
 2930TIP3    H230282   4.623   1.613  14.396  0.0931  0.6035 -0.2733
 2931TIP3   OH230283   6.171   1.372  13.466 -0.3050  0.2573 -0.5884
 2931TIP3    H130284   6.145   1.460  13.495 -0.6576 -0.2221  0.6124
 2931TIP3    H230285   6.263   1.365  13.491 -0.5859 -0.1234  0.4080
 2932TIP3   OH230286   0.200   1.023  15.026 -0.0748  0.7240 -0.5158
 2932TIP3    H130287   0.264   1.022  14.955 -0.1027  0.6762 -0.5408
 2932TIP3    H230288   0.118   1.050  14.985 -0.1186  0.5796 -0.5257
 2933TIP3   OH230289   0.737   2.599   2.055 -0.1104 -0.1234  0.6014
 2933TIP3    H130290   0.649   2.563   2.059 -0.3841  0.4335 -0.1929
 2933TIP3    H230291   0.785   2.540   1.997 -0.7081  1.0637 -1.1419
 2934TIP3   OH230292   0.216   3.011   5.236  0.2475  0.2264  0.6479
 2934TIP3    H130293   0.180   3.068   5.168 -0.1995 -1.3506 -0.5001
 2934TIP3    H230294   0.311   3.010   5.218  1.0776  4.0766  3.4427
 2935TIP3   OH230295   6.128   2.150   5.712  0.0220  0.0594  0.6783
 2935TIP3    H130296   6.181   2.085   5.665 -3.5689 -0.9111 -2.5401
 2935TIP3    H230297   6.173   2.233   5.698  2.1938 -1.0204  0.7735
 2936TIP3   OH230298   0.464   1.503   1.193  0.0692  0.5298 -0.1570
 2936TIP3    H130299   0.458   1.584   1.142 -0.5650  0.3550 -0.3634
 2936TIP3    H230300   0.548   1.465   1.166  0.5161  1.2639  0.1676
 2937TIP3   OH230301   1.562   4.889  13.179  0.0726 -0.1356 -0.1088
 2937TIP3    H130302   1.594   4.816  13.233 -0.8750  1.5556  2.9466
 2937TIP3    H230303   1.475   4.861  13.151  0.6821 -1.1455 -1.0988
 2938TIP3   OH230304   5.626   4.863  10.508  0.0841  0.1764 -0.1205
 2938TIP3    H130305   5.687   4.893  10.576  1.2790 -1.1508 -0.5630
 2938TIP3    H230306   5.587   4.944  10.474 -1.6615  0.8623  3.0591
 2939TIP3   OH230307   6.333   0.411   5.320 -0.2570 -1.1270 -0.3568
 2939TIP3    H130308   6.413   0.359   5.314  0.1873 -0.6417  1.0071
 2939TIP3    H230309   6.333   0.444   5.409 -1.5297 -0.3723 -0.6171
 2940TIP3   OH230310   3.111   0.775   5.488 -0.4742  0.1741 -0.5015
 2940TIP3    H130311   3.110   0.679   5.479 -0.7975  0.1013  0.1793
 2940TIP3    H230312   3.023   0.802   5.460 -0.1486  0.3474 -1.3672
 2941TIP3   OH230313   0.437   4.137  15.085  0.3973  0.1898  0.3260
 2941TIP3    H130314   0.495   4.064  15.106  1.8725  1.4520  0.8554
 2941TIP3    H230315   0.447   4.197  15.160  0.5926  1.7162 -0.8786
 2942TIP3   OH230316   4.012   5.952  13.038  0.3807  0.7002 -0.5340
 2942TIP3    H130317   3.940   5.991  13.087 -0.8171  1.1925 -2.5685
 2942TIP3    H230318   4.089   6.004  13.060 -0.5538  2.2088 -0.7623
 2943TIP3   OH230319   3.712   5.672  14.522 -0.3409 -0.4345 -0.0508
 2943TIP3    H130320   3.685   5.749  14.473 -0.2121 -1.3066 -1.5592
 2943TIP3    H230321   3.693   5.693  14.614 -0.8044  1.1551 -0.4884
 2944TIP3   OH230322   6.285   1.137   1.070  0.1206  0.1230 -0.5145
 2944TIP3    H130323   6.237   1.055   1.075  0.8566 -0.2927 -0.0414
 2944TIP3    H230324   6.348   1.125   0.999 -0.7891  0.8499 -1.4741
 2945TIP3   OH230325   5.362   0.614   5.839  0.4918  0.1140  0.2140
 2945TIP3    H130326   5.382   0.559   5.764 -0.7498 -0.3544  0.2027
 2945TIP3    H230327   5.266   0.615   5.843  0.5311  0.1147  1.7936
 2946TIP3   OH230328   4.097   4.206  17.178  0.4428 -0.0954 -0.8254
 2946TIP3    H130329   4.046   4.167  17.107  0.1479  1.1093 -1.3067
 2946TIP3    H230330   4.035   4.217  17.249 -0.5220  2.9259 -1.9730
 2947TIP3   OH230331   4.551   3.682  13.509  0.0947  0.1247  0.1426
 2947TIP3    H130332   4.493   3.758  13.519  0.7795  0.7861 -0.7221
 2947TIP3    H230333   4.561   3.648  13.598 -1.5997 -0.0062  0.3166
 2948TIP3   OH230334   6.345   0.321   0.283  0.5164 -0.0834 -0.7455
 2948TIP3    H130335   6.372   0.409   0.307 -2.8313 -0.1615  5.1574
 2948TIP3    H230336   6.283   0.334   0.211  1.7914  2.0144 -1.5533
 2949TIP3   OH230337   0.553   0.196   3.797  0.6069 -0.5380 -0.0576
 2949TIP3    H130338   0.625   0.197   3.735  1.0864 -0.2217  0.4964
 2949TIP3    H230339   0.521   0.286   3.798  0.2851 -0.6496 -0.2072
 2950TIP3   OH230340   3.630   6.030  10.673 -0.4284 -0.8105  0.2288
 2950TIP3    H130341   3.695   6.081  10.625 -1.7847  0.3529 -0.4685
 2950TIP3    H230342   3.681   5.977  10.735  1.0939  0.9435  0.5605
 2951TIP3   OH230343   4.333   1.370  12.436 -0.3362 -0.4106  0.0526
 2951TIP3    H130344   4.278   1.314  12.381 -0.4542  1.0501 -1.3908
 2951TIP3    H230345   4.279   1.447  12.454  0.4984  0.1211  0.3523
 2952TIP3   OH230346   5.854   2.717  13.963 -0.1056  0.3900  0.1831
 2952TIP3    H130347   5.888   2.796  13.920  3.0862 -1.1518 -0.4401
 2952TIP3    H230348   5.867   2.734  14.057 -0.8074  1.1481  0.1528
 2953TIP3   OH230349   6.430   6.279  15.340 -0.4898 -0.4512 -0.0910
 2953TIP3    H130350   6.412   6.238  15.424 -3.5080  0.0453 -0.3806
 2953TIP3    H230351   6.345   6.311  15.310 -0.2136 -3.0262 -4.6382
 2954TIP3   OH230352   2.111   0.157  10.935  0.3084  0.5222  0.5706
 2954TIP3    H130353   2.019   0.171  10.955  0.4624  0.9668  1.0116
 2954TIP3    H230354   2.123   0.062  10.942 -0.2002  0.4212  0.1057
 2955TIP3   OH230355   6.115   4.463  15.205 -0.2700 -0.0428  0.3993
 2955TIP3    H130356   6.106   4.390  15.144  0.1733 -1.1115  1.5782
 2955TIP3    H230357   6.120   4.422  15.291  0.1987  1.3709  1.0731
 2956TIP3   OH230358   4.989   2.476   3.916  0.1680 -0.6813 -0.2481
 2956TIP3    H130359   4.974   2.392   3.873 -0.9177 -0.7884  0.3054
 2956TIP3    H230360   5.076   2.468   3.955  0.0927 -1.5312 -0.2445
 2957TIP3   OH230361   4.093   4.794  12.164 -0.3641  0.0197  0.1723
 2957TIP3    H130362   4.139   4.872  12.196 -0.5375 -0.1366  0.8176
 2957TIP3    H230363   4.011   4.793  12.213  0.3143 -1.4391  1.3446
 2958TIP3   OH230364   4.527   1.942  12.940  0.5425 -0.3442 -0.3319
 2958TIP3    H130365   4.521   1.868  13.001  1.4321 -0.6209 -0.5625
 2958TIP3    H230366   4.481   2.014  12.985 -0.1264 -0.9650 -0.0077
 2959TIP3   OH230367   6.510   1.777   5.485  0.6493  0.3761  0.1161
 2959TIP3    H130368   6.455   1.703   5.512 -0.9524  1.6812  0.6372
 2959TIP3    H230369   6.531   1.758   5.393  2.1911 -1.7893  0.8308
 2960TIP3   OH230370   1.306   6.054  14.377  0.6463  0.5483  0.0648
 2960TIP3    H130371   1.370   6.106  14.329 -1.9613  2.5593 -1.5601
 2960TIP3    H230372   1.273   6.114  14.444  0.2038 -0.3044  0.6231
 2961TIP3   OH230373   4.573   5.585  16.723  0.0427 -0.0593 -0.1366
 2961TIP3    H130374   4.668   5.597  16.730  0.2409 -1.5908  0.0568
 2961TIP3    H230375   4.557   5.571  16.630  0.1608 -0.9027 -0.0366
 2962TIP3   OH230376   1.630   5.296   0.409  0.4258  0.3510 -0.7277
 2962TIP3    H130377   1.600   5.329   0.325 -1.3181  0.1309 -0.2442
 2962TIP3    H230378   1.617   5.369   0.470  1.6535  0.5060 -0.6225
 2963TIP3   OH230379   2.487   5.905   0.447  0.0394  0.2558 -0.4690
 2963TIP3    H130380   2.504   5.982   0.393  1.8888  0.7254  0.6799
 2963TIP3    H230381   2.535   5.835   0.404  1.0004  0.4959  0.1554
 2964TIP3   OH230382   1.422   0.691   5.561 -0.2376 -0.0242  0.2329
 2964TIP3    H130383   1.482   0.618   5.575  0.1259  0.2103 -0.0915
 2964TIP3    H230384   1.370   0.665   5.485 -0.9382 -0.4720  0.8438
 2965TIP3   OH230385   0.135   0.631   0.579  0.5010 -0.3704 -0.2356
 2965TIP3    H130386   0.069   0.674   0.524  0.6808  2.0423  1.3018
 2965TIP3    H230387   0.100   0.543   0.594 -1.7550  0.4146 -0.5173
 2966TIP3   OH230388   6.139   2.527  15.134  0.2606  0.9705 -1.0225
 2966TIP3    H130389   6.181   2.584  15.199 -0.0564  0.1806 -0.0961
 2966TIP3    H230390   6.070   2.483  15.183 -0.4948  0.9245 -2.0953
 2967TIP3   OH230391   0.061   0.824  11.561 -0.6191  0.0862 -0.4071
 2967TIP3    H130392   0.084   0.903  11.511  0.2698  1.6776  2.2833
 2967TIP3    H230393   0.146   0.788  11.588 -1.0369 -1.6054 -1.2630
 2968TIP3   OH230394   1.199   2.980   1.441  0.0598 -0.1553  0.4825
 2968TIP3    H130395   1.109   2.990   1.411 -0.0883 -1.6380  0.3744
 2968TIP3    H230396   1.193   2.921   1.517  0.8314  0.5396  1.1083
 2969TIP3   OH230397   4.042   3.353  16.777 -0.3013 -0.3443  0.0232
 2969TIP3    H130398   4.092   3.271  16.780  0.1861 -0.2531 -3.0629
 2969TIP3    H230399   4.105   3.420  16.803 -0.0947 -0.7016  0.4602
 2970TIP3   OH230400   5.167   2.814  15.054 -0.2458  0.0622  0.0124
 2970TIP3    H130401   5.132   2.870  15.123 -1.6309 -0.4961 -0.1899
 2970TIP3    H230402   5.254   2.849  15.035  0.1942  0.1952  2.0587
 2971TIP3   OH230403   5.050   0.821  11.284  0.0200 -0.1141  0.0970
 2971TIP3    H130404   5.026   0.738  11.325  0.6233 -0.7857 -0.8691
 2971TIP3    H230405   5.006   0.820  11.199  0.2059  0.4595 -0.0134
 2972TIP3   OH230406   5.800   3.186   4.373  0.3189 -0.0182 -0.4068
 2972TIP3    H130407   5.851   3.265   4.357 -0.5740  0.4713 -0.9222
 2972TIP3    H230408   5.856   3.131   4.428  0.3681  1.6039  1.2184
 2973TIP3   OH230409   1.875   1.338  13.811 -0.3726  0.4731 -0.5214
 2973TIP3    H130410   1.948   1.382  13.767  0.6382 -0.4721  0.1582
 2973TIP3    H230411   1.892   1.245  13.799 -1.4864  0.2396 -0.3621
 2974TIP3   OH230412   2.393   0.076  12.124  0.1824 -0.8303  0.1110
 2974TIP3    H130413   2.328   0.022  12.169 -0.2423 -1.4054 -1.1446
 2974TIP3    H230414   2.377   0.060  12.031  1.4728 -0.1963 -0.2416
 2975TIP3   OH230415   1.431   6.767   6.082 -0.2680 -0.1176 -0.0253
 2975TIP3    H130416   1.394   6.853   6.100 -0.9893  0.4311 -3.3985
 2975TIP3    H230417   1.360   6.706   6.103 -0.7627  0.3600 -0.2670
 2976TIP3   OH230418   0.843   6.753  13.618 -0.8246  0.2831 -0.1047
 2976TIP3    H130419   0.791   6.700  13.678  0.1753 -0.4542  0.1286
 2976TIP3    H230420   0.815   6.726  13.531 -1.3480  0.4280  0.0115
 2977TIP3   OH230421   2.665   1.782  14.749 -0.1558  0.3005 -0.8851
 2977TIP3    H130422   2.609   1.745  14.818  0.9423  0.0513 -0.0914
 2977TIP3    H230423   2.642   1.875  14.748 -1.4844 -0.0096 -1.4722
 2978TIP3   OH230424   2.859   1.141   5.306  0.3526 -0.4234 -0.0295
 2978TIP3    H130425   2.951   1.119   5.290  0.7239  2.1530 -2.2214
 2978TIP3    H230426   2.841   1.108   5.394  4.3507  1.8217  1.9174
 2979TIP3   OH230427   3.413   0.961   2.959  0.2764 -0.2807  0.6102
 2979TIP3    H130428   3.356   1.037   2.967  1.0395  0.3005  0.6600
 2979TIP3    H230429   3.415   0.923   3.047  0.5757  0.1567  0.7983
 2980TIP3   OH230430   6.119   5.788  12.824  0.5721  0.7468 -0.0954
 2980TIP3    H130431   6.119   5.697  12.853 -1.2116  0.7980  0.1334
 2980TIP3    H230432   6.198   5.825  12.863  1.5569 -0.7886 -0.5358
 2981TIP3   OH230433   2.188   0.858   2.395 -0.5266  0.2152  0.1891
 2981TIP3    H130434   2.171   0.825   2.307  0.6042 -1.6553  0.6117
 2981TIP3    H230435   2.221   0.947   2.381  2.3850 -0.9888 -1.5577
 2982TIP3   OH230436   0.354   2.011  16.212 -0.7103  0.2679 -0.4072
 2982TIP3    H130437   0.351   2.052  16.298 -0.2140  0.0193 -0.2635
 2982TIP3    H230438   0.263   1.998  16.188 -0.8701  1.1946 -0.3374
 2983TIP3   OH230439   3.233   1.421  14.068 -0.4030  0.1229  0.4118
 2983TIP3    H130440   3.175   1.483  14.110 -0.3457  1.1532 -0.9501
 2983TIP3    H230441   3.175   1.358  14.025 -0.5816  1.3341 -1.2172
 2984TIP3   OH230442   1.936   4.350  14.901  0.2503  0.0660  0.4885
 2984TIP3    H130443   1.913   4.287  14.833 -0.4245  0.5531  0.2581
 2984TIP3    H230444   2.017   4.316  14.939 -1.3506 -2.2381  2.0344
 2985TIP3   OH230445   3.248   1.591  11.899  0.0320  0.1767 -0.2839
 2985TIP3    H130446   3.178   1.605  11.835 -1.1811 -0.9762  0.7072
 2985TIP3    H230447   3.214   1.629  11.980  0.3922 -0.7039  0.2964
 2986TIP3   OH230448   3.126   5.625  15.444  0.0204 -0.1398 -0.6829
 2986TIP3    H130449   3.199   5.614  15.384 -0.1818 -0.2505 -0.9139
 2986TIP3    H230450   3.062   5.558  15.417  2.0373 -4.0693  3.0099
 2987TIP3   OH230451   4.027   2.662  15.417 -0.0135 -0.1256  0.0694
 2987TIP3    H130452   4.110   2.630  15.453  0.4707  0.2309 -0.6963
 2987TIP3    H230453   4.051   2.698  15.331 -0.7771  0.9401  0.2862
 2988TIP3   OH230454   0.356   0.616   4.854 -0.4384 -0.1869  0.1103
 2988TIP3    H130455   0.332   0.696   4.807 -0.6591 -0.7135 -0.6958
 2988TIP3    H230456   0.324   0.630   4.943 -0.1816  0.7525  0.0577
 2989TIP3   OH230457   4.151   3.879  16.993  0.3195 -0.3554 -0.6348
 2989TIP3    H130458   4.082   3.942  16.973  0.4995 -0.2437 -0.8989
 2989TIP3    H230459   4.233   3.928  16.985  0.4641 -0.6363 -0.9006
 2990TIP3   OH230460   6.426   4.959  14.406 -0.0747  0.3896 -0.7914
 2990TIP3    H130461   6.521   4.946  14.406 -0.2124 -1.5739  1.7422
 2990TIP3    H230462   6.393   4.896  14.342  0.2534 -0.5011 -0.1105
 2991TIP3   OH230463   1.734   2.837  17.039 -0.6632 -0.1892 -0.2924
 2991TIP3    H130464   1.674   2.797  16.976 -1.0115  0.1367 -0.1700
 2991TIP3    H230465   1.756   2.922  17.000  0.6213 -0.7596 -0.8922
 2992TIP3   OH230466   1.410   5.378   3.972 -0.2523 -0.1080  0.0662
 2992TIP3    H130467   1.422   5.305   3.911 -1.3425 -0.8643  0.7102
 2992TIP3    H230468   1.496   5.419   3.978  0.0649 -0.4873 -1.3703
 2993TIP3   OH230469   4.150   3.225  13.675 -0.3078  0.5704  0.6000
 2993TIP3    H130470   4.119   3.169  13.604  0.6683 -1.0336  1.3810
 2993TIP3    H230471   4.109   3.189  13.754  1.0460  0.3458  1.2373
 2994TIP3   OH230472   6.617   1.954  12.756 -0.2735 -0.8891  0.1106
 2994TIP3    H130473   6.669   1.930  12.833 -0.0466  1.3551  0.7271
 2994TIP3    H230474   6.675   2.008  12.704 -0.8888 -1.2356 -0.9574
 2995TIP3   OH230475   5.643   0.325   0.720  0.1277  0.2178  0.9440
 2995TIP3    H130476   5.706   0.327   0.648  2.3725 -0.4019  2.7860
 2995TIP3    H230477   5.627   0.418   0.739  2.0078  0.4277  1.6696
 2996TIP3   OH230478   5.887   3.381  15.883  0.3348 -0.0027 -0.5008
 2996TIP3    H130479   5.896   3.474  15.905  0.2652  0.0692 -0.7658
 2996TIP3    H230480   5.932   3.335  15.954 -1.4602  0.1239  0.7751
 2997TIP3   OH230481   2.700   0.635   0.123 -0.2082  0.7738 -0.4163
 2997TIP3    H130482   2.742   0.669   0.044  2.0904  0.7962  0.7367
 2997TIP3    H230483   2.751   0.673   0.195  0.4173 -2.4351  1.0077
 2998TIP3   OH230484   4.175   3.741   4.354 -0.1213 -0.0980  0.4359
 2998TIP3    H130485   4.222   3.672   4.400  0.0028 -0.7791 -0.6744
 2998TIP3    H230486   4.090   3.703   4.333  0.0057  0.0157 -0.3152
 2999TIP3   OH230487   2.837   4.871  13.945 -0.2062 -0.2048  0.5570
 2999TIP3    H130488   2.930   4.857  13.961  0.5395  0.9922 -2.1341
 2999TIP3    H230489   2.834   4.943  13.883 -2.8712 -1.3265 -0.7846
 3000TIP3   OH230490   6.061   1.653   3.029 -0.4246 -0.0139  0.6674
 3000TIP3    H130491   6.112   1.572   3.033 -0.1601  0.1142  0.0611
 3000TIP3    H230492   5.971   1.626   3.044 -0.2121 -0.2766  1.5128
 3001TIP3   OH230493   2.184   4.266  15.005  0.7139 -0.3374 -0.2072
 3001TIP3    H130494   2.265   4.305  15.036  0.6242 -1.1589  1.1679
 3001TIP3    H230495   2.212   4.192  14.951  0.9529 -1.7542  1.7507
 3002TIP3   OH230496   2.135   1.289  15.932  0.5490 -0.7167  0.3749
 3002TIP3    H130497   2.103   1.199  15.945 -0.4382 -1.0262 -3.1330
 3002TIP3    H230498   2.220   1.279  15.891  0.2421 -0.0710 -0.4415
 3003TIP3   OH230499   6.457   1.310   3.475  0.1592  0.1977  0.6516
 3003TIP3    H130500   6.406   1.264   3.541  2.0404 -0.2953  1.8528
 3003TIP3    H230501   6.544   1.270   3.480  0.7460  1.1196 -1.1578
 3004TIP3   OH230502   5.890   4.585  15.592 -1.0266  0.1857  0.1682
 3004TIP3    H130503   5.855   4.506  15.550 -0.2408 -0.7495  1.2170
 3004TIP3    H230504   5.964   4.610  15.537 -0.6180 -0.4384  0.4349
 3005TIP3   OH230505   4.480   3.813   3.884 -0.2358  0.3315 -0.1977
 3005TIP3    H130506   4.472   3.720   3.903  2.5011  0.2958  1.2006
 3005TIP3    H230507   4.574   3.829   3.874 -0.6568  2.8405 -1.0458
 3006TIP3   OH230508   0.891   3.497   1.536  1.0046 -0.2283 -0.2964
 3006TIP3    H130509   0.958   3.541   1.588  0.1557  1.4318 -0.5396
 3006TIP3    H230510   0.926   3.497   1.447  1.4175 -0.9183 -0.1393
 3007TIP3   OH230511   6.657   2.167   0.032  0.3333 -0.1489  0.4559
 3007TIP3    H130512   6.647   2.091  -0.026 -2.0002  0.0612  0.5006
 3007TIP3    H230513   6.655   2.131   0.120 -0.0329 -0.0988  0.4673
 3008TIP3   OH230514   0.745   1.083   1.432 -0.0073  0.0993  0.1597
 3008TIP3    H130515   0.780   1.165   1.467  2.2395  0.0533 -1.6973
 3008TIP3    H230516   0.790   1.015   1.481 -0.4998 -0.0096  0.4629
 3009TIP3   OH230517   5.187   3.673  11.356 -0.4925  0.1291  0.5966
 3009TIP3    H130518   5.230   3.695  11.274  0.0404 -1.8781  0.2840
 3009TIP3    H230519   5.249   3.703  11.424 -0.0917  0.1378  0.2291
 3010TIP3   OH230520   1.071   6.471  10.475  0.7233 -0.5343 -0.4693
 3010TIP3    H130521   1.092   6.430  10.390 -1.6056 -0.3090 -1.2123
 3010TIP3    H230522   1.045   6.397  10.531 -1.3142 -0.3762 -1.1308
 3011TIP3   OH230523   1.380   4.069   1.734 -0.0942  0.6195 -0.0850
 3011TIP3    H130524   1.400   3.995   1.676 -1.1722  0.6938 -0.5717
 3011TIP3    H230525   1.349   4.138   1.675  1.9011  1.8747  0.2275
 3012TIP3   OH230526   1.417   0.626  17.181 -0.2225  0.4540 -0.1299
 3012TIP3    H130527   1.472   0.636  17.259 -0.3597 -0.2646  0.0683
 3012TIP3    H230528   1.341   0.577  17.212  0.4654 -1.2663 -1.0223
 3013TIP3   OH230529   4.942   4.417  15.053 -0.0329 -0.1374 -0.1316
 3013TIP3    H130530   5.037   4.406  15.050 -0.2385 -3.3493  1.0565
 3013TIP3    H230531   4.908   4.362  14.982 -1.0345  0.3922 -0.0884
 3014TIP3   OH230532   1.536   2.957  15.114 -0.0566 -0.1904 -0.3228
 3014TIP3    H130533   1.477   2.935  15.186  0.7763 -0.5081  0.2890
 3014TIP3    H230534   1.493   3.029  15.068 -0.4900  0.1744  0.6349
 3015TIP3   OH230535   4.178   5.080  15.360 -0.0686 -0.0758 -0.3682
 3015TIP3    H130536   4.239   5.153  15.349 -2.0021  1.7857  0.6050
 3015TIP3    H230537   4.208   5.036  15.440  0.5913  0.1792 -0.4696
 3016TIP3   OH230538   3.464   3.507  15.593  0.2687  0.8723 -0.4328
 3016TIP3    H130539   3.507   3.583  15.633  1.2379 -0.7455  1.8290
 3016TIP3    H230540   3.371   3.520  15.611  0.3830  1.6928 -0.3946
 3017TIP3   OH230541   2.626   4.286   5.988 -0.2900 -0.3959 -0.6874
 3017TIP3    H130542   2.715   4.319   6.005 -0.9406  2.1890 -1.7862
 3017TIP3    H230543   2.601   4.327   5.905 -2.1831 -1.8022 -0.8697
 3018TIP3   OH230544   5.523   1.367   2.653 -0.8210 -0.1218 -0.4073
 3018TIP3    H130545   5.564   1.404   2.574 -0.6276 -1.3267 -0.8836
 3018TIP3    H230546   5.432   1.353   2.629 -0.7149 -0.6832 -0.4836
 3019TIP3   OH230547   6.660   3.395  15.833  0.1870  0.3854  0.4002
 3019TIP3    H130548   6.632   3.443  15.754 -0.5733 -2.4207 -1.1532
 3019TIP3    H230549   6.594   3.417  15.899 -0.7300  0.6616 -0.5739
 3020TIP3   OH230550   0.055   2.106  14.682 -0.2389  0.3259 -0.1715
 3020TIP3    H130551   0.151   2.107  14.685 -0.2551 -0.5829  1.1666
 3020TIP3    H230552   0.034   2.171  14.615  1.3091  0.4641 -0.5812
 3021TIP3   OH230553   4.285   4.987   0.301  0.2561 -0.3552 -0.3088
 3021TIP3    H130554   4.287   5.009   0.395  0.0502 -0.8297 -0.1901
 3021TIP3    H230555   4.366   5.026   0.266  0.7110 -0.8013  0.2150
 3022TIP3   OH230556   6.431   5.203   4.891 -0.0753  0.3494 -0.5152
 3022TIP3    H130557   6.453   5.155   4.811  0.0362  0.6002 -0.6354
 3022TIP3    H230558   6.512   5.246   4.917 -0.1083  0.2542 -0.2569
 3023TIP3   OH230559   5.438   6.408   4.399  0.1151 -0.0669 -0.7678
 3023TIP3    H130560   5.469   6.424   4.488 -2.3787  1.7283 -0.1197
 3023TIP3    H230561   5.353   6.367   4.410  0.6357 -1.7068 -2.4030
 3024TIP3   OH230562   5.084   3.581   4.766 -0.3507  0.5596  0.2169
 3024TIP3    H130563   5.016   3.644   4.741  0.5807  1.1413 -1.0032
 3024TIP3    H230564   5.071   3.567   4.860 -2.3714  0.3517 -0.0452
 3025TIP3   OH230565   5.368   2.547   1.104 -0.1901  0.6228 -0.0938
 3025TIP3    H130566   5.448   2.575   1.059  0.8247  1.6291  2.1917
 3025TIP3    H230567   5.332   2.479   1.047  1.1510  1.5664 -2.2308
 3026TIP3   OH230568   0.150   2.584   4.165  0.2082 -0.0043 -0.1274
 3026TIP3    H130569   0.191   2.630   4.092  0.8067  0.2346  0.3569
 3026TIP3    H230570   0.202   2.505   4.177  0.3096  0.1196  0.2558
 3027TIP3   OH230571   0.760   4.070  15.268  0.3077 -0.4033  0.7870
 3027TIP3    H130572   0.692   4.004  15.280  0.2885 -0.5093  0.1322
 3027TIP3    H230573   0.713   4.153  15.268  0.4142 -0.3137  2.3708
 3028TIP3   OH230574   4.743   5.250   6.553  0.1980  0.2216 -0.0077
 3028TIP3    H130575   4.700   5.166   6.572  1.6799 -0.1381  2.1536
 3028TIP3    H230576   4.837   5.231   6.562  0.6519  1.7649 -1.1128
 3029TIP3   OH230577   4.538   3.458   2.804  0.0433  0.1930  0.1625
 3029TIP3    H130578   4.444   3.445   2.790 -0.0048  1.0069 -0.3708
 3029TIP3    H230579   4.571   3.490   2.719  0.8225 -0.2098  0.3052
 3030TIP3   OH230580   2.118   6.086  13.222  0.3794  0.3135  0.0366
 3030TIP3    H130581   2.143   6.134  13.301  1.1686  0.4811 -0.3017
 3030TIP3    H230582   2.048   6.138  13.183  1.2553  1.2461 -0.3524
 3031TIP3   OH230583   6.668   6.416   4.892  0.3968 -0.1995 -1.4327
 3031TIP3    H130584   6.629   6.328   4.896 -1.7652  0.7240 -1.0975
 3031TIP3    H230585   6.602   6.473   4.930  2.9865  1.2328  1.2918
 3032TIP3   OH230586   1.399   1.342  14.884 -0.4773 -0.2365  0.1546
 3032TIP3    H130587   1.420   1.425  14.842  0.0409 -1.0522 -1.2331
 3032TIP3    H230588   1.464   1.334  14.954 -1.9808  1.6191  1.9185
 3033TIP3   OH230589   0.821   2.188  12.633 -0.5111 -0.1765  0.6881
 3033TIP3    H130590   0.775   2.116  12.674  0.6048 -1.2263  0.1674
 3033TIP3    H230591   0.763   2.217  12.562  0.2848 -2.6333 -1.0957
 3034TIP3   OH230592   2.346   6.190  14.975  0.8200  0.0465 -0.2003
 3034TIP3    H130593   2.425   6.188  15.029 -1.0092 -3.0141  2.7727
 3034TIP3    H230594   2.303   6.272  14.998  1.2372 -0.1174  1.2459
 3035TIP3   OH230595   1.641   0.365   0.779 -0.3567 -0.2523  0.1910
 3035TIP3    H130596   1.559   0.382   0.825  0.2814  3.9375  0.1948
 3035TIP3    H230597   1.620   0.377   0.686  0.1116  0.5611  0.1720
 3036TIP3   OH230598   2.589   5.633  11.254  0.1627 -0.2703  0.1768
 3036TIP3    H130599   2.682   5.648  11.268  0.0187  0.9071 -0.0328
 3036TIP3    H230600   2.547   5.664  11.334 -0.1504  0.5193 -0.2832
 3037TIP3   OH230601   3.903   1.534  12.101  0.3011 -0.1100  0.0685
 3037TIP3    H130602   3.926   1.621  12.132 -0.2982 -0.9882  3.3924
 3037TIP3    H230603   3.983   1.501  12.060  0.5609  1.8921 -1.1670
 3038TIP3   OH230604   5.993   6.812  16.266  0.4621  1.0768 -0.4326
 3038TIP3    H130605   6.066   6.772  16.219  1.9920  1.0442  1.8142
 3038TIP3    H230606   6.021   6.902  16.283 -0.3234  1.2814 -0.1650
 3039TIP3   OH230607   4.511   1.090  14.717  0.0294  0.4388  0.0446
 3039TIP3    H130608   4.518   1.186  14.715 -0.5940  0.4872  0.1194
 3039TIP3    H230609   4.597   1.060  14.689  0.1398  1.0258 -0.2660
 3040TIP3   OH230610   2.291   3.273  14.591 -0.0747  0.1008 -0.4665
 3040TIP3    H130611   2.301   3.282  14.686 -0.1144  1.5024 -0.5802
 3040TIP3    H230612   2.374   3.237  14.561  0.4198  0.8844 -0.0492
 3041TIP3   OH230613   1.561   6.358   3.960  0.3001  0.7406 -0.0285
 3041TIP3    H130614   1.555   6.362   3.865  0.3240 -1.5437 -0.1923
 3041TIP3    H230615   1.474   6.329   3.988  1.0696 -1.3563  0.3559
 3042TIP3   OH230616   1.065   2.320   4.731  0.5919  0.1590 -0.0198
 3042TIP3    H130617   1.106   2.359   4.654 -0.5255  0.1027 -0.6757
 3042TIP3    H230618   0.984   2.370   4.743  0.4716 -0.2067  0.7725
 3043TIP3   OH230619   3.642   2.482   2.753 -0.2659  0.0449 -0.0503
 3043TIP3    H130620   3.550   2.465   2.774 -0.4183  2.0536  1.1869
 3043TIP3    H230621   3.640   2.565   2.705  0.9643  0.7720  1.0984
 3044TIP3   OH230622   3.264   4.225   3.385 -0.7916  0.1421 -0.0560
 3044TIP3    H130623   3.336   4.162   3.374 -1.1428 -1.0029  3.1746
 3044TIP3    H230624   3.185   4.172   3.374 -1.0954  0.3002  1.2424
 3045TIP3   OH230625   4.167   2.666  13.489  0.1980 -0.1639  0.1153
 3045TIP3    H130626   4.192   2.745  13.537 -0.3382  0.5071 -0.6827
 3045TIP3    H230627   4.237   2.603  13.507  0.9694  0.7119  0.2413
 3046TIP3   OH230628   6.330   5.187  12.220  0.1073  0.8262 -0.0195
 3046TIP3    H130629   6.310   5.137  12.299 -1.5149 -0.2421 -1.0551
 3046TIP3    H230630   6.251   5.180  12.167  0.5899  2.8452 -1.0721
 3047TIP3   OH230631   2.807   2.135   0.369 -0.5457 -0.4548 -0.6825
 3047TIP3    H130632   2.782   2.227   0.361 -0.7855 -0.4023  0.4224
 3047TIP3    H230633   2.828   2.124   0.462 -0.6326 -1.5428 -0.7737
 3048TIP3   OH230634   2.906   2.861  12.541  0.0648 -0.3736 -0.0001
 3048TIP3    H130635   2.875   2.775  12.513 -0.1397 -0.3518  0.1614
 3048TIP3    H230636   2.909   2.913  12.460 -3.5650  0.6675  0.3821
 3049TIP3   OH230637   0.567   5.748  13.957 -0.2145  0.2450 -0.3885
 3049TIP3    H130638   0.623   5.691  13.903  0.2989  1.1229 -0.7935
 3049TIP3    H230639   0.490   5.763  13.902 -1.2148 -1.5289  0.4389
 3050TIP3   OH230640   3.886   1.248   1.605 -0.2584  0.4777 -0.4256
 3050TIP3    H130641   3.851   1.287   1.684 -0.4104  0.9562 -0.7261
 3050TIP3    H230642   3.897   1.155   1.626 -1.6642  0.3185 -0.3112
 3051TIP3   OH230643   2.604   0.893  16.808  0.9094 -0.1902  0.1005
 3051TIP3    H130644   2.661   0.826  16.772  0.2948 -0.7182  0.0887
 3051TIP3    H230645   2.658   0.938  16.873  0.7331 -2.0510  1.6119
 3052TIP3   OH230646   1.759   1.462  12.677  0.0512 -0.4841 -0.3984
 3052TIP3    H130647   1.791   1.398  12.741 -1.2015  0.5418  1.3364
 3052TIP3    H230648   1.828   1.528  12.673 -0.4933  0.2290  1.1118
 3053TIP3   OH230649   6.184   2.101  16.010 -0.3995 -0.2063  0.1458
 3053TIP3    H130650   6.243   2.158  15.960 -0.2387 -1.0593 -0.6563
 3053TIP3    H230651   6.239   2.028  16.038 -0.4788  0.2642  1.6386
 3054TIP3   OH230652   5.038   3.602  16.385  0.1722 -0.2286 -0.0576
 3054TIP3    H130653   5.115   3.600  16.328  0.7474 -0.9828  0.7322
 3054TIP3    H230654   5.044   3.522  16.436 -1.1836 -0.3271 -0.0296
 3055TIP3   OH230655   6.148   0.848  11.146 -0.1106  0.5862  0.8961
 3055TIP3    H130656   6.182   0.822  11.231  0.4996 -1.8714 -0.0156
 3055TIP3    H230657   6.109   0.768  11.110 -1.6825  1.9024 -0.5450
 3056TIP3   OH230658   2.715   0.573   5.912 -0.5208  0.5144  0.1589
 3056TIP3    H130659   2.779   0.502   5.925  0.4045  1.4969  1.1116
 3056TIP3    H230660   2.706   0.614   5.998  0.8962  3.1506 -0.8356
 3057TIP3   OH230661   3.009   3.733   1.802 -0.0605  0.2025  0.0813
 3057TIP3    H130662   3.055   3.771   1.877  0.1560 -0.4389  0.2791
 3057TIP3    H230663   2.990   3.808   1.745 -0.3016  0.7059  0.8122
 3058TIP3   OH230664   5.872   0.873   0.729 -0.5148 -0.1150 -0.1621
 3058TIP3    H130665   5.879   0.780   0.751 -1.5716 -0.0235  0.6440
 3058TIP3    H230666   5.902   0.878   0.638 -0.1636 -1.1953 -0.1217
 3059TIP3   OH230667   3.637   5.993   4.026 -0.5463 -0.0526 -0.1395
 3059TIP3    H130668   3.562   5.936   4.013 -0.3623 -0.1125 -0.9382
 3059TIP3    H230669   3.603   6.064   4.082 -1.0188 -0.4238  0.0523
 3060TIP3   OH230670   2.726   2.191   3.152  0.3702 -0.1308  0.1623
 3060TIP3    H130671   2.792   2.123   3.146  0.5142 -0.0176  0.4649
 3060TIP3    H230672   2.704   2.211   3.061  0.3010 -0.6039  0.0740
 3061TIP3   OH230673   3.753   5.380   1.408 -0.2075 -0.4572 -0.1483
 3061TIP3    H130674   3.716   5.397   1.494  0.8966  0.0673  0.2355
 3061TIP3    H230675   3.847   5.394   1.418  0.1106 -1.6123 -1.1310
 3062TIP3   OH230676   5.518   5.785  11.646  0.4782 -0.4059 -0.0146
 3062TIP3    H130677   5.505   5.879  11.632  0.3580 -0.5634 -1.0472
 3062TIP3    H230678   5.460   5.764  11.720 -0.0708  0.1904 -0.2576
 3063TIP3   OH230679   6.421   0.801  15.249 -0.4523 -0.2415  0.0219
 3063TIP3    H130680   6.326   0.788  15.249 -0.4258 -2.4552 -4.6505
 3063TIP3    H230681   6.457   0.716  15.273  0.2989 -0.0140 -0.2708
 3064TIP3   OH230682   2.950   4.913   5.706 -0.5233 -0.0103 -0.4238
 3064TIP3    H130683   2.955   4.918   5.610 -1.1843 -1.4901 -0.5459
 3064TIP3    H230684   3.012   4.844   5.730 -1.3149 -0.5567  0.1020
 3065TIP3   OH230685   4.288   1.484   4.001  0.1025  0.4300 -0.0731
 3065TIP3    H130686   4.238   1.495   4.082 -1.4691 -2.2577 -0.5559
 3065TIP3    H230687   4.378   1.472   4.030 -0.6105 -1.9248  1.5159
 3066TIP3   OH230688   3.918   3.221  11.350 -0.3195  0.2215  0.4227
 3066TIP3    H130689   3.947   3.169  11.275  2.1590  1.1932  0.6324
 3066TIP3    H230690   3.882   3.156  11.411 -0.5324 -0.8118 -0.7444
 3067TIP3   OH230691   1.109   0.166   2.634 -0.1740  0.1826  0.2029
 3067TIP3    H130692   1.196   0.194   2.662 -0.3971  0.6827  0.4179
 3067TIP3    H230693   1.055   0.173   2.713  0.0868 -2.3627  0.6660
 3068TIP3   OH230694   3.243   0.021  13.940 -0.4315 -0.4819 -0.1892
 3068TIP3    H130695   3.256   0.112  13.966 -1.7098 -0.8066  1.7919
 3068TIP3    H230696   3.286  -0.030  14.008 -1.0849 -1.3668 -0.4235
 3069TIP3   OH230697   4.586   5.705   5.638  0.4199 -0.3996 -0.5202
 3069TIP3    H130698   4.569   5.697   5.732  2.3099  1.0813  0.0089
 3069TIP3    H230699   4.504   5.738   5.602 -0.8177 -2.3459  0.3220
 3070TIP3   OH230700   4.427   5.997  15.856 -0.3041 -0.0082  0.1422
 3070TIP3    H130701   4.352   5.941  15.835  1.0586 -2.5142  1.4164
 3070TIP3    H230702   4.422   6.008  15.951  1.1802 -0.6376  0.3131
 3071TIP3   OH230703   6.795   6.676  10.803 -0.0680  0.3157  1.0679
 3071TIP3    H130704   6.702   6.658  10.807 -0.5260  2.4387  1.2045
 3071TIP3    H230705   6.809   6.710  10.714  0.5008  0.4042  1.1883
 3072TIP3   OH230706   4.443   6.108   6.460 -0.5381 -0.0195  0.1255
 3072TIP3    H130707   4.399   6.152   6.533  1.1860  0.8870  0.6791
 3072TIP3    H230708   4.488   6.034   6.500  0.8132  0.7591  0.1043
 3073TIP3   OH230709   2.728   0.753  11.354 -0.4411  0.0817 -0.5921
 3073TIP3    H130710   2.754   0.662  11.342 -0.5807 -0.2249  1.2824
 3073TIP3    H230711   2.728   0.789  11.265  1.5225 -1.2086 -1.1739
 3074TIP3   OH230712   2.201   0.789  14.878  0.5253 -0.5812 -0.7221
 3074TIP3    H130713   2.118   0.742  14.870  0.7109 -1.1903  0.6773
 3074TIP3    H230714   2.176   0.881  14.868  0.2695 -0.9005 -4.2479
 3075TIP3   OH230715   5.183   3.224   2.904  0.0784  0.2425  0.2306
 3075TIP3    H130716   5.245   3.162   2.866 -0.1768 -1.1288  1.8983
 3075TIP3    H230717   5.234   3.268   2.972 -0.2482  0.5017  0.3075
 3076TIP3   OH230718   6.658   4.684  13.335  0.4173 -0.0233 -0.5774
 3076TIP3    H130719   6.607   4.757  13.300 -0.4589 -0.4026 -0.1216
 3076TIP3    H230720   6.749   4.712  13.326  0.0781  1.6689  0.7296
 3077TIP3   OH230721   0.391   0.651   0.661  0.5940  0.3418 -0.0423
 3077TIP3    H130722   0.407   0.647   0.756  0.0840 -0.6742  0.0137
 3077TIP3    H230723   0.296   0.662   0.654  0.5059 -0.6269 -0.4416
 3078TIP3   OH230724   3.018   4.137  14.290  0.2460 -0.0590  0.1335
 3078TIP3    H130725   2.972   4.220  14.276 -1.4193 -0.5237  2.2793
 3078TIP3    H230726   3.111   4.161  14.293 -0.1540  1.6354  0.1895
 3079TIP3   OH230727   0.118   5.854  15.133 -0.2238  0.7731  0.1108
 3079TIP3    H130728   0.087   5.919  15.197  0.8973  0.2664  1.2235
 3079TIP3    H230729   0.084   5.771  15.165  3.1549 -0.0311  2.1816
 3080TIP3   OH230730   0.985   0.767   3.562 -0.3527  0.2569 -0.0398
 3080TIP3    H130731   0.959   0.830   3.496  0.5146  1.1898  0.4946
 3080TIP3    H230732   0.929   0.691   3.545 -0.9157  0.8894 -1.1299
 3081TIP3   OH230733   4.783   6.457   0.215 -0.2429  0.4441 -0.1825
 3081TIP3    H130734   4.836   6.506   0.278 -1.2269  1.6907 -0.2596
 3081TIP3    H230735   4.695   6.493   0.226 -0.7790 -0.5335 -1.0728
 3082TIP3   OH230736   1.113   4.839  11.562 -0.3153  0.0920  0.2362
 3082TIP3    H130737   1.179   4.890  11.515  0.5466  0.1744  1.4711
 3082TIP3    H230738   1.084   4.773  11.499  0.3430  0.5814 -0.5963
 3083TIP3   OH230739   0.437   0.342  14.796  0.6043 -0.2545  0.1076
 3083TIP3    H130740   0.472   0.288  14.724 -1.1744 -2.1040  0.5410
 3083TIP3    H230741   0.434   0.283  14.871 -0.6659  0.6814  0.8311
 3084TIP3   OH230742   6.085   6.732  10.682  0.2116  0.2485  0.1633
 3084TIP3    H130743   6.088   6.756  10.589 -1.6072 -0.1936 -0.0458
 3084TIP3    H230744   5.992   6.714  10.699  0.9386 -3.9185  0.9587
 3085TIP3   OH230745   3.130   3.827   0.433  0.1658  0.1745  0.4606
 3085TIP3    H130746   3.034   3.832   0.438  0.2738  1.7277  1.9019
 3085TIP3    H230747   3.148   3.738   0.402 -1.7422 -0.0070 -0.2612
 3086TIP3   OH230748   4.009   4.080   3.805 -0.3223  0.9256 -0.1348
 3086TIP3    H130749   4.078   4.016   3.821  0.3915  1.8340  0.5861
 3086TIP3    H230750   4.008   4.091   3.710 -1.3685 -1.1012 -0.3989
 3087TIP3   OH230751   4.694   3.418   5.832 -0.2992  0.1510  0.2173
 3087TIP3    H130752   4.604   3.407   5.861 -0.8708  0.0796 -1.4802
 3087TIP3    H230753   4.746   3.368   5.895 -1.2182  1.6988  2.3104
 3088TIP3   OH230754   6.340   6.461  10.936  0.0826  0.0664 -0.3072
 3088TIP3    H130755   6.376   6.381  10.899 -0.6413 -0.9457  1.0942
 3088TIP3    H230756   6.372   6.463  11.026 -0.7018  0.8190 -0.0280
 3089TIP3   OH230757   0.906   1.720  12.478  0.1697  0.3500  0.1789
 3089TIP3    H130758   0.873   1.631  12.481  0.8560  0.0269 -1.1458
 3089TIP3    H230759   0.829   1.775  12.498 -0.2903 -0.5085  0.8324
 3090TIP3   OH230760   0.525   4.280  15.294 -0.3744 -0.4582 -0.0956
 3090TIP3    H130761   0.464   4.354  15.302  1.4865  1.1172  0.2060
 3090TIP3    H230762   0.544   4.254  15.384 -0.6158 -0.9827 -0.1905
 3091TIP3   OH230763   3.087   0.455  16.045 -0.1739  0.0836 -0.6518
 3091TIP3    H130764   3.175   0.450  16.082  0.0082  1.5174 -0.8537
 3091TIP3    H230765   3.098   0.503  15.963 -1.1668  0.4134 -0.6028
 3092TIP3   OH230766   5.229   3.957   4.711  0.0756  0.4673  0.1467
 3092TIP3    H130767   5.157   4.017   4.688 -0.2174  0.0038 -0.1691
 3092TIP3    H230768   5.278   3.947   4.629 -1.0640 -1.3220 -0.3632
 3093TIP3   OH230769   3.240   5.627   0.721 -0.0974  0.0144  0.0946
 3093TIP3    H130770   3.245   5.566   0.795 -0.6278 -0.0100  0.1129
 3093TIP3    H230771   3.327   5.666   0.716  0.0070 -0.1492  0.5939
 3094TIP3   OH230772   0.216   2.234  13.999 -0.0539 -0.0014 -0.3942
 3094TIP3    H130773   0.147   2.261  14.059 -0.5425 -0.9738 -0.4911
 3094TIP3    H230774   0.169   2.193  13.926  0.6393 -3.0734  0.7174
 3095TIP3   OH230775   3.693   5.812  12.202 -0.3007  0.3680  0.2443
 3095TIP3    H130776   3.645   5.730  12.192 -1.9675  1.1220  1.5773
 3095TIP3    H230777   3.750   5.816  12.125 -0.0039 -2.1183  0.2778
 3096TIP3   OH230778   6.444   6.698   4.403 -0.2289 -0.2935  0.2616
 3096TIP3    H130779   6.432   6.737   4.317 -0.1717 -0.0072  0.3833
 3096TIP3    H230780   6.406   6.611   4.395 -0.0210 -0.3552 -0.1212
 3097TIP3   OH230781   0.273   0.274   1.146 -0.3625 -0.2590  0.1845
 3097TIP3    H130782   0.220   0.247   1.071 -0.7419 -0.3771  0.4906
 3097TIP3    H230783   0.283   0.194   1.198  1.4339 -0.6165 -0.6415
 3098TIP3   OH230784   0.254   6.824   0.100 -0.3116 -0.2009  0.4525
 3098TIP3    H130785   0.331   6.769   0.116 -0.2625 -0.3846 -0.3418
 3098TIP3    H230786   0.180   6.763   0.104 -0.4313 -0.0145  1.2723
 3099TIP3   OH230787   3.387   5.825  14.673  0.3479 -0.0502 -0.0830
 3099TIP3    H130788   3.482   5.831  14.687  0.4613  1.6245 -1.3111
 3099TIP3    H230789   3.375   5.849  14.581 -1.3380  0.4769  0.2504
 3100TIP3   OH230790   4.480   3.534  14.314  0.2313 -0.4637  0.7168
 3100TIP3    H130791   4.452   3.448  14.342 -1.1207  0.1838  1.4514
 3100TIP3    H230792   4.399   3.580  14.291  1.0845 -0.4258 -2.8710
 3101TIP3   OH230793   6.155   0.652   4.629 -0.7439 -0.4185  0.2565
 3101TIP3    H130794   6.111   0.660   4.714 -1.0845  0.4784  0.0079
 3101TIP3    H230795   6.168   0.743   4.601  2.3883 -0.5412  0.8862
 3102TIP3   OH230796   0.494   5.750   2.501  0.0720 -0.3603 -0.2215
 3102TIP3    H130797   0.524   5.839   2.484  0.0145 -0.1888  0.5408
 3102TIP3    H230798   0.571   5.704   2.534 -0.3983 -0.0126  1.4046
 3103TIP3   OH230799   2.158   2.049   2.384  0.0460  0.3390 -0.0494
 3103TIP3    H130800   2.218   2.090   2.446 -0.1512  1.0074 -0.2920
 3103TIP3    H230801   2.083   2.109   2.380  0.2031  0.4741 -1.1825
 3104TIP3   OH230802   5.935   3.449  11.008  0.4596  0.2118  0.3625
 3104TIP3    H130803   5.968   3.536  11.031  1.1314  1.0583 -3.1395
 3104TIP3    H230804   6.013   3.398  10.989  0.0023 -0.5698  0.5439
 3105TIP3   OH230805   1.452   4.595  15.807  0.1753  0.2412 -0.3152
 3105TIP3    H130806   1.508   4.667  15.837  1.2047  0.4362 -2.5289
 3105TIP3    H230807   1.501   4.516  15.828 -1.0512  0.0775  2.3151
 3106TIP3   OH230808   2.437   6.190  13.496  0.0834  0.4949  0.2106
 3106TIP3    H130809   2.504   6.232  13.441  2.8629 -0.7707  2.3737
 3106TIP3    H230810   2.356   6.237  13.475  2.1398  4.0663 -0.5896
 3107TIP3   OH230811   2.950   1.108   1.100  0.2047  0.6407  0.2719
 3107TIP3    H130812   3.023   1.046   1.099 -0.4421 -0.1731  1.4207
 3107TIP3    H230813   2.872   1.054   1.092 -0.2963  1.5180 -1.1178
 3108TIP3   OH230814   5.491   0.953  12.439 -0.0595 -0.3308 -0.1206
 3108TIP3    H130815   5.454   1.012  12.505 -2.0053 -0.7800 -0.7381
 3108TIP3    H230816   5.457   0.867  12.464  0.0676 -0.6702 -1.0897
 3109TIP3   OH230817   0.662   0.219   6.209  0.8838  0.2903  0.2198
 3109TIP3    H130818   0.569   0.199   6.218  0.7222  0.8456 -0.1796
 3109TIP3    H230819   0.706   0.135   6.223  0.4053  0.2479  1.6629
 3110TIP3   OH230820   0.017   4.147  15.765 -0.1627  0.1948 -1.2449
 3110TIP3    H130821  -0.045   4.219  15.769  0.2948  0.5908 -1.1317
 3110TIP3    H230822   0.003   4.098  15.846 -2.2110 -1.3343 -2.4129
 3111TIP3   OH230823   4.252   3.815  13.389 -0.1665  0.4501  0.2974
 3111TIP3    H130824   4.179   3.878  13.385  0.0550  0.6542 -0.8251
 3111TIP3    H230825   4.330   3.868  13.374  0.0794  0.0105 -0.0023
 3112TIP3   OH230826   4.950   2.160  16.484 -0.3662  0.2264 -0.4715
 3112TIP3    H130827   4.975   2.157  16.577 -0.7565 -1.6096 -0.3695
 3112TIP3    H230828   5.028   2.191  16.439  0.0494  0.5003  0.4100
 3113TIP3   OH230829   5.827   3.327   5.267 -0.7656 -0.8715  0.2478
 3113TIP3    H130830   5.741   3.345   5.231 -0.4448 -0.8822 -0.5428
 3113TIP3    H230831   5.831   3.232   5.274 -1.2983 -0.8225  1.5235
 3114TIP3   OH230832   1.522   5.773  11.480 -0.2595  0.4180 -0.0829
 3114TIP3    H130833   1.531   5.841  11.547 -0.2463  0.5100 -0.1787
 3114TIP3    H230834   1.451   5.717  11.512  0.9726 -0.6197  0.9513
 3115TIP3   OH230835   4.684   5.424  12.388  0.7067 -0.4135  0.4913
 3115TIP3    H130836   4.645   5.413  12.475  0.1317  0.4944  0.3621
 3115TIP3    H230837   4.703   5.517  12.382 -0.0844 -0.2991 -0.6876
 3116TIP3   OH230838   4.871   1.553   3.211  0.2386  0.4528 -0.0849
 3116TIP3    H130839   4.831   1.624   3.261  1.1273  0.6312  0.3771
 3116TIP3    H230840   4.965   1.567   3.220  0.4152 -0.1249 -0.9358
 3117TIP3   OH230841   3.928   5.301   5.683 -0.1753 -0.2795 -0.1426
 3117TIP3    H130842   3.959   5.384   5.646  0.0682  0.2232  1.1308
 3117TIP3    H230843   3.841   5.289   5.647  0.0680  0.1702 -0.8956
 3118TIP3   OH230844   4.688   2.533   0.092 -0.0156  0.6751 -0.2606
 3118TIP3    H130845   4.636   2.497   0.020 -1.9461 -1.5946  2.0714
 3118TIP3    H230846   4.647   2.616   0.113  0.6838  1.4555 -1.7954
 3119TIP3   OH230847   6.019   0.142  13.880  0.2813  0.1155  0.3186
 3119TIP3    H130848   6.072   0.070  13.845  1.7735  0.8881  0.8565
 3119TIP3    H230849   5.930   0.108  13.883  0.7528 -1.2857 -0.5573
 3120TIP3   OH230850   3.911   1.591  12.809 -0.0046  0.2961 -0.4589
 3120TIP3    H130851   3.953   1.659  12.861 -0.3685  0.8515 -0.8806
 3120TIP3    H230852   3.869   1.638  12.737  1.3028 -0.5368 -1.8244
 3121TIP3   OH230853   4.127   4.060  15.760 -0.0864 -0.0657  0.1266
 3121TIP3    H130854   4.095   4.135  15.711 -1.3574 -1.4547 -1.2866
 3121TIP3    H230855   4.217   4.048  15.730 -0.1815  0.3239 -0.3208
 3122TIP3   OH230856   5.815   4.249  12.703 -0.0083  0.7250  0.0028
 3122TIP3    H130857   5.819   4.332  12.655  0.5460  0.3023 -0.7150
 3122TIP3    H230858   5.905   4.218  12.704 -0.0849  0.5192  0.9738
 3123TIP3   OH230859   6.387   6.085  14.950  0.1915 -0.0509 -0.3945
 3123TIP3    H130860   6.428   6.170  14.967  0.9393 -0.4549 -0.1198
 3123TIP3    H230861   6.455   6.034  14.905 -0.1842 -0.5596 -0.3982
 3124TIP3   OH230862   5.027   3.171   3.259  0.3087  0.3075 -0.5572
 3124TIP3    H130863   4.987   3.197   3.177  0.4886  0.5611 -0.5656
 3124TIP3    H230864   5.087   3.100   3.235 -0.4451 -0.3746 -0.4814
 3125TIP3   OH230865   4.904   3.734   4.117 -0.0830 -0.5676 -0.1296
 3125TIP3    H130866   4.892   3.643   4.142  1.6247 -0.3709  1.6141
 3125TIP3    H230867   4.990   3.737   4.076  0.3343  0.4086  0.7743
 3126TIP3   OH230868   5.016   2.751  12.561  0.2256  0.4974 -0.0814
 3126TIP3    H130869   4.949   2.721  12.623 -2.4397  0.8786 -2.5930
 3126TIP3    H230870   5.044   2.671  12.516 -1.0603  0.7154 -1.3232
 3127TIP3   OH230871   0.862   0.264   2.200 -0.4942  0.3822  0.5050
 3127TIP3    H130872   0.881   0.255   2.293  1.8002 -1.9640 -0.0805
 3127TIP3    H230873   0.945   0.292   2.161 -0.9268 -0.3945 -1.0312
 3128TIP3   OH230874   2.194   1.116  11.893  0.5280  0.4631 -0.3156
 3128TIP3    H130875   2.170   1.097  11.802 -1.8249 -0.0530  0.3264
 3128TIP3    H230876   2.275   1.067  11.908 -0.5538 -1.7828 -1.3618
 3129TIP3   OH230877   5.990   2.245   6.535 -0.6594  0.1807 -0.5799
 3129TIP3    H130878   6.071   2.195   6.545 -0.0435  0.9138 -1.6255
 3129TIP3    H230879   6.013   2.315   6.473 -1.9233  0.7841 -0.3989
 3130TIP3   OH230880   4.514   4.053  11.087  0.0419  0.1011  0.2195
 3130TIP3    H130881   4.526   3.983  11.022  1.2709  1.6925 -1.3821
 3130TIP3    H230882   4.446   4.109  11.050  1.1197  1.3140 -0.0463
 3131TIP3   OH230883   6.383   0.841  12.409 -0.3587  0.4612  0.3250
 3131TIP3    H130884   6.341   0.907  12.464 -0.1344  0.4262  0.5445
 3131TIP3    H230885   6.315   0.774  12.395 -0.8166  1.0873 -0.5140
 3132TIP3   OH230886   0.517   6.242   3.838  0.1563 -0.0021 -0.0075
 3132TIP3    H130887   0.510   6.322   3.786  1.3005  0.3581  0.3796
 3132TIP3    H230888   0.504   6.270   3.929  0.3499 -0.2960  0.1136
 3133TIP3   OH230889   6.728   6.355   6.250  0.3185 -0.4613  0.1031
 3133TIP3    H130890   6.743   6.393   6.336 -1.2394 -0.3805  0.3748
 3133TIP3    H230891   6.808   6.306   6.231  1.2141  0.5992  1.0014
 3134TIP3   OH230892   3.813   1.000   4.249  0.4314  0.6228 -0.0632
 3134TIP3    H130893   3.864   1.080   4.261  3.1202 -0.7906 -1.2284
 3134TIP3    H230894   3.809   0.988   4.154 -1.3236  0.1681  0.0312
 3135TIP3   OH230895   3.711   4.932   1.347  0.1925 -0.1085 -0.2364
 3135TIP3    H130896   3.769   4.931   1.271 -0.3208  0.4666 -0.6426
 3135TIP3    H230897   3.665   5.016   1.342 -0.5861 -0.4968  0.1425
 3136TIP3   OH230898   3.679   2.503   0.681 -0.0146  0.6101 -0.0237
 3136TIP3    H130899   3.756   2.523   0.628 -0.6242  0.6393 -0.9212
 3136TIP3    H230900   3.692   2.413   0.710  0.4460  0.6825  0.0032
 3137TIP3   OH230901   3.725   6.183   1.799  0.3597 -0.7206 -0.1868
 3137TIP3    H130902   3.693   6.210   1.885  1.4386 -2.4849  0.8393
 3137TIP3    H230903   3.793   6.247   1.776  1.1385 -1.0862  1.0170
 3138TIP3   OH230904   4.968   3.390   6.360  0.3285  0.2227  0.2929
 3138TIP3    H130905   4.888   3.400   6.309  1.7373 -0.4796 -2.2939
 3138TIP3    H230906   4.942   3.341   6.438 -1.7598  0.1276 -0.4152
 3139TIP3   OH230907   2.975   5.578   1.531 -0.0416  0.3213 -0.0317
 3139TIP3    H130908   2.988   5.672   1.546  1.0360  0.1874 -0.0084
 3139TIP3    H230909   3.051   5.552   1.479 -0.6714 -0.4145 -0.6097
 3140TIP3   OH230910   1.366   5.669   5.323  0.5197 -1.0984 -0.2678
 3140TIP3    H130911   1.423   5.726   5.271  0.1154 -1.0192 -0.6249
 3140TIP3    H230912   1.286   5.662   5.272  0.7182 -2.3283 -0.4420
 3141TIP3   OH230913   0.664   6.132  14.973 -0.5165  0.0110  0.1171
 3141TIP3    H130914   0.585   6.155  14.924  0.2033 -1.1938 -1.7051
 3141TIP3    H230915   0.704   6.060  14.923  1.3009  0.0314  1.4283
 3142TIP3   OH230916   3.527   2.309  11.319  0.2166 -0.0714 -0.0887
 3142TIP3    H130917   3.553   2.399  11.303  1.3715 -0.1341  1.3043
 3142TIP3    H230918   3.431   2.311  11.313  0.3091  0.8254 -2.0008
 3143TIP3   OH230919   0.312   4.271   4.276  0.3132 -0.0072  0.1539
 3143TIP3    H130920   0.314   4.366   4.267 -0.8221  0.0614  0.4603
 3143TIP3    H230921   0.315   4.256   4.371  0.5647 -0.2858  0.1039
 3144TIP3   OH230922   4.074   2.298   4.567 -0.1473  0.3483  0.2222
 3144TIP3    H130923   4.000   2.289   4.507 -0.0064 -1.1466  0.2411
 3144TIP3    H230924   4.112   2.210   4.572  0.3102  0.6045  1.8954
 3145TIP3   OH230925   4.896   3.141   2.573 -0.1826  0.0027  0.3154
 3145TIP3    H130926   4.857   3.082   2.638  2.2251 -0.6919  1.2278
 3145TIP3    H230927   4.945   3.205   2.625 -1.4525  1.9029 -0.7294
 3146TIP3   OH230928   1.012   1.503  16.737 -0.6816  1.6232  0.2876
 3146TIP3    H130929   0.993   1.588  16.698  0.1638  1.9948  0.6558
 3146TIP3    H230930   1.087   1.519  16.794  0.1848  0.4000 -0.4694
 3147TIP3   OH230931   1.637   0.324  13.627  0.3130  0.3944  0.2624
 3147TIP3    H130932   1.629   0.415  13.600  0.0924  0.2721 -0.0979
 3147TIP3    H230933   1.565   0.309  13.687  0.7300  0.6333  0.8282
 3148TIP3   OH230934   2.797   6.074   4.187 -0.0895  0.8225  0.3112
 3148TIP3    H130935   2.787   5.985   4.222  3.0490  0.1838 -0.1184
 3148TIP3    H230936   2.819   6.127   4.264 -0.8072  1.0212  0.3890
 3149TIP3   OH230937   0.656   0.434   2.145 -0.1386  0.2246 -0.1768
 3149TIP3    H130938   0.711   0.356   2.147 -2.2382 -1.3291  0.2541
 3149TIP3    H230939   0.664   0.467   2.056 -0.7816 -1.7049 -0.9946
 3150TIP3   OH230940   3.915   0.484  13.918 -0.2132  0.2170  0.1130
 3150TIP3    H130941   3.823   0.509  13.928 -0.0474  0.4016  1.2933
 3150TIP3    H230942   3.955   0.505  14.002  0.6413 -1.0248  0.0496
 3151TIP3   OH230943   5.383   3.496   3.343 -0.6088  0.3506 -0.1941
 3151TIP3    H130944   5.353   3.509   3.433 -0.0782 -0.5464  0.1160
 3151TIP3    H230945   5.385   3.585   3.306 -1.8291  0.6204  0.3453
 3152TIP3   OH230946   6.118   2.588   0.047  0.2243  0.7776 -0.1067
 3152TIP3    H130947   6.213   2.577   0.045  0.1303 -1.2376  1.6864
 3152TIP3    H230948   6.105   2.673   0.090  1.2223  0.9355 -0.0755
 3153TIP3   OH230949   0.835   6.063   2.063 -0.4169  0.0052 -1.0460
 3153TIP3    H130950   0.758   6.030   2.018 -0.4369 -1.0683 -0.2678
 3153TIP3    H230951   0.807   6.145   2.102 -0.6325  0.5276 -2.2764
 3154TIP3   OH230952   4.784   0.722   2.400 -0.2798  0.3198 -0.0409
 3154TIP3    H130953   4.751   0.717   2.310  1.7755  2.3770 -1.0398
 3154TIP3    H230954   4.742   0.649   2.446 -2.1082 -0.2472 -2.4157
 3155TIP3   OH230955   1.575   2.109   1.153  0.3893  0.8680 -0.0900
 3155TIP3    H130956   1.487   2.085   1.182  0.5806  0.5650  0.2522
 3155TIP3    H230957   1.594   2.048   1.083  0.7278  0.2453  0.5288
 3156TIP3   OH230958   3.553   4.666   0.180  0.0219  0.8150 -0.4648
 3156TIP3    H130959   3.636   4.689   0.137  1.2627  1.4427  2.0650
 3156TIP3    H230960   3.554   4.571   0.186 -0.1662  0.7180 -1.7454
 3157TIP3   OH230961   0.580   0.456  15.174  0.3940 -0.3998  0.4418
 3157TIP3    H130962   0.577   0.416  15.260 -1.4884  1.2199  1.2143
 3157TIP3    H230963   0.583   0.550  15.192 -2.8653  0.1291 -1.1615
 3158TIP3   OH230964   6.514   3.039   3.925  0.9654  0.4528 -0.0347
 3158TIP3    H130965   6.535   2.967   3.984 -0.9343 -0.9841 -1.0129
 3158TIP3    H230966   6.553   3.014   3.841  0.7556  0.8221 -0.2462
 3159TIP3   OH230967   4.498   2.488   0.432  0.1101 -0.5037 -0.0927
 3159TIP3    H130968   4.417   2.477   0.382  0.0653  2.0607 -0.7131
 3159TIP3    H230969   4.470   2.532   0.512  0.8702  0.4068 -0.3147
 3160TIP3   OH230970   4.034   6.452   3.571 -0.0515 -0.1202 -0.2972
 3160TIP3    H130971   4.052   6.500   3.490 -1.7092  1.5312  0.2494
 3160TIP3    H230972   4.000   6.518   3.631 -0.7245 -1.6729  1.1004
 3161TIP3   OH230973   1.291   2.428  12.442  0.0886 -0.0126 -0.5462
 3161TIP3    H130974   1.282   2.341  12.405  1.7886 -0.6985  0.5420
 3161TIP3    H230975   1.378   2.457  12.413  1.5489 -0.6151  2.7857
 3162TIP3   OH230976   4.435   0.254  15.758 -0.0440 -0.3916 -0.0430
 3162TIP3    H130977   4.393   0.295  15.682 -0.3775  1.9273  1.3033
 3162TIP3    H230978   4.366   0.250  15.824  0.0383 -3.0673 -0.0180
 3163TIP3   OH230979   5.586   2.077   5.908 -0.3884 -0.2220  0.7678
 3163TIP3    H130980   5.665   2.033   5.938 -0.3905 -0.7369  0.0251
 3163TIP3    H230981   5.573   2.147   5.973  0.9963  0.2465  0.5940
 3164TIP3   OH230982   2.761   3.852  15.563  0.4020 -0.0574 -0.0204
 3164TIP3    H130983   2.765   3.757  15.568 -2.5295 -0.3210 -0.4777
 3164TIP3    H230984   2.697   3.877  15.630  0.1822  1.4487 -0.7333
 3165TIP3   OH230985   0.503   5.595   0.653 -0.0186 -0.1452  0.3755
 3165TIP3    H130986   0.539   5.682   0.637 -0.2501  0.6522  3.5644
 3165TIP3    H230987   0.408   5.610   0.662  0.1359 -0.3525  2.7483
 3166TIP3   OH230988   1.846   4.213  16.594 -0.0284  0.5687  0.3451
 3166TIP3    H130989   1.779   4.166  16.545 -0.3212 -1.1547  2.2347
 3166TIP3    H230990   1.889   4.269  16.530  0.5404 -2.5244 -2.2098
 3167TIP3   OH230991   1.131   5.688   0.072  0.1466 -0.7653  0.0680
 3167TIP3    H130992   1.072   5.750   0.115 -1.1734 -1.6893 -0.3644
 3167TIP3    H230993   1.087   5.604   0.078  0.1842 -1.0566 -2.5242
 3168TIP3   OH230994   2.682   5.384  12.654 -0.2462  0.0745 -0.2762
 3168TIP3    H130995   2.724   5.450  12.709 -0.1082 -0.1711 -0.0817
 3168TIP3    H230996   2.733   5.385  12.573 -2.3652  2.7008 -1.7297
 3169TIP3   OH230997   0.705   2.384  14.498  0.1850 -0.1406 -0.3590
 3169TIP3    H130998   0.621   2.410  14.461 -0.1288 -0.4586  0.1148
 3169TIP3    H230999   0.747   2.467  14.521 -0.7161 -0.0001  0.9363
 3170TIP3   OH231000   5.964   4.381   1.278  0.3149  0.2417 -0.2336
 3170TIP3    H131001   5.970   4.339   1.364  2.3683 -0.8726 -0.8390
 3170TIP3    H231002   6.014   4.462   1.287 -0.8745  0.9772  0.0305
 3171TIP3   OH231003   3.066   2.500  13.971  0.1349 -0.1545  0.0436
 3171TIP3    H131004   3.052   2.453  13.888  0.3723 -0.9943  0.4632
 3171TIP3    H231005   3.070   2.592  13.946 -0.2213 -0.3608 -0.8253
 3172TIP3   OH231006   5.936   1.692   0.034  0.2346  0.7165  0.3175
 3172TIP3    H131007   5.863   1.751   0.051  0.3423  0.6986  0.8637
 3172TIP3    H231008   5.992   1.740  -0.028 -1.1524 -0.0182 -1.6009
 3173TIP3   OH231009   6.384   4.157   0.472  0.0787 -0.5827 -0.2232
 3173TIP3    H131010   6.372   4.092   0.402 -1.7803  0.8568 -1.3369
 3173TIP3    H231011   6.469   4.197   0.453  0.4273 -1.4464 -0.5542
 3174TIP3   OH231012   0.463   3.812  16.711 -0.2794  0.0189  0.0003
 3174TIP3    H131013   0.486   3.831  16.620  0.9094 -0.5522  0.1672
 3174TIP3    H231014   0.432   3.721  16.709 -1.6005  0.4584 -0.0544
 3175TIP3   OH231015   4.982   6.079   1.496  0.1208  0.4502 -0.1923
 3175TIP3    H131016   4.962   6.144   1.429 -0.3937  0.9318  0.4170
 3175TIP3    H231017   4.897   6.050   1.528  0.3586  0.0555  0.0947
 3176TIP3   OH231018   4.559   6.630  11.233 -0.2071  0.5098 -0.2450
 3176TIP3    H131019   4.548   6.535  11.219  0.5031 -0.0635  2.4320
 3176TIP3    H231020   4.469   6.663  11.240 -0.4625 -0.1976 -0.0606
 3177TIP3   OH231021   2.533   4.584  11.514 -0.0038 -0.3686  0.9463
 3177TIP3    H131022   2.473   4.622  11.450  1.0706  1.8300  1.1645
 3177TIP3    H231023   2.576   4.512  11.467  0.2403  0.7374 -0.5824
 3178TIP3   OH231024   1.891   0.806   5.086  0.1144  0.4408  0.3318
 3178TIP3    H131025   1.819   0.745   5.074  0.6277 -0.4975  1.7540
 3178TIP3    H231026   1.953   0.784   5.016  0.1025 -0.4058  0.5714
 3179TIP3   OH231027   5.032   0.358  10.285 -0.6370  0.1255 -0.1382
 3179TIP3    H131028   5.075   0.427  10.335  0.3380 -0.9792  0.5923
 3179TIP3    H231029   4.942   0.389  10.276 -0.1979  1.5577  0.0237
 3180TIP3   OH231030   6.607   6.373   5.793 -0.2413 -0.4664 -0.6951
 3180TIP3    H131031   6.528   6.360   5.741 -0.1224 -0.7693 -0.8051
 3180TIP3    H231032   6.665   6.302   5.767 -0.2575 -0.7466  0.0165
 3181TIP3   OH231033   1.426   4.974  10.989 -0.5445  0.0425 -0.0770
 3181TIP3    H131034   1.394   4.958  10.901 -0.7517 -0.0932  0.0216
 3181TIP3    H231035   1.521   4.961  10.984 -0.7135 -1.3168  0.0217
 3182TIP3   OH231036   5.936   6.399  12.011  0.7233  0.1768  0.6108
 3182TIP3    H131037   5.935   6.305  11.994  2.3152 -0.1045  1.8254
 3182TIP3    H231038   5.881   6.436  11.942 -2.6080 -1.8810  1.9480
 3183TIP3   OH231039   5.550   6.510   2.052 -0.4531  0.0442  0.5826
 3183TIP3    H131040   5.512   6.597   2.059  0.5510  0.6272 -0.6227
 3183TIP3    H231041   5.632   6.516   2.101 -0.2015 -0.1049  0.1835
 3184TIP3   OH231042   3.221   0.797  14.366  0.1492  0.3033  0.2547
 3184TIP3    H131043   3.271   0.745  14.428  1.0586  0.5691 -0.2367
 3184TIP3    H231044   3.136   0.808  14.407 -0.0034 -1.3749  0.4842
 3185TIP3   OH231045   0.585   4.763  16.619  0.2238  0.6963 -0.2056
 3185TIP3    H131046   0.566   4.823  16.547  2.1215 -0.4285 -1.7416
 3185TIP3    H231047   0.677   4.740  16.608  0.3744 -0.1198  2.1649
 3186TIP3   OH231048   6.574   1.560   0.311  0.2348 -0.0866  0.8595
 3186TIP3    H131049   6.493   1.543   0.264  0.3531 -1.2453  1.0484
 3186TIP3    H231050   6.547   1.572   0.402  0.2000  0.2614  0.8033
 3187TIP3   OH231051   3.333   5.351   3.983  0.2324 -0.0371 -0.2431
 3187TIP3    H131052   3.301   5.333   4.071  0.0148  0.4550 -0.2187
 3187TIP3    H231053   3.317   5.271   3.934  0.9829 -0.5540  0.3434
 3188TIP3   OH231054   5.833   1.628   2.082  0.3993 -0.0241 -0.4547
 3188TIP3    H131055   5.770   1.693   2.114  1.1936 -0.1316  1.5082
 3188TIP3    H231056   5.897   1.679   2.032  0.3986  0.5583  0.1191
 3189TIP3   OH231057   5.472   1.763  12.476  0.7279 -0.3000 -0.0872
 3189TIP3    H131058   5.488   1.701  12.547  1.3310  0.0555  0.0880
 3189TIP3    H231059   5.378   1.780  12.480  0.6531 -0.7671  0.2204
 3190TIP3   OH231060   2.156   2.994   0.773 -0.4796  0.0274 -0.2218
 3190TIP3    H131061   2.121   2.961   0.856 -2.7475  1.0200 -0.7145
 3190TIP3    H231062   2.176   3.086   0.790 -2.3500  0.6469 -1.0932
 3191TIP3   OH231063   5.453   5.750  14.301 -0.0950 -0.5161 -0.0452
 3191TIP3    H131064   5.504   5.669  14.302  1.0172  0.0786 -1.8681
 3191TIP3    H231065   5.385   5.735  14.235  0.6341  0.2625 -1.0170
 3192TIP3   OH231066   6.021   3.094   5.800  0.1455 -0.0916  0.0194
 3192TIP3    H131067   5.992   3.087   5.891 -0.4185  0.7403 -0.0848
 3192TIP3    H231068   6.104   3.141   5.805  0.8546 -1.3320  0.2121
 3193TIP3   OH231069   4.160   4.304   6.316 -0.5190  0.0937 -0.8614
 3193TIP3    H131070   4.115   4.243   6.258  2.1549 -1.7709 -1.1229
 3193TIP3    H231071   4.169   4.257   6.399  0.7420  0.4551 -0.7700
 3194TIP3   OH231072   6.080   4.038   5.828 -0.2333  0.8318 -0.4781
 3194TIP3    H131073   6.061   4.070   5.740 -1.2331  1.8298  0.0823
 3194TIP3    H231074   6.028   3.958   5.837 -0.1996  0.7777 -0.7475
 3195TIP3   OH231075   4.978   1.085  15.970 -0.1791 -0.0604  0.2163
 3195TIP3    H131076   4.986   1.041  15.886  0.4736 -1.2774  0.8951
 3195TIP3    H231077   4.973   1.015  16.035 -1.4609  0.8333  1.1555
 3196TIP3   OH231078   5.512   6.744   2.297  0.1987  0.7812 -0.0125
 3196TIP3    H131079   5.477   6.826   2.263 -0.8821 -0.1540 -1.2422
 3196TIP3    H231080   5.439   6.682   2.293  1.3178 -0.5799 -0.3272
 3197TIP3   OH231081   5.334   2.265  12.511  0.2305  0.0780  0.3286
 3197TIP3    H131082   5.407   2.204  12.522 -0.1517 -0.0365  2.6429
 3197TIP3    H231083   5.340   2.292  12.419  2.0765 -1.2969 -0.0290
 3198TIP3   OH231084   5.786   5.655   0.549  0.3470  0.4453  0.2971
 3198TIP3    H131085   5.856   5.692   0.496  0.5083 -0.4388 -0.1275
 3198TIP3    H231086   5.785   5.707   0.629  0.8777  1.0451 -0.0829
 3199TIP3   OH231087   4.283   1.980  14.557  0.0483  0.3258 -0.1872
 3199TIP3    H131088   4.323   2.064  14.533  1.8766 -0.1418  1.0685
 3199TIP3    H231089   4.262   1.988  14.650  0.8620 -0.8092  0.1207
 3200TIP3   OH231090   1.300   4.142   2.848  0.2098  0.0260 -0.1096
 3200TIP3    H131091   1.389   4.169   2.868 -0.0839 -0.8469  2.9083
 3200TIP3    H231092   1.245   4.195   2.907 -1.3141  0.4761 -1.8179
 3201TIP3   OH231093   1.724   3.623   1.624  0.0831  0.1377 -0.3458
 3201TIP3    H131094   1.811   3.583   1.622  0.2657  0.5225 -0.0566
 3201TIP3    H231095   1.729   3.689   1.693 -0.1631  0.7956 -0.9543
 3202TIP3   OH231096   5.072   5.675   4.234  0.1733  0.3030  0.5413
 3202TIP3    H131097   5.008   5.670   4.306 -0.5706  0.0080 -0.1287
 3202TIP3    H231098   5.019   5.693   4.156  0.8709 -0.3318 -0.0918
 3203TIP3   OH231099   4.844   6.664  15.586  0.5379  0.2809  0.4010
 3203TIP3    H131100   4.803   6.597  15.641  1.2004 -0.7145 -0.2777
 3203TIP3    H231101   4.788   6.670  15.509  0.8195  0.0353  0.1740
 3204TIP3   OH231102   6.242   4.113  13.007 -0.2396  0.4592 -0.1374
 3204TIP3    H131103   6.316   4.073  13.052  0.2732 -0.0753 -1.3790
 3204TIP3    H231104   6.169   4.105  13.068  0.0866 -1.5097  0.0639
 3205TIP3   OH231105   1.150   1.215   2.554 -0.0612 -0.2152 -0.2641
 3205TIP3    H131106   1.217   1.189   2.617 -0.5748 -0.3929  0.2234
 3205TIP3    H231107   1.157   1.311   2.549  0.1656 -0.2262 -0.1439
 3206TIP3   OH231108   3.999   0.392  12.378 -0.0536  0.8690  0.1056
 3206TIP3    H131109   4.056   0.327  12.338 -0.2475  1.8796 -1.9027
 3206TIP3    H231110   4.039   0.409  12.463  0.7008 -0.9159  0.1661
 3207TIP3   OH231111   2.959   0.534  11.637  0.2462  0.2369 -0.0337
 3207TIP3    H131112   2.970   0.623  11.604  1.0477  0.3170  0.4345
 3207TIP3    H231113   2.891   0.541  11.703 -0.7794  0.2234 -1.0485
 3208TIP3   OH231114   2.420   0.722   0.164  0.6575 -0.2248 -0.2230
 3208TIP3    H131115   2.499   0.706   0.113  0.6518  0.4367 -0.4481
 3208TIP3    H231116   2.405   0.640   0.211  1.8012 -0.1629  0.2710
 3209TIP3   OH231117   6.207   4.597  13.064  0.0693  0.1883 -0.2063
 3209TIP3    H131118   6.291   4.627  13.100 -0.5178  0.5887  0.8825
 3209TIP3    H231119   6.180   4.527  13.123 -0.4971  0.2629 -0.3735
 3210TIP3   OH231120   0.163   6.624  16.957 -0.3065  0.5920  0.2114
 3210TIP3    H131121   0.134   6.544  17.002  1.4349 -0.8258 -1.0443
 3210TIP3    H231122   0.143   6.607  16.865 -3.1017  3.1157  0.2035
 3211TIP3   OH231123   5.727   5.600  13.748 -0.0617  0.2882  0.2458
 3211TIP3    H131124   5.812   5.615  13.706 -0.2756  2.4536  0.4598
 3211TIP3    H231125   5.668   5.662  13.704 -1.4970 -0.9756  0.2906
 3212TIP3   OH231126   4.167   1.624   4.601 -0.3627  0.3862  0.6995
 3212TIP3    H131127   4.106   1.690   4.634 -0.6581  1.1227 -1.1914
 3212TIP3    H231128   4.131   1.540   4.630 -3.8839  0.5400 -2.5446
 3213TIP3   OH231129   1.123   1.720   3.351 -0.0699 -0.0957  0.2954
 3213TIP3    H131130   1.170   1.751   3.273 -0.4162 -1.0406 -0.3151
 3213TIP3    H231131   1.094   1.799   3.395 -1.2563  0.4757 -1.4228
 3214TIP3   OH231132   1.671   3.635   3.461  0.0017 -0.7660  0.1536
 3214TIP3    H131133   1.618   3.652   3.540 -1.0653 -0.8069 -0.5310
 3214TIP3    H231134   1.644   3.703   3.400  3.0660  1.2473  0.8098
 3215TIP3   OH231135   3.200   0.051   2.546 -0.0698 -0.4404 -0.5110
 3215TIP3    H131136   3.144  -0.026   2.533 -0.2235 -0.8836  2.2532
 3215TIP3    H231137   3.202   0.064   2.641 -0.2467  3.1411 -0.8426
 3216TIP3   OH231138   5.280   6.224   5.027 -0.2486 -0.3796  0.4548
 3216TIP3    H131139   5.186   6.243   5.025 -0.4176 -1.2365 -0.6691
 3216TIP3    H231140   5.291   6.162   5.098 -0.3238  0.6729  1.4141
 3217TIP3   OH231141   6.569   2.003  17.022 -0.2740  0.2427 -0.0727
 3217TIP3    H131142   6.506   2.002  16.949  0.0361  3.0753 -0.4636
 3217TIP3    H231143   6.538   1.933  17.080 -2.3999  0.0051 -1.3666
 3218TIP3   OH231144   5.613   5.953   0.272  0.2423  0.4838  0.1157
 3218TIP3    H131145   5.645   5.870   0.308  0.4770  0.4288 -0.2204
 3218TIP3    H231146   5.582   6.001   0.349  1.9941  0.9203  0.5921
 3219TIP3   OH231147   2.328   3.831  12.397 -0.0075 -0.2054 -0.3476
 3219TIP3    H131148   2.318   3.737  12.414 -0.9911 -0.1129 -0.3855
 3219TIP3    H231149   2.417   3.839  12.361  0.2549 -1.0569  0.0870
 3220TIP3   OH231150   1.766   6.786   1.040  0.3065  0.4379  0.2222
 3220TIP3    H131151   1.762   6.700   1.083 -2.2734 -0.1567 -0.9867
 3220TIP3    H231152   1.776   6.848   1.112 -1.3651 -0.6917  1.5200
 3221TIP3   OH231153   1.086   3.635  14.573 -0.8076  0.2720  0.0852
 3221TIP3    H131154   1.119   3.719  14.603 -1.1206  0.4702 -0.1174
 3221TIP3    H231155   1.113   3.573  14.641 -0.2859  0.4769  0.0696
 3222TIP3   OH231156   6.585   0.220   1.252 -0.2670  0.5881 -0.1061
 3222TIP3    H131157   6.623   0.144   1.297 -0.2649  1.5846  1.6528
 3222TIP3    H231158   6.514   0.248   1.308 -0.3604  1.8147 -0.8030
 3223TIP3   OH231159   0.858   2.690   4.073  0.1974  0.4272 -0.1901
 3223TIP3    H131160   0.808   2.772   4.072  0.0198  0.3162 -1.0741
 3223TIP3    H231161   0.851   2.656   3.984  0.6216 -0.3428  0.0580
 3224TIP3   OH231162   6.272   6.243   5.159 -0.4821 -0.2118  0.4408
 3224TIP3    H131163   6.359   6.203   5.148 -0.4548  0.3740 -1.9518
 3224TIP3    H231164   6.228   6.186   5.221  1.2669 -1.1037  0.9364
 3225TIP3   OH231165   1.330   3.902   0.675  0.5054  0.5655 -0.0086
 3225TIP3    H131166   1.311   3.849   0.597 -2.3904  0.4719  0.6473
 3225TIP3    H231167   1.421   3.927   0.665  1.0925 -1.9152 -1.9407
 3226TIP3   OH231168   3.448   5.338  11.045  0.1218  1.0193 -1.2030
 3226TIP3    H131169   3.368   5.390  11.042 -1.8210 -1.0081  3.7490
 3226TIP3    H231170   3.420   5.249  11.023 -0.0116 -0.2929  3.2271
 3227TIP3   OH231171   2.838   0.430   2.611 -0.5953  0.4697 -0.0204
 3227TIP3    H131172   2.786   0.465   2.538 -2.0045 -1.2246  0.1241
 3227TIP3    H231173   2.880   0.352   2.575 -0.0608  0.4845  0.5599
 3228TIP3   OH231174   0.915   4.843   0.071 -0.3274  0.4587 -0.0188
 3228TIP3    H131175   0.883   4.754   0.090 -0.9798  1.1232  2.4724
 3228TIP3    H231176   0.984   4.857   0.136 -0.1037  1.7171 -0.5048
 3229TIP3   OH231177   0.403   3.807   3.487 -0.5450  0.0604  0.4249
 3229TIP3    H131178   0.346   3.872   3.529  0.0144  0.0800  1.1930
 3229TIP3    H231179   0.381   3.725   3.531 -3.1881 -0.9084 -2.3751
 3230TIP3   OH231180   3.962   6.590   2.521 -0.1980  0.3570 -0.1721
 3230TIP3    H131181   3.994   6.504   2.496 -3.2962 -1.6834  2.1502
 3230TIP3    H231182   4.028   6.625   2.580  1.0389 -0.4430 -1.0503
 3231TIP3   OH231183   2.555   3.675   5.276 -0.7703 -0.4653  0.0874
 3231TIP3    H131184   2.546   3.738   5.204  2.1949  2.4645  2.0084
 3231TIP3    H231185   2.470   3.676   5.319 -1.1250  1.5485 -0.5321
 3232TIP3   OH231186   6.420   6.455  11.673  0.1736  0.0915  0.2262
 3232TIP3    H131187   6.458   6.417  11.752 -0.5802 -0.2929  0.4211
 3232TIP3    H231188   6.464   6.411  11.600 -0.7740 -1.2728  0.4482
 3233TIP3   OH231189   2.561   2.633  16.026 -0.1250 -0.6315  0.5063
 3233TIP3    H131190   2.599   2.649  15.940 -2.1090 -0.7443 -0.4537
 3233TIP3    H231191   2.625   2.579  16.072  1.7937  0.9280 -0.2030
 3234TIP3   OH231192   4.525   6.475  15.169 -0.4812 -0.1840 -0.2988
 3234TIP3    H131193   4.521   6.521  15.085  1.3143  2.7340  1.0181
 3234TIP3    H231194   4.526   6.382  15.146 -0.4962  0.4752 -3.4481
 3235TIP3   OH231195   4.814   5.831  11.973  0.1943  0.4180  0.8808
 3235TIP3    H131196   4.726   5.854  12.003  0.1186  0.0410  0.9456
 3235TIP3    H231197   4.840   5.757  12.028  0.7598  0.8533  1.2095
 3236TIP3   OH231198   3.915   0.198   3.680 -0.7054 -0.1314 -0.2480
 3236TIP3    H131199   4.003   0.175   3.710 -1.3122 -0.5819  1.3087
 3236TIP3    H231200   3.910   0.163   3.591  0.7951  0.2047 -0.4804
 3237TIP3   OH231201   0.977   4.168   0.590  0.1844  0.0093 -0.7801
 3237TIP3    H131202   1.051   4.193   0.646  0.5376  2.4002 -2.1781
 3237TIP3    H231203   1.010   4.093   0.540  1.0405 -0.0580 -0.1432
 3238TIP3   OH231204   0.440   4.452   1.768  0.4149 -0.1528 -0.3172
 3238TIP3    H131205   0.379   4.499   1.712 -0.2070 -1.2912 -0.6118
 3238TIP3    H231206   0.503   4.412   1.708 -0.2904 -1.4292 -0.2342
 3239TIP3   OH231207   0.663   4.442   5.028 -0.3714  0.3960 -0.1742
 3239TIP3    H131208   0.674   4.370   5.091 -0.6534  0.3717 -0.1500
 3239TIP3    H231209   0.752   4.473   5.010 -0.1402 -0.6570 -0.9919
 3240TIP3   OH231210   6.063   5.252  10.982 -0.1314 -0.1007  0.7323
 3240TIP3    H131211   5.987   5.199  10.957 -0.1849  0.3807 -0.1697
 3240TIP3    H231212   6.122   5.246  10.907  0.4928 -0.0355  1.2075
 3241TIP3   OH231213   6.794   1.837   0.740  0.3707 -0.0903 -0.0621
 3241TIP3    H131214   6.826   1.768   0.798  1.6568  0.1759 -0.4150
 3241TIP3    H231215   6.749   1.899   0.798 -1.0555 -1.3434  0.2209
 3242TIP3   OH231216   2.174   5.486  16.145  0.3880 -0.2875 -0.1944
 3242TIP3    H131217   2.231   5.530  16.209 -0.6734 -2.1016  2.1952
 3242TIP3    H231218   2.233   5.425  16.100  0.8027 -0.5435  0.6550
 3243TIP3   OH231219   4.847   1.813   5.963 -0.3784  0.0742 -0.0555
 3243TIP3    H131220   4.783   1.879   5.935 -0.0343  1.0040  1.2562
 3243TIP3    H231221   4.815   1.784   6.049  0.1296 -0.5847 -0.0884
 3244TIP3   OH231222   1.038   4.036  12.242 -0.4748  0.6880 -0.2775
 3244TIP3    H131223   1.116   4.010  12.193 -0.4354 -1.3414  0.7129
 3244TIP3    H231224   1.067   4.107  12.299  0.8363 -0.4085  0.4778
 3245TIP3   OH231225   4.012   0.180  15.213  0.3007 -0.5335  0.5705
 3245TIP3    H131226   3.976   0.266  15.189  1.5497 -0.3690 -0.8749
 3245TIP3    H231227   3.939   0.135  15.256 -0.7576  0.7984  0.2442
 3246TIP3   OH231228   0.645   5.095   2.629 -0.4703 -0.0969  0.0654
 3246TIP3    H131229   0.715   5.149   2.667 -2.1599  1.8474  0.5938
 3246TIP3    H231230   0.647   5.014   2.680  2.7232 -1.0678 -1.3277
 3247TIP3   OH231231   5.733   5.875   1.779 -0.3519  0.3170  0.0050
 3247TIP3    H131232   5.780   5.866   1.696  0.6631 -0.6378  0.6624
 3247TIP3    H231233   5.643   5.852   1.758  0.0245 -0.5666 -0.7165
 3248TIP3   OH231234   4.210   2.026  14.845 -0.5483 -0.3309 -0.0533
 3248TIP3    H131235   4.131   1.975  14.826 -0.5407 -0.6224  0.6856
 3248TIP3    H231236   4.235   2.000  14.934 -0.0047  0.2626 -0.0283
 3249TIP3   OH231237   4.658   2.826  11.118  0.2641 -0.3055  0.0993
 3249TIP3    H131238   4.715   2.755  11.088  0.5379  0.2742 -0.7810
 3249TIP3    H231239   4.703   2.906  11.090 -0.8774  0.1641 -0.4328
 3250TIP3   OH231240   3.104   2.289  11.616  0.0757  0.1969 -0.0105
 3250TIP3    H131241   3.063   2.329  11.539  1.6903 -0.2025 -1.1189
 3250TIP3    H231242   3.123   2.362  11.674 -2.0433  0.4128  0.5047
 3251TIP3   OH231243   3.170   5.438  14.213  0.3531  0.1240  0.5104
 3251TIP3    H131244   3.146   5.411  14.301  1.1051 -0.7666  0.4591
 3251TIP3    H231245   3.161   5.533  14.213  1.2894  0.2272  1.8405
 3252TIP3   OH231246   2.888   1.991  16.864 -0.1128  0.2196  0.0069
 3252TIP3    H131247   2.799   1.962  16.845 -0.3586  0.6250  0.5074
 3252TIP3    H231248   2.884   2.086  16.858  0.7733  0.1843 -2.0194
 3253TIP3   OH231249   1.603   6.415  14.610 -0.0384 -0.3952  0.0888
 3253TIP3    H131250   1.665   6.473  14.564 -0.2182  0.5938  1.0564
 3253TIP3    H231251   1.519   6.461  14.606 -0.7382 -1.7187 -1.1909
 3254TIP3   OH231252   5.502   1.773  10.622  0.0377 -1.4119 -1.1066
 3254TIP3    H131253   5.552   1.728  10.554  1.3871 -2.3264  0.4259
 3254TIP3    H231254   5.520   1.866  10.608  1.3663 -1.6698 -1.2105
 3255TIP3   OH231255   5.181   3.653  16.628 -0.6662 -0.2100  0.3298
 3255TIP3    H131256   5.118   3.628  16.695  1.5727 -2.0850  1.9101
 3255TIP3    H231257   5.130   3.660  16.548 -3.0811 -0.0756  1.7797
 3256TIP3   OH231258   4.482   0.702  14.962  0.7847  0.2721 -0.3718
 3256TIP3    H131259   4.531   0.653  15.028  0.2486 -1.2916 -1.0896
 3256TIP3    H231260   4.392   0.669  14.971  0.1233  2.0670 -0.0209
 3257TIP3   OH231261   0.741   5.332  12.003  0.5194  0.3088  0.0695
 3257TIP3    H131262   0.748   5.332  11.907 -0.3187 -0.0262 -0.0004
 3257TIP3    H231263   0.814   5.278  12.032  1.1875  0.9709 -0.3393
 3258TIP3   OH231264   6.207   6.076  13.274 -1.0052  0.5108 -0.5777
 3258TIP3    H131265   6.206   6.171  13.258  0.2391  0.1766 -3.1417
 3258TIP3    H231266   6.262   6.041  13.204 -1.9423 -2.1985 -0.0500
 3259TIP3   OH231267   1.034   4.660  14.488 -0.3785  0.1141 -0.0678
 3259TIP3    H131268   0.958   4.617  14.450 -1.4037  1.2619  0.6048
 3259TIP3    H231269   1.036   4.746  14.446  0.7640 -0.0346 -0.3344
 3260TIP3   OH231270   5.276   3.257  11.509  0.0988  0.1266 -0.1627
 3260TIP3    H131271   5.220   3.179  11.508  0.1996 -0.0523  2.1546
 3260TIP3    H231272   5.340   3.239  11.578  0.5787  1.9643 -0.0846
 3261TIP3   OH231273   1.603   3.297   5.175  0.0503  0.4257  0.2521
 3261TIP3    H131274   1.675   3.235   5.162  0.1219  0.4876  0.3489
 3261TIP3    H231275   1.622   3.370   5.116 -0.3462  0.0915 -0.3030
 3262TIP3   OH231276   5.871   6.500  14.929 -0.1489  0.2314  0.4013
 3262TIP3    H131277   5.859   6.543  14.845 -0.6159  0.0195  0.3549
 3262TIP3    H231278   5.876   6.571  14.993 -1.1398  0.3542  0.3543
 3263TIP3   OH231279   4.205   3.048  16.808  0.3983  0.0342 -0.2530
 3263TIP3    H131280   4.180   3.081  16.894 -0.0360  1.9666 -1.0577
 3263TIP3    H231281   4.276   3.105  16.779 -1.4339  1.4457 -2.3707
 3264TIP3   OH231282   4.006   2.335   0.449 -0.2717  0.4592 -0.4261
 3264TIP3    H131283   4.034   2.294   0.531 -1.1961  0.1840 -0.2420
 3264TIP3    H231284   4.027   2.269   0.382 -1.0845 -0.0338 -0.2104
 3265TIP3   OH231285   2.459   5.637  12.537  0.2936 -0.7395  0.3729
 3265TIP3    H131286   2.508   5.672  12.463  0.0178  0.7571  0.8669
 3265TIP3    H231287   2.525   5.617  12.603  0.3164  0.7701  0.8359
 3266TIP3   OH231288   6.399   2.466   1.485  0.1560 -0.0585  0.1170
 3266TIP3    H131289   6.482   2.460   1.437 -0.7118 -0.2544 -1.4506
 3266TIP3    H231290   6.356   2.544   1.449  0.0864  0.6624  1.6653
 3267TIP3   OH231291   4.269   3.640  15.557 -0.6551 -0.5901  0.0131
 3267TIP3    H131292   4.362   3.634  15.578 -0.0545  2.2466 -1.4185
 3267TIP3    H231293   4.229   3.682  15.633 -0.3299  0.2759 -0.2847
 3268TIP3   OH231294   3.340   2.550   1.245  0.3642  0.6175  0.0094
 3268TIP3    H131295   3.427   2.563   1.283 -0.3298 -1.5857  2.6670
 3268TIP3    H231296   3.295   2.634   1.260  1.7528  1.5199 -0.7076
 3269TIP3   OH231297   2.669   2.507   3.181 -0.8456 -0.3675 -0.2041
 3269TIP3    H131298   2.695   2.422   3.216  1.1764  0.3235  0.1066
 3269TIP3    H231299   2.575   2.513   3.199 -0.7771 -1.9840  0.9004
 3270TIP3   OH231300   4.644   3.625  10.357 -0.8536 -0.0366 -0.2587
 3270TIP3    H131301   4.627   3.716  10.383  0.9812  0.2861 -0.0463
 3270TIP3    H231302   4.580   3.574  10.406 -0.2975  0.9519  1.6116
 3271TIP3   OH231303   2.595   6.567   1.073  0.0481  0.3867 -0.1258
 3271TIP3    H131304   2.542   6.635   1.115 -1.3206  0.2612 -1.5910
 3271TIP3    H231305   2.673   6.614   1.042 -0.1287  0.9582  0.2703
 3272TIP3   OH231306   4.038   6.522  11.125  0.0291 -0.2165  0.0708
 3272TIP3    H131307   3.959   6.576  11.121 -0.8563 -1.3342  1.5962
 3272TIP3    H231308   4.037   6.484  11.213  1.3352 -1.6493 -0.4967
 3273TIP3   OH231309   1.432   4.886   1.828 -0.1697  0.0642 -0.4446
 3273TIP3    H131310   1.386   4.934   1.897 -1.3253 -1.9393  0.2860
 3273TIP3    H231311   1.463   4.806   1.871  0.4601 -0.5147 -1.8918
 3274TIP3   OH231312   2.871   3.168   1.374  0.1060 -0.2824  0.3386
 3274TIP3    H131313   2.901   3.129   1.292 -1.8254 -2.0718  0.3880
 3274TIP3    H231314   2.882   3.098   1.439 -0.9640  0.1301  1.0009
 3275TIP3   OH231315   1.204   0.306  14.530  0.2090  0.4306  0.6134
 3275TIP3    H131316   1.167   0.382  14.486  0.5264 -0.3846 -1.1440
 3275TIP3    H231317   1.273   0.342  14.586 -0.1007  1.4882  0.3279
 3276TIP3   OH231318   4.152   5.637   5.881  0.0592 -0.1043  0.4079
 3276TIP3    H131319   4.223   5.605   5.936 -0.9398 -2.3296  0.4876
 3276TIP3    H231320   4.074   5.628   5.934 -0.5129  0.8245 -0.2360
 3277TIP3   OH231321   4.719   5.165   1.415  0.7423 -0.1712  0.5681
 3277TIP3    H131322   4.797   5.176   1.470  1.1541  0.2700 -0.0991
 3277TIP3    H231323   4.747   5.191   1.328 -0.7800  2.4209  0.7325
 3278TIP3   OH231324   5.618   3.926  16.131  0.3395 -0.6814  0.2328
 3278TIP3    H131325   5.668   3.899  16.209  0.2939 -0.0184  0.4980
 3278TIP3    H231326   5.555   3.856  16.117  1.1521 -1.4024  0.0609
 3279TIP3   OH231327   6.545   3.083   2.503  0.2884 -0.2866  0.1487
 3279TIP3    H131328   6.527   3.127   2.586  1.0842 -3.4910  2.2096
 3279TIP3    H231329   6.461   3.044   2.478  0.1892  0.1776 -0.2609
 3280TIP3   OH231330   0.796   3.984  14.191 -0.2092 -0.1509 -0.1651
 3280TIP3    H131331   0.767   3.894  14.208  2.4699 -1.8165 -3.2964
 3280TIP3    H231332   0.865   3.999  14.255  0.6874 -1.1252 -0.8841
 3281TIP3   OH231333   2.316   2.125  13.568 -0.9865  0.0869  0.5220
 3281TIP3    H131334   2.398   2.134  13.519  0.2813 -1.1620  2.2680
 3281TIP3    H231335   2.316   2.201  13.627 -0.9365 -0.0421  0.6913
 3282TIP3   OH231336   3.185   6.500   0.365 -0.1482  0.0689  0.4003
 3282TIP3    H131337   3.147   6.495   0.277 -1.1136  0.2526  0.7955
 3282TIP3    H231338   3.159   6.418   0.407  1.6149 -0.7377  0.0359
 3283TIP3   OH231339   4.277   0.445  12.188  0.4164  0.1941  0.2509
 3283TIP3    H131340   4.232   0.365  12.214  1.8902 -0.3440  1.2791
 3283TIP3    H231341   4.247   0.462  12.098  0.9497 -2.1846 -0.4460
 3284TIP3   OH231342   1.754   0.386  11.837  0.6405  0.0130  0.2481
 3284TIP3    H131343   1.716   0.451  11.896 -0.7885 -0.7234  0.1873
 3284TIP3    H231344   1.744   0.303  11.883 -0.2334 -0.5391 -0.8902
 3285TIP3   OH231345   5.308   0.325   3.420  0.5044  0.0579 -0.0308
 3285TIP3    H131346   5.313   0.394   3.353 -2.9912  0.1263 -0.3966
 3285TIP3    H231347   5.309   0.373   3.503  0.8143  0.3172 -0.1798
 3286TIP3   OH231348   0.059   4.974   0.754  0.2321 -0.3888 -0.0770
 3286TIP3    H131349   0.030   4.885   0.737 -1.5781 -0.1503  1.3880
 3286TIP3    H231350   0.097   5.003   0.671  0.0566 -2.2033 -0.8408
 3287TIP3   OH231351   6.641   6.657   5.482 -0.0785  0.3035 -0.3923
 3287TIP3    H131352   6.736   6.670   5.493 -0.2232  0.2646  1.1379
 3287TIP3    H231353   6.633   6.604   5.403  1.0326  2.2183 -1.8855
 3288TIP3   OH231354   4.390   1.330  14.409  0.0475  0.2790 -0.1239
 3288TIP3    H131355   4.307   1.365  14.443 -0.2542 -0.5349  0.0020
 3288TIP3    H231356   4.450   1.404  14.413  0.4305 -0.0089  3.5061
 3289TIP3   OH231357   6.234   0.064  11.789 -0.2165  0.1590 -0.0965
 3289TIP3    H131358   6.237  -0.007  11.725  0.0672 -0.4649  0.5970
 3289TIP3    H231359   6.256   0.023  11.872 -1.8097  0.7115  0.6343
 3290TIP3   OH231360   2.657   5.148  11.381  0.1736  0.0257 -0.5160
 3290TIP3    H131361   2.577   5.198  11.365 -0.5743 -1.1062 -0.3811
 3290TIP3    H231362   2.652   5.073  11.322  1.0136 -0.1884 -0.3296
 3291TIP3   OH231363   3.018   5.821  16.143  0.0621  0.0842  0.5839
 3291TIP3    H131364   2.995   5.840  16.234 -1.2018 -2.5449  0.9090
 3291TIP3    H231365   2.951   5.760  16.113 -0.1878  1.6683 -2.5254
 3292TIP3   OH231366   2.227   1.896   0.380  0.1658 -0.1327  0.3682
 3292TIP3    H131367   2.297   1.832   0.370 -0.7034 -0.9935 -0.4687
 3292TIP3    H231368   2.272   1.978   0.400  1.2857 -1.0302  1.6875
 3293TIP3   OH231369   6.515   3.384  15.230  0.3801 -1.1059 -0.1235
 3293TIP3    H131370   6.468   3.301  15.232 -0.7582 -0.5186 -1.2260
 3293TIP3    H231371   6.494   3.422  15.145  1.7554 -0.1693 -0.0860
 3294TIP3   OH231372   6.206   1.425  12.066  0.0600 -0.0097 -0.3718
 3294TIP3    H131373   6.220   1.377  12.147  0.9697  1.4590  0.3936
 3294TIP3    H231374   6.248   1.510  12.081  0.2720  0.2964 -2.3854
 3295TIP3   OH231375   5.979   5.675   1.373 -0.7802 -0.3147  0.0604
 3295TIP3    H131376   6.069   5.662   1.343  0.0988  0.4870  2.1751
 3295TIP3    H231377   5.929   5.608   1.327  0.7270 -0.2279 -1.8199
 3296TIP3   OH231378   5.752   1.137   1.342 -0.4644  0.8386  0.1355
 3296TIP3    H131379   5.764   1.232   1.332  0.4516  0.8112  0.7909
 3296TIP3    H231380   5.825   1.110   1.399 -2.0699  0.1079  1.9389
 3297TIP3   OH231381   5.925   3.229   2.419 -0.6597 -0.3287  0.2592
 3297TIP3    H131382   5.983   3.274   2.358  0.7735 -1.6146  0.6104
 3297TIP3    H231383   5.837   3.255   2.392  0.0391  1.9446 -0.0916
 3298TIP3   OH231384   2.447   0.176  10.683 -0.6847  0.0901  0.4940
 3298TIP3    H131385   2.354   0.178  10.661 -0.1843  0.0695 -1.7867
 3298TIP3    H231386   2.479   0.095  10.646  0.6808  1.1353 -0.7231
 3299TIP3   OH231387   3.907   6.196   4.516  0.0513  0.3861  0.6758
 3299TIP3    H131388   3.811   6.193   4.523 -0.1049 -2.6195 -1.0454
 3299TIP3    H231389   3.937   6.146   4.592  0.2829  1.1278  1.0834
 3300TIP3   OH231390   3.768   6.786  13.545 -0.5960 -0.2045 -0.7430
 3300TIP3    H131391   3.815   6.745  13.618 -1.4820  0.1341  0.0523
 3300TIP3    H231392   3.836   6.829  13.493  0.1685 -1.3362 -0.7072
 3301TIP3   OH231393   2.482   0.476  16.949 -0.2548 -0.0349  0.1897
 3301TIP3    H131394   2.479   0.571  16.941 -3.5435 -0.1787 -2.1546
 3301TIP3    H231395   2.400   0.452  16.994 -0.6478 -1.8230 -1.3284
 3302TIP3   OH231396   0.861   5.278   0.922  0.2941 -0.1399 -0.2432
 3302TIP3    H131397   0.947   5.319   0.906  0.5077 -0.6092 -0.3008
 3302TIP3    H231398   0.853   5.277   1.017  0.5874 -0.5780 -0.2221
 3303TIP3   OH231399   1.370   4.761  16.094 -0.1942  0.2148  0.7460
 3303TIP3    H131400   1.444   4.706  16.119  0.2387 -0.1078 -1.0710
 3303TIP3    H231401   1.407   4.850  16.090 -0.0009  0.1142  0.2443
 3304TIP3   OH231402   5.732   5.384  14.813 -0.4067 -0.0078  0.1213
 3304TIP3    H131403   5.724   5.361  14.905 -0.4601 -1.1460 -0.1599
 3304TIP3    H231404   5.654   5.437  14.795 -0.1671  0.6112  0.8254
 3305TIP3   OH231405   0.774   3.353   6.024  0.0200  0.1434  0.4464
 3305TIP3    H131406   0.839   3.317   5.964  0.0077 -0.4019  0.7518
 3305TIP3    H231407   0.766   3.287   6.093  0.3830  0.9700  1.3064
 3306TIP3   OH231408   2.639   4.220  16.873 -0.3395  0.1663  0.5275
 3306TIP3    H131409   2.688   4.269  16.807 -2.2636  2.0098  0.3648
 3306TIP3    H231410   2.701   4.154  16.905  1.0887  0.1140 -2.0976
 3307TIP3   OH231411   4.809   3.057   0.747  1.0988 -0.4146 -0.0028
 3307TIP3    H131412   4.726   3.043   0.791  0.9329 -2.3790 -0.8372
 3307TIP3    H231413   4.875   3.027   0.809  1.3247  2.0175  1.0367
 3308TIP3   OH231414   3.417   5.145  12.544 -0.0360  0.9496 -0.4706
 3308TIP3    H131415   3.386   5.234  12.530  0.4735  1.0018 -1.3461
 3308TIP3    H231416   3.364   5.112  12.617  0.1658  2.1647  0.2574
 3309TIP3   OH231417   1.354   6.547   5.812 -0.0053  0.1876  0.1090
 3309TIP3    H131418   1.259   6.531   5.813  0.0091 -0.2357 -1.6411
 3309TIP3    H231419   1.370   6.591   5.728  1.2444  1.0276  0.7669
 3310TIP3   OH231420   0.480   0.620  14.743 -0.0093  0.4194 -0.1404
 3310TIP3    H131421   0.421   0.638  14.670 -0.2336  0.1683 -0.0186
 3310TIP3    H231422   0.456   0.533  14.773  2.2204 -0.9288 -1.8683
 3311TIP3   OH231423   6.096   2.320   4.125  0.2907  0.2762 -0.1838
 3311TIP3    H131424   6.025   2.277   4.078  0.2062 -1.0684  1.1377
 3311TIP3    H231425   6.062   2.335   4.213  1.0824  1.0925 -0.0071
 3312TIP3   OH231426   3.992   3.474  14.310  0.2109  0.1212  0.2624
 3312TIP3    H131427   3.955   3.445  14.226 -1.3477 -1.5883  1.4518
 3312TIP3    H231428   3.918   3.474  14.370  1.8995 -3.1233  2.7101
 3313TIP3   OH231429   3.866   2.723   1.596 -0.0897 -0.2265 -0.6546
 3313TIP3    H131430   3.860   2.767   1.511 -1.4281  1.1657  0.1036
 3313TIP3    H231431   3.797   2.764   1.648  0.8614 -0.8773  1.1825
 3314TIP3   OH231432   5.275   5.998  14.105 -0.9289  0.8272 -0.3118
 3314TIP3    H131433   5.231   5.915  14.125 -0.8122  0.7631 -0.3175
 3314TIP3    H231434   5.217   6.065  14.140 -1.9815  0.8463 -2.0217
 3315TIP3   OH231435   3.571   4.662   5.494 -0.5760 -0.8927  0.2641
 3315TIP3    H131436   3.544   4.577   5.529 -1.2806 -0.1258  1.6804
 3315TIP3    H231437   3.622   4.702   5.565  1.0145 -0.6958 -0.9242
 3316TIP3   OH231438   6.308   1.506  11.119 -0.2578  0.1414 -0.4884
 3316TIP3    H131439   6.253   1.559  11.062 -1.5058 -1.3023 -0.6652
 3316TIP3    H231440   6.272   1.417  11.113  0.0924 -0.2319  1.8778
 3317TIP3   OH231441   2.390   4.382  10.518 -0.4387  0.6064  0.1616
 3317TIP3    H131442   2.333   4.343  10.452  1.4955 -1.4043 -0.4967
 3317TIP3    H231443   2.369   4.335  10.599  1.4427 -1.5912 -0.4939
 3318TIP3   OH231444   3.853   6.292  14.487  0.1011  0.7839 -0.4621
 3318TIP3    H131445   3.931   6.257  14.445 -0.7561 -1.8819  0.0107
 3318TIP3    H231446   3.803   6.332  14.415 -0.9424 -2.9502 -2.0356
 3319TIP3   OH231447   6.751   0.103   0.298  1.0996 -0.1585 -0.1209
 3319TIP3    H131448   6.707   0.107   0.383  0.9157  0.1602 -0.2276
 3319TIP3    H231449   6.845   0.104   0.319  1.0581  0.6137  0.0569
 3320TIP3   OH231450   4.749   2.384  12.541 -0.2220  0.5090 -0.2942
 3320TIP3    H131451   4.823   2.385  12.602  1.7948 -0.0157 -2.5471
 3320TIP3    H231452   4.679   2.339  12.588  1.5394 -0.7057  1.2985
 3321TIP3   OH231453   3.217   5.863  15.573 -0.2164  0.0079  0.4241
 3321TIP3    H131454   3.139   5.875  15.627  0.3866  1.0129  1.0989
 3321TIP3    H231455   3.201   5.780  15.527 -2.4310  0.9949 -0.7656
 3322TIP3   OH231456   3.871   0.095  12.658  0.0710  0.4501  0.2893
 3322TIP3    H131457   3.821   0.074  12.737  0.6962  0.1440  0.6037
 3322TIP3    H231458   3.828   0.173  12.624 -0.9794 -0.1279  0.2463
 3323TIP3   OH231459   5.546   1.705  16.676  0.3480  0.3695  0.2111
 3323TIP3    H131460   5.515   1.780  16.626  1.6265  0.6479 -0.2031
 3323TIP3    H231461   5.467   1.662  16.708 -0.4119  1.5512 -0.0477
 3324TIP3   OH231462   2.723   4.360  13.915  0.0067  0.3722  0.5951
 3324TIP3    H131463   2.707   4.432  13.977 -0.8135 -0.6320  1.5904
 3324TIP3    H231464   2.642   4.310  13.915  0.7288 -0.8448  0.3127
 3325TIP3   OH231465   2.270   4.341   1.365  0.3111 -0.3748  0.5876
 3325TIP3    H131466   2.235   4.260   1.327 -0.5178 -0.8268  2.2282
 3325TIP3    H231467   2.359   4.319   1.391  0.2778 -0.5789  0.5300
 3326TIP3   OH231468   5.835   2.690  10.881 -0.2086  0.3373  0.9201
 3326TIP3    H131469   5.776   2.757  10.846  0.1033 -0.2981 -0.9682
 3326TIP3    H231470   5.881   2.734  10.952 -0.2200  2.0539 -0.0672
 3327TIP3   OH231471   0.855   5.311   5.908 -0.0991 -0.1156  0.4896
 3327TIP3    H131472   0.885   5.388   5.859  2.0069 -0.6178  0.8730
 3327TIP3    H231473   0.905   5.314   5.990  0.2532 -2.0027  0.3916
 3328TIP3   OH231474   1.244   1.993   5.865  0.1659  0.0403  0.2261
 3328TIP3    H131475   1.242   1.983   5.960  2.3756 -0.9130  0.2315
 3328TIP3    H231476   1.176   2.058   5.847  1.0417  1.8265  2.6799
 3329TIP3   OH231477   0.754   6.814  15.831 -0.0275  0.0519  0.7447
 3329TIP3    H131478   0.731   6.907  15.833 -1.8460 -0.2578 -1.6206
 3329TIP3    H231479   0.850   6.813  15.827  0.1277  1.7113  2.5286
 3330TIP3   OH231480   3.461   1.548  14.018  0.2442  0.5192 -0.2289
 3330TIP3    H131481   3.449   1.607  14.093 -1.0130 -0.3189  0.2841
 3330TIP3    H231482   3.391   1.483  14.029  1.7877 -1.2809 -0.5498
 3331TIP3   OH231483   2.711   2.747   2.744  0.2668  0.0336 -0.3520
 3331TIP3    H131484   2.674   2.751   2.832  0.3894 -2.2806 -0.1359
 3331TIP3    H231485   2.641   2.711   2.690  0.9226 -0.7673 -0.7014
 3332TIP3   OH231486   6.110   0.653   5.565 -0.0149  0.7508 -0.3375
 3332TIP3    H131487   6.162   0.576   5.541 -0.7467 -1.2395  3.6065
 3332TIP3    H231488   6.030   0.645   5.514  0.5143 -0.2904 -1.0328
 3333TIP3   OH231489   1.123   1.264  11.526 -0.0769  0.0450  0.1179
 3333TIP3    H131490   1.182   1.191  11.508  0.9280  0.8005  0.2876
 3333TIP3    H231491   1.152   1.334  11.468 -0.3593  0.6534  0.6896
 3334TIP3   OH231492   5.192   5.122  15.787  0.2574  0.6306 -0.0158
 3334TIP3    H131493   5.211   5.054  15.723  0.4063  1.0333 -0.4079
 3334TIP3    H231494   5.162   5.075  15.864 -4.4893  0.2012 -1.7945
 3335TIP3   OH231495   4.403   1.937  15.888  0.5025 -0.3781 -0.7192
 3335TIP3    H131496   4.416   1.951  15.794 -1.5475  0.0212 -0.9930
 3335TIP3    H231497   4.462   1.865  15.910  1.7166  0.1420 -2.0985
 3336TIP3   OH231498   5.551   4.561   0.707  0.1291 -0.1372  0.0960
 3336TIP3    H131499   5.551   4.640   0.654 -0.0426 -0.5497 -0.5350
 3336TIP3    H231500   5.459   4.546   0.729 -0.1619 -1.4517 -1.7893
 3337TIP3   OH231501   2.437   5.894   0.054 -0.3059 -0.3977 -0.1166
 3337TIP3    H131502   2.418   5.979   0.094 -0.5274 -0.7482  0.5382
 3337TIP3    H231503   2.407   5.830   0.119  0.3475 -0.9715 -0.3744
 3338TIP3   OH231504   2.127   2.453  11.377  0.0220  0.1193  0.1557
 3338TIP3    H131505   2.149   2.538  11.339 -1.9776  0.3894 -0.5219
 3338TIP3    H231506   2.150   2.389  11.310 -0.8647  0.3681 -0.4027
 3339TIP3   OH231507   1.345   5.326   1.630  0.1910 -0.3755  0.0317
 3339TIP3    H131508   1.359   5.326   1.725 -0.8393 -0.4462  0.1881
 3339TIP3    H231509   1.371   5.238   1.602 -0.9669 -0.8827  0.4815
 3340TIP3   OH231510   0.462   5.887  11.990  0.8875  0.0434  0.2195
 3340TIP3    H131511   0.372   5.918  11.986  0.3543 -1.4280  0.0511
 3340TIP3    H231512   0.506   5.933  11.919  0.2017  0.5678  0.1239
 3341TIP3   OH231513   6.087   5.019  12.994  0.2235  0.0152  0.0916
 3341TIP3    H131514   6.112   5.050  13.081 -1.0785  0.1056  0.4597
 3341TIP3    H231515   6.009   5.069  12.973 -1.7009 -2.5909  0.4941
 3342TIP3   OH231516   3.298   6.020  11.146  0.6480 -0.4057 -0.5162
 3342TIP3    H131517   3.230   5.998  11.083 -0.3302  1.6722 -0.2732
 3342TIP3    H231518   3.352   6.087  11.101  1.4392 -0.7080 -0.0408
 3343TIP3   OH231519   2.191   0.677   1.877 -0.1043  0.1798  0.0959
 3343TIP3    H131520   2.204   0.652   1.786  0.4729  0.0975  0.1926
 3343TIP3    H231521   2.272   0.650   1.921 -0.1746  0.6608  0.5359
 3344TIP3   OH231522   3.930   4.058  16.954 -0.4365  0.0992 -0.0485
 3344TIP3    H131523   3.879   4.056  16.873  1.0077  0.9433 -1.0096
 3344TIP3    H231524   4.003   4.117  16.936  2.6860 -3.3444  0.1491
 3345TIP3   OH231525   2.373   4.198  15.361 -0.2596  0.1997  0.2262
 3345TIP3    H131526   2.295   4.242  15.394 -0.5014 -1.2075  1.6042
 3345TIP3    H231527   2.388   4.125  15.421  0.6332 -1.0956 -1.4659
 3346TIP3   OH231528   4.838   3.182   1.935  0.1143 -0.5861  0.2133
 3346TIP3    H131529   4.771   3.242   1.899  1.2911  0.4299 -0.3832
 3346TIP3    H231530   4.828   3.102   1.884 -0.5168 -0.3749 -0.0064
 3347TIP3   OH231531   4.748   5.048   2.108  0.3580 -0.1259 -0.4194
 3347TIP3    H131532   4.743   5.144   2.100 -1.3051 -0.0898  0.5257
 3347TIP3    H231533   4.677   5.026   2.169  2.0435 -1.7682  1.0513
 3348TIP3   OH231534   1.092   5.580  13.327 -0.2850  0.0273  0.4657
 3348TIP3    H131535   1.052   5.590  13.241  0.9366  0.5640 -0.0634
 3348TIP3    H231536   1.155   5.652  13.333 -0.1996 -0.1273  1.7241
 3349TIP3   OH231537   0.644   4.853   0.284 -0.1444  0.0598 -0.4812
 3349TIP3    H131538   0.602   4.818   0.205 -1.4474  0.8446 -0.1715
 3349TIP3    H231539   0.572   4.870   0.344  0.7089  0.6380  0.4119
 3350TIP3   OH231540   5.471   5.659   0.545 -0.0275 -0.2966 -0.0396
 3350TIP3    H131541   5.467   5.644   0.639 -0.9741  1.1866  0.1814
 3350TIP3    H231542   5.555   5.704   0.531  0.0646 -0.4243  0.1007
 3351TIP3   OH231543   5.944   4.468   4.237  0.0612 -0.0573  0.0885
 3351TIP3    H131544   6.028   4.498   4.271  1.2389 -0.6766 -2.1084
 3351TIP3    H231545   5.890   4.547   4.234  1.0222  0.6207  0.2347
 3352TIP3   OH231546   1.919   0.969  14.067 -0.6042 -0.4062  0.1021
 3352TIP3    H131547   1.887   1.033  14.131 -1.4896  0.1625 -0.8726
 3352TIP3    H231548   2.007   0.948  14.097 -0.2945  1.2568  0.4746
 3353TIP3   OH231549   4.857   2.757  12.802 -0.2958  0.1767  0.5195
 3353TIP3    H131550   4.795   2.829  12.816 -2.9109 -1.5706 -1.1176
 3353TIP3    H231551   4.925   2.771  12.867 -1.9801  2.7193  1.9083
 3354TIP3   OH231552   3.827   3.203  13.442  0.1617 -0.7212  0.1050
 3354TIP3    H131553   3.741   3.213  13.484 -1.0999 -2.4691 -1.8304
 3354TIP3    H231554   3.881   3.272  13.480 -2.2804  0.8522  0.9450
 3355TIP3   OH231555   5.170   4.617  15.512 -0.1414  0.3537  0.3920
 3355TIP3    H131556   5.116   4.596  15.588 -2.0839  0.8134 -0.7987
 3355TIP3    H231557   5.110   4.612  15.437  1.3427  1.3897 -0.9382
 3356TIP3   OH231558   0.392   6.537   0.741 -0.2500 -0.3066  0.3499
 3356TIP3    H131559   0.310   6.519   0.694 -0.2795  1.9484 -0.6070
 3356TIP3    H231560   0.412   6.628   0.719  0.8857  0.1852  3.0789
 3357TIP3   OH231561   1.119   4.616  15.379  0.4366  0.5639 -0.3711
 3357TIP3    H131562   1.112   4.549  15.312 -2.9850  0.4778 -0.0971
 3357TIP3    H231563   1.172   4.576  15.448  1.3710 -0.5040 -1.6563
 3358TIP3   OH231564   1.686   0.318  14.189  0.6485 -0.0548 -0.7392
 3358TIP3    H131565   1.622   0.248  14.197  0.9808 -0.1895  1.1081
 3358TIP3    H231566   1.684   0.342  14.096 -1.0968 -0.9481 -0.9674
 3359TIP3   OH231567   2.691   5.417   5.852 -0.4075 -0.2361 -0.1083
 3359TIP3    H131568   2.640   5.436   5.773 -0.3314 -0.4701 -0.2144
 3359TIP3    H231569   2.744   5.341   5.828 -0.3304 -0.2608  0.1446
 3360TIP3   OH231570   2.210   5.342   3.719  0.8483  0.4878 -0.6728
 3360TIP3    H131571   2.292   5.292   3.721  1.3949  1.3672 -0.0553
 3360TIP3    H231572   2.219   5.404   3.792 -1.9401 -1.7988  1.8742
 3361TIP3   OH231573   3.251   4.998   3.252 -0.1577  0.4618  0.4142
 3361TIP3    H131574   3.263   4.904   3.244 -0.4359  0.4363  0.2606
 3361TIP3    H231575   3.158   5.008   3.275 -0.3413  0.7329 -0.4080
 3362TIP3   OH231576   0.001   6.320  13.401  0.4441  0.5891 -0.0027
 3362TIP3    H131577   0.031   6.348  13.315  1.1636 -0.1118  0.0058
 3362TIP3    H231578   0.057   6.245  13.423 -1.4111 -0.8993 -0.0618
 3363TIP3   OH231579   6.468   5.963   1.023 -0.4370  0.2322 -0.0971
 3363TIP3    H131580   6.464   5.956   1.119  1.6247  0.3922  0.0482
 3363TIP3    H231581   6.500   5.878   0.994 -1.9463 -0.1366 -0.7571
 3364TIP3   OH231582   1.618   1.386  12.174  0.4103  0.2862  0.3633
 3364TIP3    H131583   1.707   1.411  12.149 -0.3335  2.0754 -0.7605
 3364TIP3    H231584   1.572   1.373  12.091 -0.3839 -0.6545  0.9252
 3365TIP3   OH231585   1.149   0.281  14.244 -0.1645 -0.3316 -0.6336
 3365TIP3    H131586   1.224   0.257  14.299  0.2709 -0.9642 -1.4760
 3365TIP3    H231587   1.126   0.370  14.271  0.6421 -0.2779 -0.1025
 3366TIP3   OH231588   5.548   0.435   1.500 -0.3491 -0.1820  0.0125
 3366TIP3    H131589   5.611   0.485   1.552  0.0758  0.4312 -1.0828
 3366TIP3    H231590   5.516   0.368   1.561  0.6700  0.0708  0.8588
 3367TIP3   OH231591   3.347   0.399  16.150  0.5620 -0.3031  0.6121
 3367TIP3    H131592   3.363   0.429  16.240  0.5850 -0.2613  0.5953
 3367TIP3    H231593   3.432   0.366  16.121  1.0312  1.4254 -0.0626
 3368TIP3   OH231594   5.797   4.094   3.823  0.1016  0.0237  0.4514
 3368TIP3    H131595   5.721   4.042   3.851 -0.8583  1.2180  0.1599
 3368TIP3    H231596   5.823   4.143   3.902 -0.1690  0.4823  0.2602
 3369TIP3   OH231597   6.828   0.399   5.899  0.4087 -0.0370  0.1846
 3369TIP3    H131598   6.782   0.322   5.865 -0.4214  0.1686  0.8083
 3369TIP3    H231599   6.803   0.404   5.991  3.1889 -1.0142  1.0989
 3370TIP3   OH231600   6.014   0.326  16.457 -0.2985  0.5267 -0.5252
 3370TIP3    H131601   5.964   0.399  16.495  1.0887  0.5119  1.5260
 3370TIP3    H231602   6.106   0.348  16.477  0.3458 -0.5333 -2.1700
 3371TIP3   OH231603   6.490   2.035   4.493 -0.3452  0.2593 -0.4747
 3371TIP3    H131604   6.430   2.072   4.428 -0.9143  0.4663  0.1700
 3371TIP3    H231605   6.479   2.089   4.571 -1.9037 -1.8105  0.8252
 3372TIP3   OH231606   0.121   4.859   1.494  0.0368  0.8474 -0.4539
 3372TIP3    H131607   0.156   4.918   1.561 -0.9604 -0.7317  1.5687
 3372TIP3    H231608   0.092   4.782   1.543  1.3752 -1.4087 -2.9694
 3373TIP3   OH231609   3.459   2.429   0.161  0.1890  0.2432  0.2181
 3373TIP3    H131610   3.549   2.436   0.194  0.2820  1.4439 -0.2345
 3373TIP3    H231611   3.460   2.353   0.104  0.7567 -0.1339  0.7166
 3374TIP3   OH231612   4.578   2.143  13.186  1.0720  0.7087 -0.3698
 3374TIP3    H131613   4.560   2.071  13.246  0.6331  1.7326  0.7791
 3374TIP3    H231614   4.665   2.125  13.152  1.4060  0.1697  0.7241
 3375TIP3   OH231615   6.512   2.824   4.198  0.1460  0.2151  0.2488
 3375TIP3    H131616   6.499   2.729   4.196  0.6453  0.1494 -1.4111
 3375TIP3    H231617   6.427   2.859   4.222 -0.7297 -0.5823 -1.5050
 3376TIP3   OH231618   4.256   2.484   4.961  0.4044 -0.5594 -0.0862
 3376TIP3    H131619   4.244   2.407   4.905  0.3410 -1.6543  1.3640
 3376TIP3    H231620   4.285   2.448   5.045 -2.7799  0.6442  1.7189
 3377TIP3   OH231621   3.887   5.528  11.636  0.2180  0.8455  0.1726
 3377TIP3    H131622   3.978   5.545  11.660  0.8823  0.7428 -2.0483
 3377TIP3    H231623   3.880   5.432  11.634 -0.5588  0.7839  2.2418
 3378TIP3   OH231624   1.115   0.662  13.296 -0.1402  0.2106  0.1458
 3378TIP3    H131625   1.141   0.693  13.383  1.6863  1.5273 -0.8235
 3378TIP3    H231626   1.123   0.566  13.302  0.1616  0.2914  1.3506
 3379TIP3   OH231627   2.082   3.729  11.983 -0.8924 -0.0006  0.2479
 3379TIP3    H131628   2.090   3.749  11.890  0.6125 -0.8139  0.1717
 3379TIP3    H231629   2.086   3.814  12.027  3.0335  0.2170 -0.2039
 3380TIP3   OH231630   2.008   1.042  15.962 -0.2647 -0.4307 -0.2779
 3380TIP3    H131631   2.003   0.958  16.008 -0.1388 -1.6183 -2.3148
 3380TIP3    H231632   1.917   1.064  15.942 -0.3470  0.2614  0.7945
 3381TIP3   OH231633   0.224   1.109   3.150  0.0086  0.1744 -0.4989
 3381TIP3    H131634   0.318   1.092   3.139 -0.2255 -0.8804 -1.0178
 3381TIP3    H231635   0.216   1.205   3.147  1.1668  0.3239  0.4555
 3382TIP3   OH231636   5.114   6.303   5.500  0.1569  0.6861 -0.2253
 3382TIP3    H131637   5.128   6.359   5.576  0.8186  1.2924 -0.7797
 3382TIP3    H231638   5.019   6.301   5.489 -0.0977 -0.7768  1.6005
 3383TIP3   OH231639   6.060   2.749   1.805 -0.7169 -0.4418 -0.6284
 3383TIP3    H131640   6.025   2.769   1.718 -0.2233  1.0550 -0.5103
 3383TIP3    H231641   6.055   2.832   1.853 -1.2788 -1.3239  0.8886
 3384TIP3   OH231642   0.704   0.966   0.787  0.1405  0.1436  0.1112
 3384TIP3    H131643   0.776   0.957   0.850  0.2307  3.1456  0.5849
 3384TIP3    H231644   0.625   0.958   0.840  0.2061  1.2333  0.4015
 3385TIP3   OH231645   5.716   4.547   0.338  0.1368  0.1119 -0.2274
 3385TIP3    H131646   5.775   4.572   0.409  2.6651 -0.0970 -2.0948
 3385TIP3    H231647   5.653   4.488   0.378  0.9475  0.6519  1.9801
 3386TIP3   OH231648   1.056   6.124   4.289  0.6908  0.1887  0.0939
 3386TIP3    H131649   1.031   6.202   4.240  1.3924  0.9966  0.9784
 3386TIP3    H231650   1.006   6.130   4.370 -0.4065 -1.0947 -0.4575
 3387TIP3   OH231651   3.109   5.533   5.771  0.2320  0.0475  1.3339
 3387TIP3    H131652   3.054   5.507   5.697  1.6667 -0.5489  0.4418
 3387TIP3    H231653   3.070   5.615   5.802  0.5253  1.2168 -1.1363
 3388TIP3   OH231654   3.393   4.731  14.934 -0.1935 -0.2103 -0.2553
 3388TIP3    H131655   3.309   4.705  14.972 -0.3233 -1.1934 -1.1658
 3388TIP3    H231656   3.392   4.827  14.936 -1.1485 -0.2215  0.1287
 3389TIP3   OH231657   0.855   1.095  12.138 -0.3994  0.2899  0.0591
 3389TIP3    H131658   0.871   1.157  12.067 -1.6877  0.5284 -0.0315
 3389TIP3    H231659   0.822   1.149  12.210 -0.6449 -0.1645  0.2921
 3390TIP3   OH231660   5.100   0.336   2.495  0.0318 -0.8068 -0.1290
 3390TIP3    H131661   5.118   0.287   2.576  0.5868 -0.7281 -0.1976
 3390TIP3    H231662   5.183   0.378   2.475  0.2859 -1.8683 -1.4534
 3391TIP3   OH231663   0.810   1.078   3.137 -0.0603 -0.5159  0.0111
 3391TIP3    H131664   0.786   1.105   3.049  1.1114 -0.4893 -0.3184
 3391TIP3    H231665   0.791   0.984   3.140  0.7158 -0.6998 -0.5713
 3392TIP3   OH231666   4.953   3.997   2.786  0.2117 -0.1108  0.3564
 3392TIP3    H131667   4.982   3.920   2.738  2.1120 -1.4292  3.3077
 3392TIP3    H231668   5.034   4.036   2.820 -0.8058  2.4364  0.1091
 3393TIP3   OH231669   2.614   0.666   4.386 -0.9038 -0.1265 -0.3595
 3393TIP3    H131670   2.667   0.744   4.370  0.2905 -1.2373 -2.1207
 3393TIP3    H231671   2.567   0.652   4.304 -0.0677 -1.9737 -0.5678
 3394TIP3   OH231672   4.860   5.175   3.546  0.4989 -0.0256 -0.0417
 3394TIP3    H131673   4.826   5.153   3.633 -0.5839 -1.6634 -0.8139
 3394TIP3    H231674   4.954   5.157   3.551  0.4114 -0.3157  0.7365
 3395TIP3   OH231675   4.261   2.299  15.993  0.4283  0.8186 -0.2568
 3395TIP3    H131676   4.243   2.254  16.075 -0.6338  1.5826 -0.0511
 3395TIP3    H231677   4.245   2.391  16.012  0.7104  1.0733 -1.1839
 3396TIP3   OH231678   3.365   6.664  11.790 -0.6223 -0.5187  0.1104
 3396TIP3    H131679   3.441   6.698  11.743 -0.3206  1.1326  1.6906
 3396TIP3    H231680   3.292   6.717  11.758 -0.6898 -0.4930  0.3060
 3397TIP3   OH231681   4.951   0.169  11.249 -0.7301  0.0554 -0.6038
 3397TIP3    H131682   4.864   0.132  11.262 -0.7330  0.5238  0.9415
 3397TIP3    H231683   5.000   0.146  11.328  0.2852  0.5345 -1.0649
 3398TIP3   OH231684   3.623   3.621  12.603 -0.2682 -0.4574 -0.2053
 3398TIP3    H131685   3.631   3.566  12.525 -0.2656 -2.3657  1.0682
 3398TIP3    H231686   3.540   3.595  12.643  1.1679 -1.9004  2.0896
 3399TIP3   OH231687   2.786   2.586   6.721  0.4082  0.4301  0.0448
 3399TIP3    H131688   2.868   2.556   6.759 -0.5345 -1.8282  0.4220
 3399TIP3    H231689   2.745   2.638   6.790 -0.5685 -2.3273  1.6997
 3400TIP3   OH231690   1.887   2.413  16.172  0.2207  0.3838 -0.1499
 3400TIP3    H131691   1.792   2.408  16.184  0.2589  1.4786  0.7161
 3400TIP3    H231692   1.914   2.322  16.160 -0.7511 -0.0945  1.1025
 3401TIP3   OH231693   6.166   0.007   4.838  0.5366  0.7942 -0.6779
 3401TIP3    H131694   6.176  -0.074   4.888 -0.9556  0.2808 -1.1576
 3401TIP3    H231695   6.226  -0.002   4.765 -1.2786 -0.9934 -2.0508
 3402TIP3   OH231696   5.683   1.028   2.693 -0.5457  0.0814 -0.0267
 3402TIP3    H131697   5.677   0.968   2.767  0.6445 -0.5092 -0.3758
 3402TIP3    H231698   5.593   1.056   2.676 -1.1439 -1.6551  0.1143
 3403TIP3   OH231699   5.250   0.449  15.260  0.4365 -0.3371 -0.7915
 3403TIP3    H131700   5.217   0.536  15.239  1.0877 -0.0409 -0.6045
 3403TIP3    H231701   5.241   0.442  15.355 -0.0541 -0.6600 -0.8580
 3404TIP3   OH231702   2.894   1.939  12.265 -0.2154  0.1014  0.0776
 3404TIP3    H131703   2.956   1.988  12.211  0.2685  0.5083  0.9818
 3404TIP3    H231704   2.893   1.851  12.227 -0.6883  0.6500 -1.2330
 3405TIP3   OH231705   5.895   6.101  14.259 -0.6068  0.3505 -0.0519
 3405TIP3    H131706   5.846   6.080  14.180 -0.4545  0.7730 -0.2612
 3405TIP3    H231707   5.946   6.178  14.236 -1.0414  0.8623  0.6544
 3406TIP3   OH231708   0.690   5.237  11.508 -0.0787  0.1483  0.4428
 3406TIP3    H131709   0.756   5.171  11.531  0.0569  0.1942  0.1883
 3406TIP3    H231710   0.732   5.321  11.529  1.0996  0.3884 -2.3516
 3407TIP3   OH231711   1.785   3.861   1.057 -0.3842  0.0142  0.2832
 3407TIP3    H131712   1.772   3.767   1.067  1.1648 -0.4869 -1.7206
 3407TIP3    H231713   1.721   3.887   0.991 -0.3946  0.2630  0.3894
 3408TIP3   OH231714   0.075   3.913  15.336  0.2532 -0.5493 -0.0064
 3408TIP3    H131715   0.156   3.932  15.383  0.4230 -0.1658 -0.4541
 3408TIP3    H231716   0.081   3.963  15.255 -1.1379  0.7356  0.6460
 3409TIP3   OH231717   4.468   5.507   0.420  0.1748 -0.0633  0.1864
 3409TIP3    H131718   4.423   5.441   0.473  0.2107  1.1809  1.8424
 3409TIP3    H231719   4.551   5.466   0.396  0.3357 -0.5259  1.4548
 3410TIP3   OH231720   5.100   0.878   1.998 -0.6099 -0.0314 -1.0923
 3410TIP3    H131721   5.060   0.792   2.010  0.8807 -0.5411  0.7996
 3410TIP3    H231722   5.184   0.860   1.955 -0.3151  0.4627 -0.7356
 3411TIP3   OH231723   3.429   1.624  14.417  0.7103 -0.4792  0.2429
 3411TIP3    H131724   3.408   1.693  14.480 -0.4832  1.1576 -1.7886
 3411TIP3    H231725   3.345   1.601  14.377  1.6331  0.3018 -2.3765
 3412TIP3   OH231726   3.961   0.902   4.019 -0.1644 -0.3079  0.5343
 3412TIP3    H131727   3.973   0.855   3.937 -0.6485 -1.7961  1.2789
 3412TIP3    H231728   4.003   0.846   4.085  1.2049  1.3913  1.1726
 3413TIP3   OH231729   1.360   1.621   0.269  0.0886  0.4295 -0.3832
 3413TIP3    H131730   1.450   1.654   0.278  0.5378 -0.5138 -1.2219
 3413TIP3    H231731   1.366   1.553   0.202 -1.0648 -0.3935  0.3090
 3414TIP3   OH231732   6.196   1.513  14.519 -0.3579  0.4449  0.1302
 3414TIP3    H131733   6.251   1.522  14.597  0.3568  1.2506 -0.4417
 3414TIP3    H231734   6.246   1.454  14.462 -1.6393 -1.4834  0.9051
 3415TIP3   OH231735   3.298   3.345  16.269 -0.1640 -0.1452  0.7627
 3415TIP3    H131736   3.308   3.294  16.350  0.5362 -1.2271  0.0291
 3415TIP3    H231737   3.347   3.295  16.204  2.1970  2.4319  0.3768
 3416TIP3   OH231738   5.137   4.991   2.967  0.3891 -0.1474 -0.3221
 3416TIP3    H131739   5.046   5.015   2.983 -0.3487 -1.2512 -2.5749
 3416TIP3    H231740   5.153   4.916   3.025  0.2536  0.7069  0.8685
 3417TIP3   OH231741   6.114   1.209  14.363  0.1407  0.3380 -0.4923
 3417TIP3    H131742   6.182   1.175  14.421 -0.2562 -0.7909 -0.6805
 3417TIP3    H231743   6.037   1.155  14.382 -1.4120  2.9311  1.2966
 3418TIP3   OH231744   6.675   2.440  15.401 -0.1135 -0.2759 -0.0651
 3418TIP3    H131745   6.726   2.520  15.390 -1.6616  0.7182 -0.3814
 3418TIP3    H231746   6.735   2.369  15.378  1.4845  0.7275  0.8299
 3419TIP3   OH231747   3.344   1.383  13.137 -0.1508  0.1231  0.3490
 3419TIP3    H131748   3.297   1.339  13.207 -0.6986  0.9129  0.4881
 3419TIP3    H231749   3.283   1.384  13.063  0.2875 -0.3814 -0.0279
 3420TIP3   OH231750   0.232   4.769   1.163 -0.1946 -0.7406  0.0335
 3420TIP3    H131751   0.325   4.784   1.182 -0.3416  0.5086 -0.1849
 3420TIP3    H231752   0.232   4.726   1.077  0.1104  1.2537 -1.0189
 3421TIP3   OH231753   5.496   6.155  10.333  0.2864  0.3680  0.2775
 3421TIP3    H131754   5.438   6.184  10.263  0.0985  1.6914  0.9564
 3421TIP3    H231755   5.457   6.073  10.364 -0.1894  0.2991 -0.4878
 3422TIP3   OH231756   6.271   6.760   5.349 -0.0369  0.1104  0.0322
 3422TIP3    H131757   6.263   6.782   5.256  1.2077 -1.5623 -0.5134
 3422TIP3    H231758   6.210   6.687   5.362 -0.9072  0.9296  0.7966
 3423TIP3   OH231759   5.450   5.154  11.560  0.2893 -0.2103 -0.7796
 3423TIP3    H131760   5.510   5.196  11.499  0.5736 -0.4052 -0.6369
 3423TIP3    H231761   5.368   5.203  11.551  0.5009  0.1220 -0.8963
 3424TIP3   OH231762   2.474   1.211  16.277 -0.1574  0.0591 -0.4192
 3424TIP3    H131763   2.453   1.297  16.315 -0.1006  0.9297 -2.2484
 3424TIP3    H231764   2.525   1.166  16.345  1.1207  2.0634  0.0320
 3425TIP3   OH231765   3.404   1.612  13.541 -0.3205  0.5745 -0.2169
 3425TIP3    H131766   3.460   1.585  13.613 -0.9091  1.6750  0.6999
 3425TIP3    H231767   3.447   1.690  13.505 -0.0554  0.0575 -1.0331
 3426TIP3   OH231768   0.210   1.232  11.006 -0.0012 -0.0744 -0.3551
 3426TIP3    H131769   0.175   1.317  10.980 -0.1721 -0.3955 -1.2034
 3426TIP3    H231770   0.159   1.168  10.956  0.7279 -0.6303 -0.4161
 3427TIP3   OH231771   0.984   0.992  15.608  0.3135  1.0901 -0.0496
 3427TIP3    H131772   0.981   0.998  15.704  0.9903  1.0965 -0.0190
 3427TIP3    H231773   0.902   0.950  15.583 -0.3913  2.1276  0.4457
 3428TIP3   OH231774   1.481   6.133   0.014  0.3061  0.0575  0.0155
 3428TIP3    H131775   1.442   6.055   0.054  0.1464 -0.1454 -0.5272
 3428TIP3    H231776   1.471   6.119  -0.080  0.6222  0.5581 -0.0951
 3429TIP3   OH231777   1.788   1.385  13.304  0.3118  0.4312 -0.0907
 3429TIP3    H131778   1.827   1.300  13.325  1.2423  0.6237 -0.9545
 3429TIP3    H231779   1.696   1.377  13.329  0.8385 -0.0935  1.9109
 3430TIP3   OH231780   2.405   6.072  12.796  0.3622 -0.0526  0.5425
 3430TIP3    H131781   2.427   6.056  12.888 -0.3322 -0.7281  0.5993
 3430TIP3    H231782   2.482   6.045  12.747  0.3751 -0.6014  0.8630
 3431TIP3   OH231783   4.636   5.816  13.662 -0.5450  0.0289  0.3805
 3431TIP3    H131784   4.644   5.891  13.604  1.4442 -0.5475 -0.1922
 3431TIP3    H231785   4.691   5.838  13.737 -0.0224 -0.7911  0.2548
 3432TIP3   OH231786   4.962   3.662  12.405 -0.4569  0.1162 -0.5445
 3432TIP3    H131787   5.048   3.644  12.368 -1.0353 -0.3482 -1.7201
 3432TIP3    H231788   4.938   3.747  12.369 -0.0931  0.7032  0.5600
 3433TIP3   OH231789   3.278   0.539   5.315  0.0829  0.6372  0.4001
 3433TIP3    H131790   3.184   0.533   5.299 -0.2081  0.9583  1.8581
 3433TIP3    H231791   3.303   0.452   5.346 -0.3837  1.3871  3.0562
 3434TIP3   OH231792   1.756   5.618   6.154 -0.1864  0.7288 -0.7572
 3434TIP3    H131793   1.805   5.700   6.151 -0.6513  1.1048  0.8030
 3434TIP3    H231794   1.710   5.620   6.238 -1.9056 -0.1706 -1.6123
 3435TIP3   OH231795   4.264   3.397   2.750 -0.2779  0.3390 -0.2734
 3435TIP3    H131796   4.178   3.439   2.746 -0.1067  0.8211  0.8493
 3435TIP3    H231797   4.308   3.426   2.670 -0.7140  1.1017 -0.2500
 3436TIP3   OH231798   3.992   4.121   0.453 -0.3051 -0.0136 -0.0571
 3436TIP3    H131799   3.939   4.051   0.492  0.5903 -0.2690  0.7289
 3436TIP3    H231800   3.995   4.188   0.520 -0.7772  0.6014 -0.6376
 3437TIP3   OH231801   5.687   2.974  13.949 -0.3453  0.2171 -0.9828
 3437TIP3    H131802   5.779   3.001  13.944  0.0627 -0.4057  1.6580
 3437TIP3    H231803   5.672   2.926  13.868  1.2854  1.3371 -2.0207
 3438TIP3   OH231804   5.634   5.000  16.779  0.7185 -0.0028  0.0690
 3438TIP3    H131805   5.675   4.996  16.865  2.1983  1.0184 -0.5581
 3438TIP3    H231806   5.575   4.924  16.777  0.6995 -0.0747  1.9374
 3439TIP3   OH231807   5.467   5.591  14.892 -0.0943  0.0594 -0.3147
 3439TIP3    H131808   5.544   5.645  14.910  0.9791 -1.5247  0.0945
 3439TIP3    H231809   5.439   5.617  14.805 -1.4579  3.3493  0.9523
 3440TIP3   OH231810   1.969   6.490  14.230  0.0004 -0.0716  0.4901
 3440TIP3    H131811   2.033   6.494  14.159 -0.1201 -1.1155  0.3069
 3440TIP3    H231812   1.914   6.568  14.218 -0.5345 -0.6620 -1.0574
 3441TIP3   OH231813   6.736   1.932   5.936 -0.0872 -0.0485  0.3412
 3441TIP3    H131814   6.781   1.993   5.994  1.1264  0.6268 -1.2103
 3441TIP3    H231815   6.781   1.848   5.950 -0.0067  0.0391  0.6008
 3442TIP3   OH231816   5.311   0.002  11.081 -0.6090 -0.9140 -0.0914
 3442TIP3    H131817   5.217  -0.013  11.091 -0.6528 -0.8947 -0.4374
 3442TIP3    H231818   5.317   0.086  11.034 -0.4127 -0.7719  0.1862
 3443TIP3   OH231819   2.993   3.261  16.857 -0.0787  0.1776  0.2452
 3443TIP3    H131820   2.982   3.183  16.910 -1.9900  0.4134  0.2636
 3443TIP3    H231821   2.925   3.255  16.790  3.4148 -1.1688 -3.6664
 3444TIP3   OH231822   4.080   1.057  13.907 -0.0411 -0.1058  0.4662
 3444TIP3    H131823   4.100   1.142  13.946  0.1801 -0.3352  0.8589
 3444TIP3    H231824   4.145   1.047  13.838 -1.5851  1.1512 -1.2885
 3445TIP3   OH231825   4.107   6.631   0.981  0.1555 -0.0343  0.0968
 3445TIP3    H131826   4.047   6.663   1.048 -0.3258  1.4812 -0.9851
 3445TIP3    H231827   4.193   6.665   1.006  0.5786 -1.9864  1.5058
 3446TIP3   OH231828   4.127   3.196   3.567  0.2928 -0.3831  0.5240
 3446TIP3    H131829   4.134   3.145   3.647 -1.1152  0.2730  1.0886
 3446TIP3    H231830   4.034   3.192   3.544  0.3198  1.1501  0.0714
 3447TIP3   OH231831   2.494   6.116   4.302 -0.2515  0.7129 -0.1589
 3447TIP3    H131832   2.467   6.027   4.323 -1.7916  1.1099 -0.2920
 3447TIP3    H231833   2.417   6.170   4.323  0.7663  2.0695  0.2905
 3448TIP3   OH231834   2.827   5.857  11.883  0.3995 -0.4494 -0.0089
 3448TIP3    H131835   2.889   5.929  11.893 -0.1556 -0.1504  1.4245
 3448TIP3    H231836   2.843   5.824  11.794  1.1658  0.9546 -0.4151
 3449TIP3   OH231837   2.850   3.960  14.026 -0.0407  0.2272  0.0811
 3449TIP3    H131838   2.891   3.874  14.030  2.7995  1.4103 -1.0208
 3449TIP3    H231839   2.768   3.946  13.978 -1.2355 -2.2911  2.5774
 3450TIP3   OH231840   5.021   0.712   2.796  0.3766  0.3037 -0.6286
 3450TIP3    H131841   4.974   0.760   2.728 -1.0189  0.5914  0.5044
 3450TIP3    H231842   5.010   0.764   2.875  1.1231 -0.5236  0.0423
 3451TIP3   OH231843   1.788   0.569  14.253  0.4593  0.3297 -0.0390
 3451TIP3    H131844   1.753   0.605  14.172  0.6499 -0.7037 -0.6099
 3451TIP3    H231845   1.753   0.479  14.256  1.2059  0.0471  0.5438
 3452TIP3   OH231846   2.232   2.715   0.972 -0.1488  0.6408  0.9675
 3452TIP3    H131847   2.146   2.720   1.013  0.6642  0.9607  2.7356
 3452TIP3    H231848   2.249   2.621   0.963 -1.9325  0.4787 -2.3603
 3453TIP3   OH231849   2.918   3.766   2.768 -0.1708  0.2874 -0.5141
 3453TIP3    H131850   2.864   3.755   2.846 -0.0372 -0.5538 -0.5276
 3453TIP3    H231851   2.873   3.716   2.700  0.3851 -0.0549 -0.6383
 3454TIP3   OH231852   6.261   5.491   5.196  0.3102  0.9294 -0.0993
 3454TIP3    H131853   6.316   5.488   5.274  1.6148 -0.6585 -1.0224
 3454TIP3    H231854   6.193   5.426   5.211 -0.8798  2.2807  0.6660
 3455TIP3   OH231855   4.910   6.178  11.276  0.3947  0.0708 -0.2291
 3455TIP3    H131856   4.838   6.175  11.213  1.2778  1.3393 -1.3278
 3455TIP3    H231857   4.871   6.218  11.354 -0.0720  0.8669 -0.8557
 3456TIP3   OH231858   3.682   1.199   2.881  0.4261 -0.1840  0.3448
 3456TIP3    H131859   3.723   1.193   2.795 -1.5392 -0.0005 -0.6548
 3456TIP3    H231860   3.732   1.137   2.935  1.4616 -0.5840 -1.0057
 3457TIP3   OH231861   3.911   4.065  13.174  0.2779  0.2514  0.3291
 3457TIP3    H131862   3.842   4.126  13.147  1.0639  0.0435 -2.3617
 3457TIP3    H231863   3.906   3.994  13.111  1.9681 -0.5244  1.0118
 3458TIP3   OH231864   0.511   3.118   3.342 -0.0508 -0.4159 -0.1860
 3458TIP3    H131865   0.432   3.099   3.393 -0.7203  1.1865 -0.5661
 3458TIP3    H231866   0.574   3.151   3.406 -0.3473  0.0888 -0.1494
 3459TIP3   OH231867   1.979   0.711   1.656 -0.4862  0.0642 -0.1596
 3459TIP3    H131868   2.058   0.668   1.624 -0.2027  0.2807  0.2282
 3459TIP3    H231869   2.011   0.773   1.722 -1.0741 -0.6426  0.8288
 3460TIP3   OH231870   5.752   3.567   2.558  0.0362  0.1476 -0.0604
 3460TIP3    H131871   5.762   3.584   2.464  1.8089 -0.1132  0.0414
 3460TIP3    H231872   5.842   3.559   2.590 -0.5627 -1.3269  1.3812
 3461TIP3   OH231873   6.642   6.034  10.731  0.1693 -0.0826  0.2108
 3461TIP3    H131874   6.568   6.092  10.709  1.1565  0.6855 -1.2686
 3461TIP3    H231875   6.663   5.990  10.649  0.8085 -0.9599  0.8278
 3462TIP3   OH231876   1.483   4.752   3.840  0.4646 -0.2911  0.0987
 3462TIP3    H131877   1.413   4.765   3.776  0.3351 -2.5401 -0.2915
 3462TIP3    H231878   1.447   4.789   3.921 -2.0688 -2.9923  0.3803
 3463TIP3   OH231879   3.044   2.056  11.473  0.3203  0.0393  0.1303
 3463TIP3    H131880   3.007   2.015  11.395  0.0802 -0.7338  0.6403
 3463TIP3    H231881   2.998   2.140  11.481  0.3100  0.1004 -0.5207
 3464TIP3   OH231882   2.540   6.627   2.845 -0.4790  0.3061 -0.2039
 3464TIP3    H131883   2.566   6.554   2.790  0.0245 -0.6401  1.2138
 3464TIP3    H231884   2.524   6.699   2.785 -0.9162 -0.9478 -1.6361
 3465TIP3   OH231885   3.083   5.706  11.645  0.3726 -0.5727 -0.0191
 3465TIP3    H131886   3.063   5.659  11.564  0.2297  1.4270 -1.1963
 3465TIP3    H231887   3.023   5.669  11.709  1.1278 -2.8666 -0.5340
 3466TIP3   OH231888   5.303   4.740   5.747  0.4970 -0.0400 -0.2952
 3466TIP3    H131889   5.299   4.715   5.839  1.2102  0.6834 -0.0612
 3466TIP3    H231890   5.387   4.708   5.717 -0.2741 -1.4221 -1.0563
 3467TIP3   OH231891   3.093   1.475   1.126 -1.0868 -0.1343 -0.2130
 3467TIP3    H131892   3.181   1.439   1.134 -1.0109  0.3586  1.7840
 3467TIP3    H231893   3.055   1.464   1.213 -2.1127  1.8498 -0.3521
 3468TIP3   OH231894   3.141   5.525  16.667  0.2508 -0.0832 -0.3225
 3468TIP3    H131895   3.079   5.453  16.662 -1.1347  1.0017  0.5858
 3468TIP3    H231896   3.217   5.488  16.713 -0.8912 -0.6886  1.1455
 3469TIP3   OH231897   3.758   0.475  14.314  0.0686  0.0075 -0.3071
 3469TIP3    H131898   3.847   0.490  14.283  0.2667 -0.5559 -0.0245
 3469TIP3    H231899   3.728   0.560  14.344  0.6978  0.1093  0.0594
 3470TIP3   OH231900   4.292   3.977   2.982 -0.0381  0.2616  0.6967
 3470TIP3    H131901   4.374   3.980   2.934  0.1043 -0.6470  0.8520
 3470TIP3    H231902   4.260   4.067   2.983  1.7259  0.9158  1.9524
 3471TIP3   OH231903   5.742   6.635   0.023 -0.6418  0.2199  0.0379
 3471TIP3    H131904   5.766   6.569  -0.042 -2.1861 -0.3691  0.0258
 3471TIP3    H231905   5.772   6.718  -0.015  0.5188 -0.3580 -0.3588
 3472TIP3   OH231906   0.901   3.877  10.797 -0.4151  0.6149 -0.4941
 3472TIP3    H131907   0.977   3.841  10.844 -0.8935 -0.4010 -0.4545
 3472TIP3    H231908   0.907   3.837  10.710 -0.7346  0.7732 -0.5874
 3473TIP3   OH231909   4.461   1.138  14.991 -0.2278  0.1802  0.8095
 3473TIP3    H131910   4.418   1.223  14.981  0.5642  0.5007 -0.0662
 3473TIP3    H231911   4.500   1.121  14.905  1.1878 -0.1891  1.4927
 3474TIP3   OH231912   4.762   3.419  13.005 -0.1146 -0.0058  0.1074
 3474TIP3    H131913   4.752   3.455  12.918  0.9854  2.9838  1.1072
 3474TIP3    H231914   4.677   3.434  13.047 -0.6791 -1.5412 -0.4187
 3475TIP3   OH231915   5.148   0.737  14.198  0.5146 -0.3607  0.0429
 3475TIP3    H131916   5.057   0.753  14.173  0.3186  1.1344  1.5672
 3475TIP3    H231917   5.198   0.797  14.143  0.2919  1.0196  1.2745
 3476TIP3   OH231918   4.869   0.696  13.838  0.3020  0.6489  0.3718
 3476TIP3    H131919   4.789   0.643  13.844  0.0221  1.0106 -0.1070
 3476TIP3    H231920   4.876   0.737  13.924 -0.3887  1.1279  0.2094
 3477TIP3   OH231921   5.598   0.963   1.927  0.6526 -0.2257  0.1071
 3477TIP3    H131922   5.669   1.010   1.970  0.2996  0.5759 -0.1638
 3477TIP3    H231923   5.532   1.030   1.908 -0.3646 -1.0223  0.7284
 3478TIP3   OH231924   3.617   2.457   0.984  0.0382  0.2673  0.4994
 3478TIP3    H131925   3.634   2.414   1.068 -0.0726  3.1226  2.1242
 3478TIP3    H231926   3.523   2.477   0.986 -0.2226 -0.7106 -0.8962
 3479TIP3   OH231927   4.114   2.198  13.944  0.3663  0.0288 -0.1763
 3479TIP3    H131928   4.196   2.209  13.992  0.6692  1.3138 -0.9424
 3479TIP3    H231929   4.059   2.147  14.003  0.9371  1.0502  1.3117
 3480TIP3   OH231930   6.266   4.462  10.538  0.0787  0.3653 -0.7427
 3480TIP3    H131931   6.180   4.493  10.564  0.0134  0.0413 -0.5648
 3480TIP3    H231932   6.320   4.541  10.534 -0.2598  0.5845 -0.9904
 3481TIP3   OH231933   2.667   2.988   3.587  0.1941  0.5200  0.0119
 3481TIP3    H131934   2.670   3.039   3.668 -0.8135 -0.0159  0.4060
 3481TIP3    H231935   2.747   3.012   3.540  0.2022  1.7493  0.6129
 3482TIP3   OH231936   3.635   0.615  13.455  0.5073  0.3532  0.3833
 3482TIP3    H131937   3.688   0.673  13.509  0.9161  0.7429 -0.4317
 3482TIP3    H231938   3.545   0.644  13.470  0.7321  1.4643 -0.3092
 3483TIP3   OH231939   3.652   0.788   1.602 -0.2964 -0.1099 -0.0105
 3483TIP3    H131940   3.593   0.864   1.601 -0.3178 -0.1248  0.1506
 3483TIP3    H231941   3.739   0.827   1.611 -0.2553 -0.0719 -0.5414
 3484TIP3   OH231942   3.581   2.882  11.065  0.1606 -0.2613 -0.1497
 3484TIP3    H131943   3.634   2.958  11.042 -0.6806  0.5423  0.5319
 3484TIP3    H231944   3.642   2.824  11.111  0.5783  0.4334  0.1907
 3485TIP3   OH231945   0.613   5.386   2.965 -0.4010 -0.4873  0.4256
 3485TIP3    H131946   0.688   5.427   2.923 -0.1136  0.8259  2.1112
 3485TIP3    H231947   0.622   5.293   2.945  1.6208 -0.3549  0.4774
 3486TIP3   OH231948   0.502   4.273   4.893  0.1692 -0.4686  0.4911
 3486TIP3    H131949   0.570   4.306   4.952 -0.7427 -0.8060  1.7621
 3486TIP3    H231950   0.462   4.351   4.856  0.4721 -0.2477  0.6286
 3487TIP3   OH231951   4.764   5.899  16.877  0.4087 -0.7252 -0.1115
 3487TIP3    H131952   4.748   5.898  16.782  0.4658  2.1929 -0.2213
 3487TIP3    H231953   4.858   5.916  16.885  0.0513  1.2034  0.4092
 3488TIP3   OH231954   4.994   5.786   2.102 -0.5271 -0.3931  0.6691
 3488TIP3    H131955   5.036   5.836   2.172 -2.3916  0.6257  1.1175
 3488TIP3    H231956   4.912   5.755   2.141 -2.5277  1.7415 -1.4918
 3489TIP3   OH231957   4.263   6.389  15.521  0.0428  0.0141  0.1701
 3489TIP3    H131958   4.221   6.395  15.435 -2.5826 -0.0618  1.3617
 3489TIP3    H231959   4.293   6.298  15.527 -0.0619 -0.0714 -0.5111
 3490TIP3   OH231960   4.413   4.146  13.222  0.1856  0.3394  0.3491
 3490TIP3    H131961   4.497   4.178  13.188  0.7350  0.3272  1.6493
 3490TIP3    H231962   4.347   4.184  13.164  1.1163 -0.1703 -1.0946
 3491TIP3   OH231963   6.488   4.259   1.167  0.6707  0.1028  0.2698
 3491TIP3    H131964   6.553   4.327   1.187  0.8005  0.1755 -0.3889
 3491TIP3    H231965   6.532   4.202   1.104  0.1982 -0.0189  0.0525
 3492TIP3   OH231966   2.635   2.255   4.849  0.1191 -0.4609 -0.6153
 3492TIP3    H131967   2.674   2.271   4.935 -0.3949 -0.5058 -0.3677
 3492TIP3    H231968   2.544   2.283   4.859  0.0532 -0.4811 -1.1413
 3493TIP3   OH231969   5.620   2.369   4.953 -0.1439  0.1596 -0.1485
 3493TIP3    H131970   5.658   2.309   4.888 -1.8544  0.7746 -1.7919
 3493TIP3    H231971   5.536   2.331   4.976  0.8990 -0.7067  2.7792
 3494TIP3   OH231972   6.313   5.148   3.757  0.5298  0.2742 -0.0909
 3494TIP3    H131973   6.254   5.075   3.773  0.8488 -0.1520 -0.8083
 3494TIP3    H231974   6.374   5.146   3.831 -0.4753  0.8631  0.7744
 3495TIP3   OH231975   0.305   5.812  15.391  0.0174 -0.3261 -0.0767
 3495TIP3    H131976   0.284   5.729  15.346 -0.4150  0.1735 -0.8171
 3495TIP3    H231977   0.265   5.879  15.336  0.1189  0.3584  0.6781
 3496TIP3   OH231978   6.419   0.031  13.456 -0.4197 -0.3809 -0.2754
 3496TIP3    H131979   6.355   0.102  13.464 -1.6266 -1.3573 -1.0008
 3496TIP3    H231980   6.459   0.025  13.543  1.1618  2.4694 -0.6947
 3497TIP3   OH231981   3.113   2.190  15.461 -0.0294  0.5232 -0.2301
 3497TIP3    H131982   3.157   2.109  15.437 -2.9758 -1.2818 -0.0242
 3497TIP3    H231983   3.095   2.234  15.378 -1.2792 -0.7267 -0.6738
 3498TIP3   OH231984   1.311   4.812  15.036 -0.1857  0.1473 -0.4261
 3498TIP3    H131985   1.328   4.860  15.117  1.2742  1.3648 -1.4046
 3498TIP3    H231986   1.258   4.871  14.983  0.0789 -0.0578 -0.9263
 3499TIP3   OH231987   1.428   5.497  17.144  0.2004 -0.4347 -0.2589
 3499TIP3    H131988   1.392   5.523  17.229  0.3763 -2.7128  0.6073
 3499TIP3    H231989   1.428   5.576  17.092  0.4519  1.1535  2.0052
 3500TIP3   OH231990   5.517   1.409   2.292  0.4006  0.4979  0.1313
 3500TIP3    H131991   5.550   1.484   2.341 -0.4562  1.2590 -0.4180
 3500TIP3    H231992   5.534   1.430   2.200 -2.6872  1.5648 -0.3107
 3501TIP3   OH231993   5.386   5.926  15.562  0.1501 -0.1364 -0.1551
 3501TIP3    H131994   5.355   6.015  15.578  0.7492 -0.0729  0.7285
 3501TIP3    H231995   5.419   5.928  15.472 -1.1369  0.1410 -0.6426
 3502TIP3   OH231996   6.594   0.199  14.512  0.2468 -0.1748 -0.0931
 3502TIP3    H131997   6.657   0.131  14.535  1.8338  1.2620  0.0853
 3502TIP3    H231998   6.613   0.270  14.574 -1.3205  0.4492 -0.2890
 3503TIP3   OH231999   3.265   5.702   4.324  0.2702 -0.3059 -1.0737
 3503TIP3    H132000   3.174   5.701   4.354 -0.0361 -0.3578 -1.9831
 3503TIP3    H232001   3.260   5.735   4.234  1.3734  1.8822 -0.4022
 3504TIP3   OH232002   5.993   1.309   5.254 -0.4380  0.6391 -0.5534
 3504TIP3    H132003   5.934   1.239   5.281 -1.6793  1.6398 -0.6008
 3504TIP3    H232004   6.069   1.263   5.219 -0.6142 -0.6807  0.6961
 3505TIP3   OH232005   5.193   3.845  11.043  0.2836  0.5178 -0.5413
 3505TIP3    H132006   5.184   3.896  10.963  0.4656  1.0153 -0.2474
 3505TIP3    H232007   5.150   3.762  11.023 -2.1623  1.6218 -0.2422
 3506TIP3   OH232008   3.234   0.268   2.215  0.3141 -0.6225  0.2464
 3506TIP3    H132009   3.317   0.306   2.244  0.1731 -0.1998  0.0991
 3506TIP3    H232010   3.242   0.262   2.120 -1.3626  3.2859 -0.3332
 3507TIP3   OH232011   5.912   0.595  14.571 -0.2499  0.0245 -0.0756
 3507TIP3    H132012   5.909   0.648  14.492  1.7985 -0.3483 -0.4607
 3507TIP3    H232013   5.908   0.504  14.540 -0.8030 -0.1067  0.3589
 3508TIP3   OH232014   5.940   6.392   3.597  0.3625  0.5631  0.1390
 3508TIP3    H132015   5.858   6.359   3.559  1.0245  1.2474 -2.0441
 3508TIP3    H232016   5.922   6.484   3.616  0.0644  0.2456  1.4717
 3509TIP3   OH232017   2.114   2.698  14.706  0.6779  1.1264 -0.6894
 3509TIP3    H132018   2.059   2.768  14.741 -0.2077 -0.4356  1.2821
 3509TIP3    H232019   2.161   2.664  14.782  2.0218  0.3758 -1.8079
 3510TIP3   OH232020   2.738   5.977  10.428 -0.4571 -0.7562 -0.5498
 3510TIP3    H132021   2.811   5.915  10.420  0.5272  0.5771 -3.3843
 3510TIP3    H232022   2.758   6.027  10.507  1.8824 -0.3025 -1.3470
 3511TIP3   OH232023   0.862   5.058  16.357  0.1076 -0.2084  0.2759
 3511TIP3    H132024   0.887   5.051  16.450 -3.5730  2.2668  1.6801
 3511TIP3    H232025   0.851   5.151  16.342 -1.5663 -0.6852 -2.0028
 3512TIP3   OH232026   4.919   1.269  16.377  0.0009  0.1400  0.0391
 3512TIP3    H132027   4.973   1.335  16.334 -0.0730  1.4488  1.8679
 3512TIP3    H232028   4.869   1.229  16.306  3.2924 -1.1657 -1.7779
 3513TIP3   OH232029   4.518   1.199   2.810 -0.4321  0.5213 -0.5277
 3513TIP3    H132030   4.488   1.119   2.768 -0.7967  0.7330 -0.6731
 3513TIP3    H232031   4.612   1.200   2.796 -0.7247  1.4900 -2.9341
 3514TIP3   OH232032   2.807   0.941  12.447 -0.5824 -0.3163  0.3040
 3514TIP3    H132033   2.749   0.925  12.522  1.6900 -2.6664  1.7431
 3514TIP3    H232034   2.785   0.871  12.385  1.3088 -1.9153  1.3363
 3515TIP3   OH232035   3.493   0.181  14.932  0.0450 -0.6258 -0.0534
 3515TIP3    H132036   3.549   0.123  14.880  0.3652 -0.5827  0.2403
 3515TIP3    H232037   3.476   0.132  15.013  0.8287 -0.0688  0.4629
 3516TIP3   OH232038   2.726   0.905   0.307  0.1004 -0.3042  0.0325
 3516TIP3    H132039   2.723   0.943   0.394 -0.5562 -0.2455 -0.0092
 3516TIP3    H232040   2.793   0.955   0.261 -0.6314  0.6973  0.0291
 3517TIP3   OH232041   0.891   4.870   5.047 -0.3353  0.2494 -0.6251
 3517TIP3    H132042   0.940   4.806   4.996  0.0782 -0.4461  0.6031
 3517TIP3    H232043   0.884   4.946   4.990 -1.1155 -0.9925 -2.2320
 3518TIP3   OH232044   1.910   5.882  13.355 -0.0529 -0.6341 -0.2697
 3518TIP3    H132045   1.981   5.823  13.328  0.3499 -0.5214  0.5154
 3518TIP3    H232046   1.867   5.906  13.273  0.1571 -1.5366 -0.6573
 3519TIP3   OH232047   5.393   1.087   4.415  0.4057 -0.0728  0.4894
 3519TIP3    H132048   5.440   1.007   4.392  0.4101  0.2657 -0.7507
 3519TIP3    H232049   5.374   1.128   4.331  1.9127  2.1141  1.1227
 3520TIP3   OH232050   4.050   3.584   4.861 -0.3281  0.0951 -0.2100
 3520TIP3    H132051   4.101   3.660   4.835 -0.2641 -0.3357 -1.4501
 3520TIP3    H232052   4.084   3.559   4.947 -0.4233  1.5081  0.2604
 3521TIP3   OH232053   4.204   4.008   1.446 -0.0804  0.0576  0.2417
 3521TIP3    H132054   4.189   4.071   1.517  1.2969 -0.5335  1.0992
 3521TIP3    H232055   4.127   4.016   1.390 -1.6636 -0.1065  2.2847
 3522TIP3   OH232056   5.053   6.762  14.358  0.7828  0.1157 -0.4475
 3522TIP3    H132057   5.095   6.789  14.277  0.9191  1.3723  0.0161
 3522TIP3    H232058   4.987   6.829  14.375  0.2306 -0.5464  0.0848
 3523TIP3   OH232059   4.061   5.886   2.823  0.1982 -0.0345 -0.2353
 3523TIP3    H132060   4.039   5.979   2.816  1.0018  0.1027 -1.1266
 3523TIP3    H232061   4.153   5.886   2.851 -0.1570 -0.5806  1.0051
 3524TIP3   OH232062   3.357   3.382  14.543 -0.0720 -0.0923  0.3239
 3524TIP3    H132063   3.418   3.333  14.488 -0.1587  0.9860 -0.7796
 3524TIP3    H232064   3.334   3.321  14.614  0.7270 -1.2066 -0.3415
 3525TIP3   OH232065   0.408   6.649  13.711 -0.0228 -0.1542  0.1811
 3525TIP3    H132066   0.401   6.554  13.697 -1.7718 -0.1052  0.5300
 3525TIP3    H232067   0.363   6.687  13.635  1.6623  0.4579 -0.5560
 3526TIP3   OH232068   6.213   1.622  13.216  0.1090 -0.0882  0.5976
 3526TIP3    H132069   6.261   1.554  13.168  1.1194 -0.0877  1.5766
 3526TIP3    H232070   6.277   1.658  13.277  0.2819  3.3486 -1.3902
 3527TIP3   OH232071   3.453   4.221  12.987 -0.2878 -0.4289  1.0063
 3527TIP3    H132072   3.366   4.249  13.013 -0.3868  0.2158  0.0497
 3527TIP3    H232073   3.465   4.259  12.900  1.3859  0.4709  1.5687
 3528TIP3   OH232074   3.139   4.924   2.047  0.3723  0.1681  0.3130
 3528TIP3    H132075   3.146   4.841   2.095  0.4714 -0.5775 -0.9488
 3528TIP3    H232076   3.229   4.952   2.032  0.3432  0.3235  0.4201
 3529TIP3   OH232077   4.488   6.164   5.495 -0.2109  0.1227 -0.1705
 3529TIP3    H132078   4.484   6.073   5.523  0.0048 -0.0640 -0.7545
 3529TIP3    H232079   4.526   6.210   5.570 -1.2232 -0.1066  0.5063
 3530TIP3   OH232080   5.147   1.038  12.681  0.6550  0.0934  0.3547
 3530TIP3    H132081   5.107   0.953  12.699  1.1451 -0.8357 -2.4312
 3530TIP3    H232082   5.079   1.102  12.702  0.3891 -0.9066  2.8148
 3531TIP3   OH232083   0.918   6.184  16.659 -0.1614 -0.3660  0.0019
 3531TIP3    H132084   0.954   6.273  16.659  1.8753 -1.1136  0.9379
 3531TIP3    H232085   0.924   6.156  16.568  1.5807 -0.3848  0.0851
 3532TIP3   OH232086   1.913   6.478  16.074 -0.5096  0.6862 -0.6840
 3532TIP3    H132087   1.941   6.456  15.985  2.4942  1.6019 -0.0858
 3532TIP3    H232088   1.980   6.439  16.130  0.6282  4.3968  0.8124
 3533TIP3   OH232089   6.575   1.711  12.025  0.3812  0.1074 -0.0286
 3533TIP3    H132090   6.499   1.769  12.036  0.1747  0.0866 -1.1695
 3533TIP3    H232091   6.565   1.677  11.936  0.6010 -1.5530  0.5565
 3534TIP3   OH232092   2.937   4.333   3.797 -0.1778 -0.8916  0.0130
 3534TIP3    H132093   2.889   4.346   3.715  1.3784  0.6708 -0.7180
 3534TIP3    H232094   2.871   4.302   3.859 -2.7699  3.2027 -0.3057
 3535TIP3   OH232095   0.326   2.620  15.687  0.1851 -0.2116  0.8539
 3535TIP3    H132096   0.365   2.694  15.733  0.5175 -0.2424  0.6210
 3535TIP3    H232097   0.232   2.640  15.684  0.5392  1.4284 -1.4232
 3536TIP3   OH232098   2.200   6.412  11.729  0.0533  0.3407 -0.2953
 3536TIP3    H132099   2.174   6.322  11.707  0.2955 -0.4974  2.4813
 3536TIP3    H232100   2.294   6.415  11.709  0.1801 -0.2531  0.1519
 3537TIP3   OH232101   3.831   1.566   4.280 -0.0103  0.0424  0.1642
 3537TIP3    H132102   3.751   1.515   4.289  0.3005 -0.1286  2.2527
 3537TIP3    H232103   3.805   1.639   4.223 -1.2407 -0.7974 -0.4098
 3538TIP3   OH232104   2.522   6.665   3.872 -0.3532  0.2368  0.3425
 3538TIP3    H132105   2.488   6.720   3.802 -1.1027  1.7465  1.8143
 3538TIP3    H232106   2.550   6.727   3.940  1.1973 -1.1273  1.0311
 3539TIP3   OH232107   2.276   6.232   3.798  0.0785 -0.7921 -0.0572
 3539TIP3    H132108   2.356   6.272   3.830  1.3536 -2.9731 -0.3062
 3539TIP3    H232109   2.238   6.189   3.875 -1.9231  1.7238  0.4889
 3540TIP3   OH232110   4.664   5.416   3.711 -0.0041 -0.0100  0.5280
 3540TIP3    H132111   4.746   5.464   3.702  0.8420 -1.2112  1.6432
 3540TIP3    H232112   4.664   5.354   3.638  0.0216  0.0504  0.4761
 3541TIP3   OH232113   4.881   4.435  13.436 -0.1335  0.0543 -0.5142
 3541TIP3    H132114   4.941   4.503  13.406  0.7567 -0.7946 -0.7099
 3541TIP3    H232115   4.873   4.449  13.530  0.5222  0.0619 -0.4579
 3542TIP3   OH232116   5.140   2.538   6.202  0.1060 -0.1490 -0.0011
 3542TIP3    H132117   5.231   2.508   6.201  0.5749  1.1491  0.9939
 3542TIP3    H232118   5.089   2.462   6.176  1.4904 -0.8572 -0.7207
 3543TIP3   OH232119   2.791   2.941  13.343 -0.4999 -0.5094 -0.2573
 3543TIP3    H132120   2.800   2.887  13.422 -1.8020 -0.1808  0.1608
 3543TIP3    H232121   2.879   2.972  13.324  0.0782 -1.8153  0.1855
 3544TIP3   OH232122   0.354   5.897   1.674 -0.2412  0.4603 -0.3338
 3544TIP3    H132123   0.379   5.842   1.599 -0.7793 -0.2695  0.0139
 3544TIP3    H232124   0.300   5.966   1.635 -1.2925 -0.4336 -0.5210
 3545TIP3   OH232125   5.808   6.392  13.535  0.2069 -0.1700  0.7032
 3545TIP3    H132126   5.859   6.472  13.549  1.0745 -0.8259  1.3663
 3545TIP3    H232127   5.864   6.338  13.480 -0.2461 -0.4518  0.5207
 3546TIP3   OH232128   6.223   6.501   1.723  0.4132 -0.2402  0.6114
 3546TIP3    H132129   6.178   6.576   1.761  0.8175  0.3028  0.0305
 3546TIP3    H232130   6.158   6.431   1.726 -0.4845  0.5276 -0.1866
 3547TIP3   OH232131   2.443   0.646  10.752  0.2021  0.2537 -0.0554
 3547TIP3    H132132   2.488   0.573  10.710 -0.1706 -1.4563  2.3383
 3547TIP3    H232133   2.393   0.687  10.681 -1.1404 -3.0183 -1.1786
 3548TIP3   OH232134   0.123   5.367   4.529 -0.5927 -0.2043  0.2221
 3548TIP3    H132135   0.048   5.379   4.471 -1.1128 -0.7200  0.7590
 3548TIP3    H232136   0.191   5.328   4.474 -0.8983 -0.2010 -0.1603
 3549TIP3   OH232137   1.046   3.751   5.891 -0.2254 -0.0885  0.0609
 3549TIP3    H132138   1.138   3.777   5.899  0.3357 -0.7470 -2.9026
 3549TIP3    H232139   0.999   3.833   5.875  0.3885 -0.0258 -1.6329
 3550TIP3   OH232140   3.831   2.588   6.379  0.4270 -0.2664  0.3918
 3550TIP3    H132141   3.832   2.506   6.329  0.5329  1.0939 -1.9415
 3550TIP3    H232142   3.886   2.648   6.329 -2.2067  2.2521  0.2655
 3551TIP3   OH232143   1.715   3.551  15.980  0.0424  0.6595 -0.5004
 3551TIP3    H132144   1.726   3.506  16.064 -0.9920  1.0545 -0.1422
 3551TIP3    H232145   1.740   3.641  15.999  1.0999  0.4754 -0.9597
 3552TIP3   OH232146   6.522   0.037  16.964 -0.3252  0.1525  0.3153
 3552TIP3    H132147   6.579   0.111  16.986 -0.6722  0.9021 -1.2164
 3552TIP3    H232148   6.442   0.053  17.013 -0.2857  0.6214  0.2317
 3553TIP3   OH232149   6.820   5.819   1.499  0.2386 -0.1301 -0.1833
 3553TIP3    H132150   6.899   5.785   1.458 -0.3384 -2.0031  0.1368
 3553TIP3    H232151   6.842   5.826   1.592  0.0142 -0.7710 -0.0751
 3554TIP3   OH232152   4.902   3.559   1.291 -0.0467  0.0583  0.2245
 3554TIP3    H132153   4.963   3.497   1.252 -0.8318 -0.9027  0.4557
 3554TIP3    H232154   4.867   3.513   1.368 -0.0281  1.1193  0.8941
 3555TIP3   OH232155   0.623   2.536   5.669  0.0398 -0.5545  0.5282
 3555TIP3    H132156   0.583   2.482   5.601 -3.3944  0.5158  1.4867
 3555TIP3    H232157   0.588   2.624   5.655  4.3129  1.3336 -0.1093
 3556TIP3   OH232158   4.047   1.842   4.701 -0.9857  0.0819  0.3178
 3556TIP3    H132159   3.955   1.858   4.724 -0.7229  1.1809  0.6683
 3556TIP3    H232160   4.097   1.880   4.774 -0.2092  1.2630 -0.7898
 3557TIP3   OH232161   0.312   1.384  11.678 -0.5630  1.0097 -0.4480
 3557TIP3    H132162   0.265   1.467  11.689 -0.8636  0.7582  0.2111
 3557TIP3    H232163   0.244   1.317  11.690 -0.2091  0.6620 -0.3909
 3558TIP3   OH232164   5.762   6.189   1.460  0.1150 -0.3289 -0.0534
 3558TIP3    H132165   5.785   6.169   1.551 -0.6719  0.7937  0.4111
 3558TIP3    H232166   5.666   6.192   1.460  0.1221  2.6696 -0.1965
 3559TIP3   OH232167   4.706   0.057  11.127 -0.3295  0.3055  0.4706
 3559TIP3    H132168   4.652  -0.012  11.164 -1.1098 -0.3806 -1.7806
 3559TIP3    H232169   4.644   0.111  11.077  0.7873  0.5371 -0.7083
 3560TIP3   OH232170   2.006   6.801  16.417 -0.2368  0.3939  0.0425
 3560TIP3    H132171   1.923   6.774  16.456 -0.5993  1.4837  0.0447
 3560TIP3    H232172   2.028   6.730  16.356 -1.9533  0.7916 -1.0940
 3561TIP3   OH232173   3.228   0.693   2.543 -1.1988  0.0870  0.2110
 3561TIP3    H132174   3.192   0.620   2.491 -1.5774  1.2197 -1.1825
 3561TIP3    H232175   3.263   0.753   2.478  0.6289  0.3971  1.4248
 3562TIP3   OH232176   3.319   0.041  16.857 -0.0051 -0.1521  0.6052
 3562TIP3    H132177   3.280   0.022  16.942 -1.0481 -0.8393 -0.0070
 3562TIP3    H232178   3.265  -0.007  16.794  2.9967 -2.9983 -0.1413
 3563TIP3   OH232179   5.196   0.211  13.898 -0.7513 -0.0166 -0.5180
 3563TIP3    H132180   5.232   0.205  13.809 -0.0985  1.1723 -0.3478
 3563TIP3    H232181   5.176   0.303  13.910  1.6089  0.3383  1.4702
 3564TIP3   OH232182   5.265   2.249  10.783  0.1645 -0.5838 -0.4732
 3564TIP3    H132183   5.232   2.165  10.751 -0.8356 -0.2152 -0.4729
 3564TIP3    H232184   5.240   2.313  10.716 -0.2732 -0.0954  0.1339
 3565TIP3   OH232185   1.203   6.286  13.083  0.7285 -0.3554 -0.7459
 3565TIP3    H132186   1.232   6.312  13.170 -0.3924 -1.5557  0.0341
 3565TIP3    H232187   1.199   6.367  13.033  2.9103  0.1674 -0.1783
 3566TIP3   OH232188   2.987   5.683  16.848 -0.4127  0.4998  0.5613
 3566TIP3    H132189   2.901   5.698  16.810  0.1034  0.0011 -0.8452
 3566TIP3    H232190   3.046   5.672  16.774  0.4649 -1.4485  1.4480
 3567TIP3   OH232191   1.254   0.901   3.167  0.3722 -0.1831  0.0866
 3567TIP3    H132192   1.335   0.850   3.163  0.5443 -0.0030  1.0113
 3567TIP3    H232193   1.284   0.991   3.174  0.0953 -0.1437  0.7720
 3568TIP3   OH232194   2.950   1.883   6.304 -0.4273  0.5410  0.0042
 3568TIP3    H132195   2.990   1.837   6.378  0.3324  1.2788  0.0706
 3568TIP3    H232196   2.885   1.940   6.344 -0.9762 -0.0431 -0.0300
 3569TIP3   OH232197   4.955   1.091   3.205  0.4197 -0.4475  0.5995
 3569TIP3    H132198   4.928   1.102   3.296  0.0616  0.1542  0.4301
 3569TIP3    H232199   5.031   1.150   3.196 -0.8364  1.1435 -0.0315
 3570TIP3   OH232200   2.870   6.816  16.620  0.4222  0.0901  0.0286
 3570TIP3    H132201   2.803   6.861  16.568  0.4453 -0.4624 -0.4944
 3570TIP3    H232202   2.827   6.736  16.650  0.0880  0.8487  1.7049
 3571TIP3   OH232203   0.516   1.386  16.086  0.8751  0.2260 -0.0622
 3571TIP3    H132204   0.468   1.423  16.160  0.6423 -1.6811  0.8005
 3571TIP3    H232205   0.510   1.453  16.018 -0.7154  1.1449  0.9156
 3572TIP3   OH232206   0.354   1.966   2.243 -0.2512  0.0289 -0.2846
 3572TIP3    H132207   0.373   1.961   2.149  1.7705  1.1783  0.0067
 3572TIP3    H232208   0.365   2.058   2.266  0.6571 -0.4339  1.3187
 3573TIP3   OH232209   4.812   0.760  13.579  0.0926 -0.3502 -0.1163
 3573TIP3    H132210   4.858   0.739  13.660 -1.1844 -2.5886  0.1237
 3573TIP3    H232211   4.732   0.803  13.607 -0.6058 -1.6061 -0.0943
 3574TIP3   OH232212   3.147   5.348   1.930 -0.0088 -0.3516  0.3212
 3574TIP3    H132213   3.101   5.324   2.010 -1.7341  0.5850 -0.3335
 3574TIP3    H232214   3.081   5.392   1.876  1.5178  0.5541 -0.9247
 3575TIP3   OH232215   4.331   1.886  11.278 -0.4343 -0.6825 -0.0865
 3575TIP3    H132216   4.272   1.891  11.203 -0.4748 -1.7076 -0.1294
 3575TIP3    H232217   4.413   1.924  11.246 -0.4540 -1.0974 -0.6516
 3576TIP3   OH232218   5.083   2.610  11.115  0.1123  0.4102 -0.1783
 3576TIP3    H132219   5.068   2.618  11.021 -0.6635  0.7644 -0.0297
 3576TIP3    H232220   5.177   2.590  11.123 -0.0020 -0.5510 -1.0686
 3577TIP3   OH232221   1.883   5.168   3.327 -0.3945 -0.7257  0.2723
 3577TIP3    H132222   1.943   5.141   3.397  0.0114  0.1401  0.2814
 3577TIP3    H232223   1.842   5.087   3.298  0.4528 -1.2821  0.5749
 3578TIP3   OH232224   3.037   0.443   2.809 -0.0647  0.5586 -0.2075
 3578TIP3    H132225   2.961   0.456   2.753 -0.1506  1.7078  0.1471
 3578TIP3    H232226   3.023   0.357   2.849 -1.5320  1.0486  0.3871
 3579TIP3   OH232227   1.860   4.750   5.120 -0.4588  0.1058  0.8750
 3579TIP3    H132228   1.861   4.683   5.188 -2.5300  1.7370  2.6863
 3579TIP3    H232229   1.809   4.711   5.048  1.1451 -1.3701  0.4683
 3580TIP3   OH232230   3.504   0.414   1.810 -0.1830  0.1811 -0.0239
 3580TIP3    H132231   3.552   0.492   1.782 -0.0254  1.0079  2.3154
 3580TIP3    H232232   3.432   0.407   1.747  0.6266  1.3406 -1.1475
 3581TIP3   OH232233   5.378   2.265  12.207  0.2316  0.4298  0.3041
 3581TIP3    H132234   5.368   2.208  12.131  0.1986  0.0085  0.6233
 3581TIP3    H232235   5.329   2.344  12.184  0.8558  0.6224 -0.4274
 3582TIP3   OH232236   2.434   3.422   5.020  0.3670 -0.5239  0.0271
 3582TIP3    H132237   2.342   3.408   4.998  0.4572  1.2276 -1.6779
 3582TIP3    H232238   2.431   3.462   5.108 -0.6042  0.5515 -0.4580
 3583TIP3   OH232239   3.997   0.629  11.280 -0.0346 -0.4943 -0.8151
 3583TIP3    H132240   3.926   0.575  11.243 -1.2617  1.3886 -1.3467
 3583TIP3    H232241   4.061   0.635  11.209  0.7990 -2.3678 -0.2679
 3584TIP3   OH232242   5.126   2.185   2.582  0.2580 -0.3188 -0.3761
 3584TIP3    H132243   5.176   2.252   2.535 -1.2431  0.5324 -0.8255
 3584TIP3    H232244   5.067   2.148   2.515  0.6178 -1.6502  0.0184
 3585TIP3   OH232245   3.557   1.801  14.834 -0.1403  0.6023 -0.4490
 3585TIP3    H132246   3.499   1.875  14.816 -1.3063 -0.3386 -0.7191
 3585TIP3    H232247   3.533   1.735  14.769  0.8939 -0.0041 -0.2361
 3586TIP3   OH232248   4.830   6.192   0.300 -0.2324  0.6235 -0.2429
 3586TIP3    H132249   4.813   6.279   0.265 -0.1433  0.6145 -0.3098
 3586TIP3    H232250   4.843   6.205   0.394  0.3914  0.7658 -0.3437
 3587TIP3   OH232251   3.751   0.556   2.497 -0.6788 -0.2406  0.4392
 3587TIP3    H132252   3.693   0.571   2.423 -1.8712 -0.2688  1.3308
 3587TIP3    H232253   3.833   0.526   2.458 -0.8548  0.9491 -0.9170
 3588TIP3   OH232254   1.764   6.500   1.121  0.0953 -0.0767  0.2978
 3588TIP3    H132255   1.688   6.442   1.116 -0.4949  0.6518  0.6464
 3588TIP3    H232256   1.832   6.454   1.072 -0.4109 -0.9762  0.4083
 3589TIP3   OH232257   1.765   6.173   0.529  0.0679  0.1666 -0.3538
 3589TIP3    H132258   1.770   6.242   0.595  0.5832 -0.7543  0.5788
 3589TIP3    H232259   1.693   6.201   0.472 -3.1903 -0.9417  2.8258
 3590TIP3   OH232260   5.963   3.190   6.056 -0.2929 -0.0333 -0.1209
 3590TIP3    H132261   6.003   3.274   6.080  0.9619  0.4569 -3.4456
 3590TIP3    H232262   6.003   3.127   6.116  0.2251  1.4366  1.1632
 3591TIP3   OH232263   3.409   2.982  12.798  0.3829 -0.8598 -0.6996
 3591TIP3    H132264   3.496   2.950  12.822  0.8461  0.9376  0.2225
 3591TIP3    H232265   3.425   3.057  12.742 -0.5303 -0.1164 -0.0173
 3592TIP3   OH232266   4.280   0.966   3.931  0.1782  0.5502 -0.0863
 3592TIP3    H132267   4.235   0.992   4.011  0.7002 -0.0854  0.4256
 3592TIP3    H232268   4.293   0.872   3.940 -0.4242  0.3304 -1.2699
 3593TIP3   OH232269   2.780   4.151   4.301 -0.2378 -0.3725 -0.2549
 3593TIP3    H132270   2.825   4.224   4.259 -1.0304  0.2366 -0.0688
 3593TIP3    H232271   2.687   4.164   4.279 -0.6903 -0.0424  1.6106
 3594TIP3   OH232272   1.971   6.405  11.207  0.5447  0.1256 -0.2361
 3594TIP3    H132273   1.990   6.438  11.120  0.3230  1.9829  0.3691
 3594TIP3    H232274   1.876   6.389  11.207  0.3377  1.3124  0.0263
 3595TIP3   OH232275   5.548   2.235  10.794 -0.6841 -0.2881 -0.3279
 3595TIP3    H132276   5.455   2.253  10.810 -0.5449  0.4686 -0.2940
 3595TIP3    H232277   5.588   2.322  10.792  0.0282 -0.6121 -0.3166
 3596TIP3   OH232278   4.647   2.654   3.989 -0.1032  0.0531  0.4302
 3596TIP3    H132279   4.701   2.670   3.912 -0.7308 -0.1061 -0.0450
 3596TIP3    H232280   4.680   2.570   4.023 -1.0543 -0.8335 -0.7498
 3597TIP3   OH232281   4.284   2.508   3.335  0.1532  0.6936  0.4684
 3597TIP3    H132282   4.306   2.592   3.375 -0.8753  1.8557 -1.2712
 3597TIP3    H232283   4.259   2.530   3.245 -0.8519 -1.4005  0.1771
 3598TIP3   OH232284   0.488   0.560  11.578 -0.4141  0.3974 -0.0160
 3598TIP3    H132285   0.556   0.611  11.534 -0.0811  1.3694  1.5511
 3598TIP3    H232286   0.433   0.625  11.621 -0.5303 -0.5172  1.2725
 3599TIP3   OH232287   4.175   0.253  15.538 -0.2510  0.0818  0.0519
 3599TIP3    H132288   4.126   0.198  15.598  0.4371 -0.2231  0.3519
 3599TIP3    H232289   4.110   0.309  15.496 -1.1799 -1.9370 -1.3368
 3600TIP3   OH232290   1.350   5.174   3.773  0.2699  0.1648 -0.0625
 3600TIP3    H132291   1.267   5.128   3.764 -0.2936  1.0815  0.2609
 3600TIP3    H232292   1.358   5.227   3.694 -1.6263  3.3958  1.6682
 3601TIP3   OH232293   3.267   0.919   1.423 -0.3184  0.0020 -0.0280
 3601TIP3    H132294   3.336   0.857   1.396  1.4314  0.2260  3.3630
 3601TIP3    H232295   3.297   0.952   1.508 -3.6155  1.8027  0.5933
 3602TIP3   OH232296   6.721   2.653   1.159 -0.1858  0.0823 -0.5585
 3602TIP3    H132297   6.743   2.561   1.144  1.4286  0.4160 -0.3269
 3602TIP3    H232298   6.663   2.675   1.086  1.0546 -0.5603 -1.7826
 3603TIP3   OH232299   1.903   3.558   5.141  0.8009  0.4192  0.6289
 3603TIP3    H132300   1.968   3.488   5.131 -0.1849 -0.5653  1.0104
 3603TIP3    H232301   1.826   3.515   5.178 -0.8299  1.1088 -1.7008
 3604TIP3   OH232302   5.187   2.591   4.902  0.5829  0.0988 -0.2876
 3604TIP3    H132303   5.211   2.654   4.834  0.2061 -0.7552 -1.2337
 3604TIP3    H232304   5.229   2.509   4.876 -0.5810 -0.5580 -0.1710
 3605TIP3   OH232305   0.164   5.356  14.128 -0.1472  0.0627 -0.1825
 3605TIP3    H132306   0.203   5.442  14.144  1.2388 -0.0631 -2.4641
 3605TIP3    H232307   0.237   5.295  14.136 -1.0787 -0.9018  1.1934
 3606TIP3   OH232308   0.338   4.594   1.571 -0.3285  0.6166  0.0191
 3606TIP3    H132309   0.370   4.672   1.617  0.8889 -0.3340  0.8514
 3606TIP3    H232310   0.415   4.559   1.527 -0.5789 -0.7619  0.6317
 3607TIP3   OH232311   3.284   1.775  17.142  0.0510 -0.2252  0.0643
 3607TIP3    H132312   3.227   1.849  17.165 -1.0797 -0.6907 -1.1259
 3607TIP3    H232313   3.224   1.708  17.111  1.3089 -0.3239 -2.3549
 3608TIP3   OH232314   2.163   4.121   0.100 -0.0507 -0.7402 -0.0374
 3608TIP3    H132315   2.087   4.107   0.043 -1.6016  2.5453  1.0209
 3608TIP3    H232316   2.145   4.068   0.177 -2.2538  1.2179  0.9311
 3609TIP3   OH232317   6.690   2.060  14.434 -1.0078  0.2850  0.3048
 3609TIP3    H132318   6.658   2.129  14.491 -0.1633  1.2737 -0.3744
 3609TIP3    H232319   6.722   1.993  14.493  0.2872  1.4870  1.0196
 3610TIP3   OH232320   6.230   2.806  12.957  0.3931 -0.7589 -0.6986
 3610TIP3    H132321   6.308   2.762  12.992  0.5228 -1.2862 -1.6084
 3610TIP3    H232322   6.261   2.851  12.879  0.0430  0.1238 -0.3439
 3611TIP3   OH232323   0.582   2.233  16.916 -0.9378 -0.0748  0.4409
 3611TIP3    H132324   0.603   2.237  17.009  2.3383  0.1834 -0.1741
 3611TIP3    H232325   0.548   2.320  16.894 -1.0797  0.0732  1.2375
 3612TIP3   OH232326   3.361   1.485   3.500 -0.1864 -0.3605  0.2795
 3612TIP3    H132327   3.341   1.411   3.557 -0.2343 -1.6376 -1.3068
 3612TIP3    H232328   3.453   1.472   3.475 -0.2439  0.0191 -0.1560
 3613TIP3   OH232329   3.082   5.573   0.144  0.7727 -0.0736 -0.8221
 3613TIP3    H132330   2.994   5.536   0.134  2.2642 -4.2447 -0.7085
 3613TIP3    H232331   3.071   5.647   0.203 -2.3733 -2.3707  1.8524
 3614TIP3   OH232332   2.899   3.837  12.987 -0.1207 -0.0292 -0.4313
 3614TIP3    H132333   2.831   3.783  13.029 -0.1673  0.8629  0.7140
 3614TIP3    H232334   2.981   3.791  13.005 -0.0809  0.5703  1.1463
 3615TIP3   OH232335   5.449   6.625  13.873  0.2029  0.1589  0.4636
 3615TIP3    H132336   5.354   6.618  13.887 -0.3356  1.7784 -1.7687
 3615TIP3    H232337   5.475   6.539  13.840 -0.4274 -0.3657  1.2973
 3616TIP3   OH232338   6.355   1.444   0.195  0.6288 -0.2540 -0.0762
 3616TIP3    H132339   6.347   1.364   0.143  0.7426 -0.7856  0.7047
 3616TIP3    H232340   6.266   1.465   0.222  0.6077 -0.1606 -0.2181
 3617TIP3   OH232341   0.955   2.493  12.440  0.8010  0.5520  0.0323
 3617TIP3    H132342   0.874   2.511  12.489  0.1253 -0.3688 -0.7098
 3617TIP3    H232343   1.021   2.478  12.508  0.0842  0.1877  0.6599
 3618TIP3   OH232344   6.805   5.862  14.883  0.2297  0.3171  0.1434
 3618TIP3    H132345   6.715   5.894  14.879 -0.2978 -0.9904  0.7056
 3618TIP3    H232346   6.825   5.861  14.977  0.7902  0.5017  0.0260
 3619TIP3   OH232347   2.630   0.607  16.365 -0.1119  0.0357  0.1442
 3619TIP3    H132348   2.593   0.532  16.320  1.2854 -0.8131  0.3500
 3619TIP3    H232349   2.556   0.647  16.411 -1.2700  0.0437 -1.6408
 3620TIP3   OH232350   0.587   5.917  14.787 -0.2071  0.7340 -0.1111
 3620TIP3    H132351   0.545   6.003  14.779  0.9672  1.3724  0.2918
 3620TIP3    H232352   0.548   5.879  14.866  0.4925  1.6354  0.6952
 3621TIP3   OH232353   3.635   0.118   3.721 -0.6968 -0.3047 -0.0767
 3621TIP3    H132354   3.657   0.041   3.669  0.7590 -1.1231  1.6756
 3621TIP3    H232355   3.700   0.183   3.695  0.5810 -0.9992  1.3014
 3622TIP3   OH232356   2.429   3.244  12.492  0.1354  0.3083  0.5908
 3622TIP3    H132357   2.489   3.172  12.474 -0.9566 -0.6414  0.6093
 3622TIP3    H232358   2.370   3.246  12.416 -0.3547  0.6228  0.9723
 3623TIP3   OH232359   2.734   6.382  13.506  0.1053  0.0977  0.3385
 3623TIP3    H132360   2.684   6.444  13.454 -1.1546 -0.8239  0.4055
 3623TIP3    H232361   2.824   6.395  13.478 -0.4709 -0.0330 -1.7344
 3624TIP3   OH232362   0.369   1.398  12.506  0.2929 -0.6092 -0.5320
 3624TIP3    H132363   0.427   1.343  12.558  1.5255  0.6248 -0.5480
 3624TIP3    H232364   0.348   1.472  12.562  0.4954  0.0418 -1.2934
 3625TIP3   OH232365   0.087   6.654  14.219  0.4701  0.2467 -0.1370
 3625TIP3    H132366   0.110   6.688  14.133  2.4907  2.6363  1.2159
 3625TIP3    H232367   0.147   6.581  14.234  0.6991  0.3812 -0.4018
 3626TIP3   OH232368   1.670   6.039  16.742  0.1467  0.2137  0.0877
 3626TIP3    H132369   1.731   6.031  16.815 -0.3009  2.3907  0.7910
 3626TIP3    H232370   1.724   6.029  16.664  0.9028 -0.5961  0.6972
 3627TIP3   OH232371   2.149   3.374  13.011  0.7862  0.2275  0.2122
 3627TIP3    H132372   2.141   3.364  12.916  2.3551 -1.3158  0.1771
 3627TIP3    H232373   2.159   3.284  13.043  2.2875  0.8376  1.5905
 3628TIP3   OH232374   0.734   4.232  10.449  0.1194  0.1099  0.1334
 3628TIP3    H132375   0.823   4.229  10.414 -0.3718 -1.2992 -1.1240
 3628TIP3    H232376   0.742   4.197  10.538  0.5317 -2.4278 -0.8037
 3629TIP3   OH232377   0.746   2.618   3.750 -0.5136 -0.2052 -0.1223
 3629TIP3    H132378   0.733   2.537   3.800 -2.3208  0.5170  0.6530
 3629TIP3    H232379   0.693   2.605   3.671 -0.1573 -0.0904 -0.3822
 3630TIP3   OH232380   6.207   4.886  11.614 -0.0836  0.1089 -0.1995
 3630TIP3    H132381   6.194   4.960  11.555  0.6602 -0.1585 -0.7165
 3630TIP3    H232382   6.299   4.862  11.603 -0.6167 -1.7821 -1.1135
 3631TIP3   OH232383   5.977   5.793  13.690  0.1713  0.2653 -0.1670
 3631TIP3    H132384   5.922   5.867  13.665  2.2446  1.6307 -0.9290
 3631TIP3    H232385   6.041   5.785  13.618  0.6649 -1.5862  0.4213
 3632TIP3   OH232386   4.204   3.357  11.305 -0.4527 -0.3584  0.2494
 3632TIP3    H132387   4.226   3.352  11.398  2.5503 -0.9400 -0.3695
 3632TIP3    H232388   4.169   3.271  11.284  2.6433 -1.7427  0.1483
 3633TIP3   OH232389   3.878   3.899   2.752 -0.6922  0.5164  0.4846
 3633TIP3    H132390   3.787   3.926   2.746 -0.4964  1.4521  1.3086
 3633TIP3    H232391   3.895   3.891   2.846 -0.0165  0.0601  0.3320
 3634TIP3   OH232392   5.568   6.809  13.708  0.2085 -0.0164 -0.1402
 3634TIP3    H132393   5.516   6.768  13.777 -0.0794  1.7808  0.7785
 3634TIP3    H232394   5.564   6.748  13.635  0.8345 -2.1712  1.5333
 3635TIP3   OH232395   6.191   5.513   3.721 -0.5743 -0.1215  0.9290
 3635TIP3    H132396   6.249   5.471   3.784  0.4772  0.2321  0.2277
 3635TIP3    H232397   6.151   5.585   3.770  1.8125  1.4820  0.7288
 3636TIP3   OH232398   0.243   3.412  15.323 -0.1173 -0.0682 -0.2048
 3636TIP3    H132399   0.306   3.482  15.306 -1.0811  1.2179  1.2715
 3636TIP3    H232400   0.162   3.442  15.283 -1.0636  0.6428  2.0924
 3637TIP3   OH232401   1.065   5.034  14.495 -0.3267 -0.0409  0.5025
 3637TIP3    H132402   1.049   4.964  14.432  2.7022  0.7071 -1.2839
 3637TIP3    H232403   1.161   5.042  14.499 -0.5097  2.8793  1.8755
 3638TIP3   OH232404   4.775   6.608   5.373 -0.5835  0.5606 -0.2255
 3638TIP3    H132405   4.726   6.618   5.292 -0.1402 -0.5859 -0.6521
 3638TIP3    H232406   4.800   6.698   5.398 -1.5535  1.0010 -0.8201
 3639TIP3   OH232407   2.422   3.595   6.346  0.1792  0.3300  0.2545
 3639TIP3    H132408   2.458   3.508   6.360  0.6235  0.2988 -0.9832
 3639TIP3    H232409   2.487   3.640   6.293 -0.2286  1.2863  0.5505
 3640TIP3   OH232410   1.725   5.337   6.070  0.0561  0.4191 -0.5959
 3640TIP3    H132411   1.749   5.418   6.114 -0.3684 -0.4437  1.3103
 3640TIP3    H232412   1.698   5.365   5.982  0.8040  2.2142 -0.2913
 3641TIP3   OH232413   5.134   5.009  16.292 -0.1616  0.0089  0.4551
 3641TIP3    H132414   5.066   4.941  16.297 -1.2039  0.9554 -0.3271
 3641TIP3    H232415   5.124   5.059  16.373 -0.8202  0.5080  0.0796
 3642TIP3   OH232416   4.416   5.941   0.460 -0.0878 -0.2658  0.3002
 3642TIP3    H132417   4.324   5.962   0.443 -0.0195 -1.3639 -1.8520
 3642TIP3    H232418   4.461   6.024   0.446 -0.7246  0.2802  1.3559
 3643TIP3   OH232419   1.335   4.917  12.928 -0.3284 -0.3172  0.9525
 3643TIP3    H132420   1.328   5.008  12.959 -0.8318 -0.4926  1.3700
 3643TIP3    H232421   1.404   4.920  12.862 -2.8022  1.1714 -1.8563
 3644TIP3   OH232422   5.346   1.899   3.906  0.7094  0.3053  0.0352
 3644TIP3    H132423   5.337   1.812   3.866  0.6181  0.9403 -1.3777
 3644TIP3    H232424   5.323   1.885   3.998 -2.0886 -0.6727 -0.7088
 3645TIP3   OH232425   5.458   4.321   5.676 -0.3876 -0.1067 -0.0669
 3645TIP3    H132426   5.464   4.329   5.580 -0.5633 -0.1806 -0.0857
 3645TIP3    H232427   5.380   4.267   5.690 -0.8510  0.6071  0.1439
 3646TIP3   OH232428   3.132   0.107  11.445  0.7862  0.2285 -0.0275
 3646TIP3    H132429   3.069   0.131  11.376  0.2477 -2.1651 -0.4702
 3646TIP3    H232430   3.081   0.108  11.526  0.6873  0.2836 -0.0915
 3647TIP3   OH232431   2.941   5.181  10.394  0.4832 -0.1901  0.1988
 3647TIP3    H132432   2.947   5.211  10.303 -0.6812  0.0187  0.1724
 3647TIP3    H232433   2.949   5.086  10.389  0.6958 -0.1560 -0.0993
 3648TIP3   OH232434   0.792   3.707   3.853 -0.0685  0.2246 -0.1853
 3648TIP3    H132435   0.856   3.774   3.875  0.0710  0.0244  0.0187
 3648TIP3    H232436   0.710   3.755   3.841 -0.0021  0.4144  0.1099
 3649TIP3   OH232437   6.282   3.757   4.120  0.8716  0.0858  0.3037
 3649TIP3    H132438   6.337   3.693   4.075  0.3848 -0.1626  0.0463
 3649TIP3    H232439   6.342   3.827   4.146  1.3270 -0.2488  0.1582
 3650TIP3   OH232440   4.666   1.410  12.421  0.2878 -0.1826  0.3759
 3650TIP3    H132441   4.723   1.399  12.345  0.1738 -1.6413  0.4633
 3650TIP3    H232442   4.608   1.482  12.398  1.6402  0.8220 -0.0262
 3651TIP3   OH232443   4.925   3.449  13.868  0.3876  0.7072  0.1676
 3651TIP3    H132444   4.943   3.443  13.774  0.1142 -1.8213  0.2018
 3651TIP3    H232445   5.011   3.451  13.909  0.5544 -0.2001 -0.1004
 3652TIP3   OH232446   6.467   3.464   1.433  0.7523 -0.3906 -0.6436
 3652TIP3    H132447   6.505   3.377   1.444 -0.0201 -1.0422 -2.5985
 3652TIP3    H232448   6.447   3.469   1.340 -2.8672  0.3057  0.0247
 3653TIP3   OH232449   5.989   0.992  14.491  0.4899  0.5055 -0.0780
 3653TIP3    H132450   5.894   0.999  14.487  0.3825 -0.8231 -0.5903
 3653TIP3    H232451   6.015   1.050  14.562 -0.5849  1.7684 -0.6925
 3654TIP3   OH232452   1.878   1.026  12.506  0.1589 -0.1120 -0.3765
 3654TIP3    H132453   1.822   1.040  12.582 -0.5335  1.8948 -1.1822
 3654TIP3    H232454   1.868   0.933  12.485 -0.7965 -0.3590  1.0733
 3655TIP3   OH232455   6.224   1.123  16.791 -0.0041  0.2138 -0.1410
 3655TIP3    H132456   6.149   1.177  16.766 -0.5261  0.1395  1.1860
 3655TIP3    H232457   6.288   1.185  16.825  0.2781  0.2046 -0.6420
 3656TIP3   OH232458   2.145   6.153  12.832  0.1754 -0.9929 -0.3415
 3656TIP3    H132459   2.239   6.135  12.831  0.2891 -0.6117  0.9336
 3656TIP3    H232460   2.140   6.248  12.823 -0.2201 -1.1777 -2.6920
 3657TIP3   OH232461   4.423   0.149  13.640 -0.2483 -0.1654  0.3824
 3657TIP3    H132462   4.493   0.166  13.703 -1.1007  0.3661  1.2061
 3657TIP3    H232463   4.402   0.235  13.604  0.0959 -0.4405 -0.5038
 3658TIP3   OH232464   4.336   0.504  10.343  0.7276 -0.4008  0.4497
 3658TIP3    H132465   4.393   0.465  10.277  1.0925  3.0702 -1.5364
 3658TIP3    H232466   4.395   0.528  10.415  1.5410  1.2969 -0.7076
 3659TIP3   OH232467   3.631   2.008  16.442  0.2448  0.3883  0.6475
 3659TIP3    H132468   3.633   2.068  16.517 -0.7021 -0.2248  1.1864
 3659TIP3    H232469   3.705   1.950  16.456  0.4867  0.7161  0.7340
 3660TIP3   OH232470   1.506   2.363  11.364 -0.0439  0.3604  0.1528
 3660TIP3    H132471   1.459   2.347  11.446  0.2956 -4.2815 -0.3310
 3660TIP3    H232472   1.439   2.357  11.296  0.4365 -1.6921 -0.2092
 3661TIP3   OH232473   0.254   0.369   4.668  0.3444  0.4467  1.3715
 3661TIP3    H132474   0.254   0.328   4.755 -0.3713  0.0596  1.1957
 3661TIP3    H232475   0.172   0.418   4.664  0.2963  0.3270  0.8492
 3662TIP3   OH232476   6.761   2.582  12.017 -0.1312 -0.4390  0.3000
 3662TIP3    H132477   6.850   2.617  12.024  0.0994 -1.1306  0.8552
 3662TIP3    H232478   6.708   2.658  11.990  0.7123 -0.1593 -0.6048
 3663TIP3   OH232479   1.693   3.434   4.973 -0.3957 -0.0927  0.3829
 3663TIP3    H132480   1.777   3.408   4.934 -0.9935 -2.0547  0.2769
 3663TIP3    H232481   1.627   3.401   4.911 -1.2598  1.7018  0.2977
 3664TIP3   OH232482   3.980   6.540  12.352 -0.3264 -0.1897 -0.4801
 3664TIP3    H132483   3.896   6.552  12.308 -0.6514 -0.1173  0.1483
 3664TIP3    H232484   3.974   6.595  12.430 -0.3513 -1.4808  0.4630
 3665TIP3   OH232485   5.917   1.092   5.019  0.5015  0.3177  0.1842
 3665TIP3    H132486   5.954   1.054   5.099  1.2856 -0.6685 -0.6272
 3665TIP3    H232487   5.988   1.144   4.981  0.0190  1.0795  0.2941
 3666TIP3   OH232488   2.507   3.411  11.285  0.1302 -0.5369  0.3822
 3666TIP3    H132489   2.552   3.475  11.231 -1.1012 -1.3013 -1.6674
 3666TIP3    H232490   2.447   3.463  11.339 -0.0456  0.1109 -0.4296
 3667TIP3   OH232491   1.213   2.749  10.733 -0.1384  0.0652 -0.4955
 3667TIP3    H132492   1.180   2.684  10.671 -2.0888 -0.2881  0.8101
 3667TIP3    H232493   1.228   2.700  10.814  2.1094  0.5616 -0.5593
 3668TIP3   OH232494   3.052   1.621  14.143 -0.1663  0.0159 -0.8187
 3668TIP3    H132495   3.051   1.706  14.098  0.7260  0.4579 -0.0396
 3668TIP3    H232496   2.965   1.585  14.127 -2.0786  2.8016  2.1157
 3669TIP3   OH232497   2.879   3.900  11.474 -0.1846  0.7618 -0.0567
 3669TIP3    H132498   2.814   3.903  11.545 -0.9601  0.0400 -0.7162
 3669TIP3    H232499   2.854   3.972  11.416  0.9320  1.8630  0.7850
 3670TIP3   OH232500   4.649   3.282  13.855  0.0262 -0.3194  0.0956
 3670TIP3    H132501   4.679   3.192  13.868 -0.0831 -0.3240  0.3230
 3670TIP3    H232502   4.585   3.296  13.925  1.2599  0.5016  1.1135
 3671TIP3   OH232503   2.043   0.701  15.207  0.2405  0.4375  0.1520
 3671TIP3    H132504   2.010   0.694  15.297  3.3890 -1.0809  1.3545
 3671TIP3    H232505   2.100   0.778  15.209 -1.4004  1.7715 -1.2760
 3672TIP3   OH232506   4.184   2.290  14.364  0.4959 -0.0542 -0.4247
 3672TIP3    H132507   4.184   2.201  14.328 -1.5727 -0.3421  0.1204
 3672TIP3    H232508   4.243   2.286  14.439  0.1944 -1.0716 -0.2277
 3673TIP3   OH232509   5.689   6.032   5.269 -0.3296 -0.2658 -0.4192
 3673TIP3    H132510   5.629   5.961   5.245 -1.8809  0.9131 -0.2124
 3673TIP3    H232511   5.754   5.991   5.326 -0.9673 -1.5934 -0.6146
 3674TIP3   OH232512   5.290   2.337   4.851  0.4869  0.2261  0.1853
 3674TIP3    H132513   5.202   2.311   4.875  0.5536  0.4232  0.6441
 3674TIP3    H232514   5.315   2.275   4.782  0.3537 -0.4309  0.7170
 3675TIP3   OH232515   5.186   0.053   5.188 -0.7398 -0.0312 -0.4008
 3675TIP3    H132516   5.189   0.024   5.097 -0.1754  0.2218 -0.4671
 3675TIP3    H232517   5.271   0.095   5.202 -0.0115 -1.8206  0.8296
 3676TIP3   OH232518   5.103   0.937  11.735  0.1240 -0.3682  0.2943
 3676TIP3    H132519   5.055   0.960  11.814  1.2903  1.8869  0.4199
 3676TIP3    H232520   5.106   1.017  11.684 -2.9639 -2.3566 -3.4809
 3677TIP3   OH232521   4.768   6.344  16.571 -0.0199  0.6896 -0.0734
 3677TIP3    H132522   4.684   6.299  16.585  1.0359 -1.4096 -0.1500
 3677TIP3    H232523   4.794   6.374  16.657 -0.4423  0.5850  0.0934
 3678TIP3   OH232524   1.812   2.774   3.396 -0.1082 -0.0732 -0.6572
 3678TIP3    H132525   1.777   2.863   3.391  1.3477  0.4773 -2.8761
 3678TIP3    H232526   1.778   2.731   3.318 -0.5490 -1.3882  0.2405
 3679TIP3   OH232527   2.585   3.444   0.437  0.7537 -0.0798  0.2769
 3679TIP3    H132528   2.629   3.522   0.470 -2.5578  1.2174  1.9794
 3679TIP3    H232529   2.575   3.461   0.343  0.5038  1.3279  0.5399
 3680TIP3   OH232530   3.607   3.826   2.625 -0.0284  0.2994  0.4938
 3680TIP3    H132531   3.525   3.840   2.578 -0.0162  3.2178  1.1666
 3680TIP3    H232532   3.581   3.824   2.717  0.5923  0.8192  0.6844
 3681TIP3   OH232533   5.729   4.869  12.430  0.1766 -0.5899 -0.1098
 3681TIP3    H132534   5.787   4.945  12.438 -1.2782  0.6135 -0.6146
 3681TIP3    H232535   5.744   4.820  12.511 -0.1407  1.1731  1.0739
 3682TIP3   OH232536   4.952   1.696  14.120  0.3599  0.1696 -0.5024
 3682TIP3    H132537   4.892   1.621  14.118  0.1501  0.3395 -0.5984
 3682TIP3    H232538   4.948   1.733  14.032 -0.9350  1.3806  0.0067
 3683TIP3   OH232539   4.204   0.102   4.140  0.3715 -0.3548  0.0528
 3683TIP3    H132540   4.165   0.148   4.066  2.0989 -0.1110 -0.7456
 3683TIP3    H232541   4.227   0.015   4.105  1.9277  0.0383  0.0355
 3684TIP3   OH232542   1.754   0.578   5.124 -0.0751  0.2389  0.1629
 3684TIP3    H132543   1.712   0.582   5.038 -0.4783  0.1502  0.3536
 3684TIP3    H232544   1.681   0.576   5.186  0.2070 -0.1753  0.4863
 3685TIP3   OH232545   2.991   0.263   1.554 -0.2965 -0.2131  0.3103
 3685TIP3    H132546   2.983   0.207   1.631  1.6688 -3.3246 -1.5527
 3685TIP3    H232547   3.082   0.254   1.527 -0.7989  1.1655 -2.1369
 3686TIP3   OH232548   4.981   2.836   5.473 -0.4631 -0.2696  0.4383
 3686TIP3    H132549   4.924   2.905   5.505  0.7405 -0.3291  2.8757
 3686TIP3    H232550   5.023   2.873   5.395 -2.4373  0.3930 -0.3661
 3687TIP3   OH232551   4.251   1.268  10.685 -0.0041  0.2175  0.0595
 3687TIP3    H132552   4.300   1.350  10.682 -0.6498  0.5935 -0.7579
 3687TIP3    H232553   4.277   1.227  10.767  1.4035  0.5619 -0.1991
 3688TIP3   OH232554   1.608   5.988   2.571 -0.2168 -0.4049 -0.4663
 3688TIP3    H132555   1.593   6.014   2.480 -0.1923  0.7869 -0.1491
 3688TIP3    H232556   1.638   5.897   2.566 -0.2577 -0.3618 -1.6414
 3689TIP3   OH232557   0.144   5.026  12.262  0.0687 -0.6284  0.3825
 3689TIP3    H132558   0.168   5.027  12.169  0.1007 -1.8346  0.3599
 3689TIP3    H232559   0.054   5.060  12.264  0.4465  0.4233  0.0434
 3690TIP3   OH232560   0.928   3.413   2.166  0.2881  0.1141  0.1792
 3690TIP3    H132561   0.968   3.498   2.188  0.4156  0.3792 -1.0049
 3690TIP3    H232562   0.934   3.408   2.070  1.3133 -1.7362  0.2868
 3691TIP3   OH232563   1.786   5.376  11.359  0.6011 -0.3076  0.4534
 3691TIP3    H132564   1.768   5.444  11.424  0.9567 -1.0545  1.3575
 3691TIP3    H232565   1.859   5.410  11.308  0.0224  0.4868  0.1354
 3692TIP3   OH232566   3.998   5.378   3.604  0.6112 -0.1714 -0.0417
 3692TIP3    H132567   3.984   5.472   3.600 -1.5640 -0.4905 -2.3960
 3692TIP3    H232568   3.919   5.344   3.647  0.7243 -0.9963 -0.4691
 3693TIP3   OH232569   2.972   1.530   4.129 -0.4561  0.0858  0.3874
 3693TIP3    H132570   3.032   1.487   4.190  0.2199 -0.0417 -0.3421
 3693TIP3    H232571   2.900   1.468   4.119  0.0942 -0.5202  0.0104
 3694TIP3   OH232572   0.135   6.647  15.553  0.2186  0.1750 -0.2190
 3694TIP3    H132573   0.193   6.670  15.480  3.5690 -1.4022  1.7141
 3694TIP3    H232574   0.067   6.592  15.513  2.2444 -1.0929 -2.1724
 3695TIP3   OH232575   2.813   3.213  16.676 -0.3787 -0.3212 -0.1772
 3695TIP3    H132576   2.815   3.276  16.604  0.1202  1.1074  1.0368
 3695TIP3    H232577   2.729   3.167  16.666 -0.9149  0.7864 -0.9006
 3696TIP3   OH232578   6.400   0.566   4.370 -0.3497 -0.0839 -0.2251
 3696TIP3    H132579   6.353   0.629   4.425 -2.9457 -0.2010 -2.1184
 3696TIP3    H232580   6.422   0.615   4.291  0.4069 -0.7643 -0.4486
 3697TIP3   OH232581   2.143   0.389   3.200  0.8328 -0.7391  0.2544
 3697TIP3    H132582   2.054   0.418   3.181  0.8968  1.7127  2.9965
 3697TIP3    H232583   2.189   0.395   3.116 -1.5136 -2.1667 -1.2497
 3698TIP3   OH232584   4.539   4.127  12.160  0.0237  0.5336  0.3405
 3698TIP3    H132585   4.608   4.106  12.223 -1.9144 -1.4435  1.9783
 3698TIP3    H232586   4.583   4.179  12.093  3.7877 -2.8639 -0.2125
 3699TIP3   OH232587   4.479   5.373   5.732  0.2384  0.1171 -0.9921
 3699TIP3    H132588   4.445   5.462   5.740 -1.1720 -0.2415 -2.3486
 3699TIP3    H232589   4.568   5.384   5.700  0.7516  1.0660  0.6897
 3700TIP3   OH232590   3.068   2.058   5.480 -0.0925 -0.0726  0.0140
 3700TIP3    H132591   3.144   2.026   5.432 -0.3071  0.2943 -0.5832
 3700TIP3    H232592   3.000   1.993   5.465  0.0865 -0.3766  0.5092
 3701TIP3   OH232593   4.379   4.296   0.351 -0.4785  0.6430  0.2274
 3701TIP3    H132594   4.436   4.300   0.274 -2.7461 -0.2478 -1.6277
 3701TIP3    H232595   4.361   4.387   0.372  1.0374  0.9181  0.4089
 3702TIP3   OH232596   4.718   2.048  12.096  0.2303 -0.2427 -0.1070
 3702TIP3    H132597   4.692   2.048  12.004  0.5026  0.5784 -0.1894
 3702TIP3    H232598   4.812   2.063  12.095  0.0535  0.9682  0.3413
 3703TIP3   OH232599   5.259   6.440  13.293 -0.0068  0.3169 -0.0276
 3703TIP3    H132600   5.295   6.356  13.264  3.3871  1.1962  1.1618
 3703TIP3    H232601   5.289   6.503  13.228  1.2936  1.1945  1.3684
 3704TIP3   OH232602   5.149   5.646  14.701 -0.4979 -0.1610 -0.1141
 3704TIP3    H132603   5.230   5.607  14.668 -0.4583 -0.3296  0.1758
 3704TIP3    H232604   5.102   5.573  14.741 -1.5230 -0.3901 -1.6510
 3705TIP3   OH232605   2.296   6.670   0.568  0.6424 -0.3712 -0.5740
 3705TIP3    H132606   2.353   6.601   0.602  0.6056 -1.2855 -2.2529
 3705TIP3    H232607   2.324   6.681   0.477  1.1013  2.3521 -0.1697
 3706TIP3   OH232608   4.064   3.244  13.990 -0.7520  0.4111  0.4812
 3706TIP3    H132609   4.084   3.171  14.049  0.4482 -1.1151 -1.6437
 3706TIP3    H232610   4.136   3.306  14.002  0.4758 -0.7448 -0.5920
 3707TIP3   OH232611   5.134   4.870  17.183  0.3305 -0.3065 -0.2472
 3707TIP3    H132612   5.166   4.955  17.212 -0.8757  0.3056 -0.6186
 3707TIP3    H232613   5.185   4.850  17.105  0.3307  0.2901 -0.4050
 3708TIP3   OH232614   3.893   4.963  14.337 -0.2420  0.0479  0.3214
 3708TIP3    H132615   3.929   4.881  14.371  0.4989 -0.5701 -1.8350
 3708TIP3    H232616   3.804   4.967  14.372  0.3251 -0.7292  1.9408
 3709TIP3   OH232617   1.611   0.747   4.724 -0.0419 -0.0481  0.4935
 3709TIP3    H132618   1.600   0.841   4.731  0.3765  0.0001  0.5289
 3709TIP3    H232619   1.524   0.711   4.741 -0.3843  0.3647 -0.3525
 3710TIP3   OH232620   5.028   3.528  13.545 -0.2833 -0.0668 -0.4815
 3710TIP3    H132621   5.076   3.503  13.466 -1.3545 -0.6987 -0.9617
 3710TIP3    H232622   5.087   3.587  13.591  1.9664 -2.5991  0.1433
 3711TIP3   OH232623   6.662   5.721  12.548 -0.2537 -0.6194  0.6901
 3711TIP3    H132624   6.588   5.779  12.564  1.5963  2.5116 -1.1396
 3711TIP3    H232625   6.737   5.767  12.584  1.2448 -2.1605 -0.3294
 3712TIP3   OH232626   0.411   2.410  17.167 -0.0326 -0.3119  0.5839
 3712TIP3    H132627   0.403   2.505  17.154  1.1197 -0.0663  1.4985
 3712TIP3    H232628   0.331   2.387  17.214 -0.3581  0.1963  0.2967
 3713TIP3   OH232629   2.574   4.391  14.412  0.7242  0.1631 -0.5100
 3713TIP3    H132630   2.605   4.303  14.434  0.9346  0.1825 -0.7289
 3713TIP3    H232631   2.612   4.448  14.478  3.2310  0.5645 -2.1786
 3714TIP3   OH232632   3.579   5.452  11.673  0.1600 -0.8415 -0.2282
 3714TIP3    H132633   3.655   5.507  11.690 -0.6131  0.3443 -0.4489
 3714TIP3    H232634   3.612   5.379  11.621  0.9289  0.3566 -1.4912
 3715TIP3   OH232635   0.843   6.422   5.026  0.0649  0.1090 -0.0484
 3715TIP3    H132636   0.765   6.387   4.982 -0.5911  1.9487 -0.4394
 3715TIP3    H232637   0.869   6.497   4.973  0.6807  0.9499  1.3889
 3716TIP3   OH232638   6.752   5.514  12.941  1.0289  0.4500 -0.1447
 3716TIP3    H132639   6.806   5.511  13.019  0.6153 -1.0595  0.1227
 3716TIP3    H232640   6.811   5.494  12.869  0.7426 -2.0433  0.2361
 3717TIP3   OH232641   4.916   2.542  13.790  0.4928  0.4324 -0.1644
 3717TIP3    H132642   5.004   2.546  13.827  0.8715  0.3025 -1.0374
 3717TIP3    H232643   4.919   2.599  13.714 -0.0072 -0.0575 -0.5585
 3718TIP3   OH232644   1.924   3.309   4.869 -0.2349 -0.4571 -0.1714
 3718TIP3    H132645   1.872   3.229   4.871  1.4965 -1.6045  1.2084
 3718TIP3    H232646   1.975   3.303   4.788  2.7444 -2.7784  1.6543
 3719TIP3   OH232647   1.044   2.379  15.124  0.4499 -0.4202 -0.2460
 3719TIP3    H132648   1.043   2.471  15.148  1.8974 -0.5452  0.4003
 3719TIP3    H232649   1.101   2.338  15.189  0.0561 -1.7218 -0.6871
 3720TIP3   OH232650   2.957   6.133  15.983 -0.1093 -0.4045  0.0768
 3720TIP3    H132651   2.923   6.216  16.016 -3.4359 -0.4348 -2.6667
 3720TIP3    H232652   2.988   6.087  16.061 -1.0397  2.1736  2.0988
 3721TIP3   OH232653   0.916   4.835  11.938  0.0913 -0.4463  0.3038
 3721TIP3    H132654   0.836   4.783  11.930  0.6283 -1.6994  2.3125
 3721TIP3    H232655   0.907   4.882  12.021  1.7455 -1.2549  0.9983
 3722TIP3   OH232656   3.201   4.155   1.595 -0.3240  0.2190 -0.1399
 3722TIP3    H132657   3.273   4.105   1.634 -1.1916  0.2681  1.5953
 3722TIP3    H232658   3.181   4.223   1.660 -2.5376 -0.3682 -0.1359
 3723TIP3   OH232659   2.876   4.134   0.609 -0.2860 -0.5978  0.0757
 3723TIP3    H132660   2.927   4.215   0.603 -0.6437 -0.3819 -0.0737
 3723TIP3    H232661   2.929   4.076   0.664  0.2356 -0.4652 -0.2807
 3724TIP3   OH232662   3.984   3.060   5.196 -1.0326 -0.0513 -0.8957
 3724TIP3    H132663   4.045   2.988   5.182 -0.9369  0.1349 -1.4592
 3724TIP3    H232664   3.976   3.067   5.292 -0.5413 -0.3806 -0.8276
 3725TIP3   OH232665   3.961   6.276  12.561  0.8027 -0.3814 -0.4619
 3725TIP3    H132666   3.890   6.332  12.591  0.1582 -1.7479  0.6650
 3725TIP3    H232667   4.022   6.273  12.635  0.5431 -1.5875 -0.2654
 3726TIP3   OH232668   3.797   6.614  16.901  0.2614  0.8311  0.0418
 3726TIP3    H132669   3.820   6.561  16.825 -1.1541 -0.1367  0.2567
 3726TIP3    H232670   3.712   6.651  16.879  0.5915  1.8757  0.4958
 3727TIP3   OH232671   6.446   6.797   4.119 -0.5478  0.2154 -0.1061
 3727TIP3    H132672   6.365   6.821   4.165 -1.5525  0.1658 -1.7502
 3727TIP3    H232673   6.471   6.877   4.073 -0.9295 -0.3691 -1.3753
 3728TIP3   OH232674   5.046   6.525   6.041  0.8399 -0.0159 -0.0661
 3728TIP3    H132675   5.020   6.433   6.031  3.3731 -0.9875  1.4477
 3728TIP3    H232676   4.964   6.571   6.060 -0.2776 -2.2515  0.9280
 3729TIP3   OH232677   6.091   5.847  16.720  0.3041 -0.2731 -0.2445
 3729TIP3    H132678   6.085   5.756  16.750 -2.0531 -0.3836 -0.8835
 3729TIP3    H232679   6.042   5.897  16.786  0.8691  0.4525 -0.3531
 3730TIP3   OH232680   4.863   1.037  12.902 -0.7593  0.2580  0.1854
 3730TIP3    H132681   4.869   1.070  12.812  1.0220 -0.0415  0.1516
 3730TIP3    H232682   4.789   1.084  12.940 -2.3760 -0.5768 -1.8051
 3731TIP3   OH232683   6.051   4.284  15.002  0.0674 -0.3682  0.3690
 3731TIP3    H132684   6.092   4.255  14.921 -0.2988 -0.4365  0.2039
 3731TIP3    H232685   5.963   4.312  14.976  0.5986  1.4697  0.4209
 3732TIP3   OH232686   0.010   6.415   4.225  0.6392  0.4351 -0.2562
 3732TIP3    H132687  -0.049   6.407   4.150 -0.0140 -2.2629  0.4527
 3732TIP3    H232688   0.096   6.391   4.190  0.9787  2.3280 -0.8144
 3733TIP3   OH232689   0.115   1.289  15.652  0.2178  0.1107  0.0185
 3733TIP3    H132690   0.148   1.374  15.624  0.9030  0.6321  2.2040
 3733TIP3    H232691   0.179   1.257  15.716 -0.9174 -1.2237  0.5680
 3734TIP3   OH232692   2.406   1.056  16.949  0.4764  0.0505 -0.2924
 3734TIP3    H132693   2.407   1.003  17.028  1.8189 -0.1095 -0.3897
 3734TIP3    H232694   2.479   1.022  16.896  0.5283  1.1141 -0.9388
 3735TIP3   OH232695   1.730   4.100  11.344 -0.3382  0.0653 -0.0486
 3735TIP3    H132696   1.692   4.188  11.341  0.8880  0.8153  2.9132
 3735TIP3    H232697   1.655   4.041  11.332 -1.3066  1.4702 -1.2512
 3736TIP3   OH232698   4.413   2.248   5.085  0.3417  0.1123 -0.5956
 3736TIP3    H132699   4.408   2.185   5.013 -0.8195 -1.3372  0.6752
 3736TIP3    H232700   4.479   2.212   5.144  0.3867  0.6233 -0.3276
 3737TIP3   OH232701   5.695   1.987  11.201 -0.7988 -0.1711 -0.1858
 3737TIP3    H132702   5.640   1.988  11.279  1.1418  0.6632  1.2382
 3737TIP3    H232703   5.694   2.078  11.170  2.0782  0.5905  1.6337
 3738TIP3   OH232704   5.366   6.375  11.890  0.0593  0.2377 -0.2421
 3738TIP3    H132705   5.436   6.390  11.827  0.1150 -0.6024 -0.4010
 3738TIP3    H232706   5.299   6.326  11.842  0.2600 -0.7337  0.4161
 3739TIP3   OH232707   1.112   4.600   4.317 -0.1514 -0.3454  0.3430
 3739TIP3    H132708   1.131   4.529   4.255 -0.2934 -1.1163  1.1592
 3739TIP3    H232709   1.127   4.561   4.403  0.3156  0.7912  0.8012
 3740TIP3   OH232710   1.539   3.417  15.569 -0.6814 -0.0933 -0.2843
 3740TIP3    H132711   1.464   3.360  15.588 -1.1274  0.7790  0.7054
 3740TIP3    H232712   1.500   3.496  15.531 -0.2812  0.3330  0.1599
 3741TIP3   OH232713   5.855   1.657   1.679 -0.4676  0.0268  0.4665
 3741TIP3    H132714   5.920   1.648   1.609  0.2073  0.4191  1.0199
 3741TIP3    H232715   5.848   1.569   1.716  0.3385  0.1317  0.8989
 3742TIP3   OH232716   4.598   0.548  11.079 -0.3604 -0.0193  0.6498
 3742TIP3    H132717   4.676   0.572  11.029 -0.0923  0.6816  1.3725
 3742TIP3    H232718   4.593   0.614  11.148 -1.1807 -0.4867  1.0529
 3743TIP3   OH232719   6.117   5.653  11.742  0.1861 -0.8384  0.2324
 3743TIP3    H132720   6.095   5.561  11.729  0.3847 -1.1163  1.6713
 3743TIP3    H232721   6.077   5.675  11.826  1.4359 -0.0656  0.6524
 3744TIP3   OH232722   5.928   1.855   0.697  0.7136  0.0231 -0.2734
 3744TIP3    H132723   5.882   1.837   0.616 -0.6611 -0.8151  0.6521
 3744TIP3    H232724   6.014   1.886   0.670 -0.7239  2.8304 -2.0980
 3745TIP3   OH232725   0.974   3.918  16.574  0.0108 -0.0589  0.1369
 3745TIP3    H132726   1.059   3.960  16.590  0.8753 -1.9359  0.7559
 3745TIP3    H232727   0.948   3.950  16.488  2.4063 -1.0437 -1.0575
 3746TIP3   OH232728   2.236   1.340   0.698 -0.0746 -0.2075  0.5795
 3746TIP3    H132729   2.179   1.304   0.630 -0.4672  0.3130  0.6255
 3746TIP3    H232730   2.324   1.338   0.660 -0.0983 -1.1521  0.5627
 3747TIP3   OH232731   1.256   3.566   3.960 -0.7544  0.4091 -0.2441
 3747TIP3    H132732   1.207   3.524   4.031  0.0134 -1.4488 -0.7532
 3747TIP3    H232733   1.210   3.542   3.880 -0.4665  0.7908 -0.5338
 3748TIP3   OH232734   3.251   3.208  10.638  0.0497  0.5587 -0.1148
 3748TIP3    H132735   3.263   3.293  10.679 -1.0810  0.1812  1.0804
 3748TIP3    H232736   3.292   3.216  10.551  0.1907  2.2074  0.0854
 3749TIP3   OH232737   2.856   5.473   2.165 -0.2908  0.1035  0.1924
 3749TIP3    H132738   2.795   5.540   2.196 -0.1352  0.9721 -1.3005
 3749TIP3    H232739   2.800   5.399   2.139 -0.6036  0.3668  0.1137
 3750TIP3   OH232740   1.055   4.450   0.743  0.2752  0.8508 -0.5286
 3750TIP3    H132741   1.111   4.408   0.808 -0.5287  0.3762 -0.1212
 3750TIP3    H232742   1.053   4.542   0.769  0.3935  0.7604 -0.1974
 3751TIP3   OH232743   4.432   6.230   0.651 -0.4156 -0.3810  0.2003
 3751TIP3    H132744   4.471   6.149   0.684 -0.4089  0.1045  1.4417
 3751TIP3    H232745   4.367   6.253   0.718 -0.5152  0.5584 -0.2188
 3752TIP3   OH232746   3.192   1.421  13.547  0.3298 -0.3691  0.6207
 3752TIP3    H132747   3.266   1.481  13.542  0.6012 -0.7346  0.1895
 3752TIP3    H232748   3.214   1.350  13.487 -0.0965 -0.7852  0.9460
 3753TIP3   OH232749   6.325   5.382   4.152 -0.9354  0.4942  0.0119
 3753TIP3    H132750   6.348   5.427   4.071  0.2918  0.0939  0.1254
 3753TIP3    H232751   6.321   5.452   4.217  0.3902  0.5294  0.0715
 3754TIP3   OH232752   5.119   0.720  17.075 -0.1625 -0.2483 -0.0835
 3754TIP3    H132753   5.137   0.799  17.024 -1.2015 -2.2234 -3.9004
 3754TIP3    H232754   5.195   0.664  17.060  0.3364 -0.2713  2.1723
 3755TIP3   OH232755   1.970   4.173  15.761 -0.1002 -0.3341 -0.0648
 3755TIP3    H132756   1.996   4.083  15.782 -1.1908 -0.3459  1.3676
 3755TIP3    H232757   1.959   4.173  15.666 -1.7669 -2.2227  0.0527
 3756TIP3   OH232758   3.851   4.292   0.938 -0.4793  0.0772  0.4291
 3756TIP3    H132759   3.841   4.203   0.971 -1.9978 -0.2368 -0.7570
 3756TIP3    H232760   3.765   4.332   0.950 -1.3876 -0.2701 -3.4935
 3757TIP3   OH232761   3.476   1.598   1.443 -0.0107  0.9242  0.2437
 3757TIP3    H132762   3.404   1.661   1.452 -1.3325 -0.4524 -0.1517
 3757TIP3    H232763   3.466   1.563   1.355  0.7531  0.2392  0.4185
 3758TIP3   OH232764   2.007   4.509   1.864  0.0686  0.0807  0.0012
 3758TIP3    H132765   2.077   4.552   1.814  0.1658 -0.4408 -0.3122
 3758TIP3    H232766   1.983   4.573   1.931 -0.7212  1.2111 -1.2931
 3759TIP3   OH232767   6.123   5.008   4.571 -0.2129  0.3254  0.1097
 3759TIP3    H132768   6.186   5.018   4.500 -0.5270 -0.6717 -0.3143
 3759TIP3    H232769   6.083   4.923   4.557  0.1487 -0.1694  1.8274
 3760TIP3   OH232770   2.251   2.718   0.083  0.0643 -0.4687 -0.2628
 3760TIP3    H132771   2.240   2.628   0.051 -0.0142 -0.3278 -0.6313
 3760TIP3    H232772   2.265   2.708   0.178 -2.5463 -0.7281  0.1621
 3761TIP3   OH232773   6.664   3.708  12.010 -0.0734  0.8827 -0.2014
 3761TIP3    H132774   6.701   3.677  11.927  1.6602  1.3691  0.3503
 3761TIP3    H232775   6.577   3.666  12.015 -0.3048  1.0159 -2.3362
 3762TIP3   OH232776   1.541   2.051  11.261  0.1059  0.2656 -0.0244
 3762TIP3    H132777   1.463   2.089  11.220 -0.8239  0.1395  1.5543
 3762TIP3    H232778   1.613   2.075  11.202 -1.2168 -0.4019 -2.0297
 3763TIP3   OH232779   6.610   2.323  11.911 -0.6423 -0.5193 -0.1311
 3763TIP3    H132780   6.531   2.327  11.857  1.2538 -0.3902 -3.1542
 3763TIP3    H232781   6.637   2.414  11.922 -1.5129 -0.4746  1.9560
 3764TIP3   OH232782   5.755   2.185  13.119 -0.0158 -0.2716  0.1370
 3764TIP3    H132783   5.671   2.168  13.160 -0.2791  0.2391 -0.1705
 3764TIP3    H232784   5.743   2.160  13.027 -0.5007  1.6965 -0.3920
 3765TIP3   OH232785   0.638   0.585  17.184 -0.4628  0.1585 -0.5439
 3765TIP3    H132786   0.726   0.582  17.147  0.2144 -0.2199  1.0297
 3765TIP3    H232787   0.594   0.653  17.133  1.8281  2.9388  0.8540
 3766TIP3   OH232788   0.733   4.114   1.764  0.7169 -0.2027  0.2353
 3766TIP3    H132789   0.727   4.147   1.854  1.7343  0.5165  0.0619
 3766TIP3    H232790   0.672   4.040   1.761 -0.0992  0.4016  1.2202
 3767TIP3   OH232791   3.644   2.590  11.559 -0.3009  0.5390  0.5658
 3767TIP3    H132792   3.590   2.573  11.483 -1.4555  0.9748  1.2697
 3767TIP3    H232793   3.596   2.656  11.609  1.7458  2.3598  0.2832
 3768TIP3   OH232794   1.535   6.662   0.868  0.1311  0.2395  0.0022
 3768TIP3    H132795   1.558   6.626   0.783  0.1873  2.4846 -1.0067
 3768TIP3    H232796   1.615   6.702   0.901 -0.4780  1.6077 -0.0998
 3769TIP3   OH232797   4.436   2.009   0.892  0.3220 -0.2056  0.2138
 3769TIP3    H132798   4.401   2.026   0.805  3.4333 -0.4404 -1.2152
 3769TIP3    H232799   4.426   1.915   0.904 -1.8289  0.0705  1.0047
 3770TIP3   OH232800   6.502   5.192   5.708 -0.0536 -0.1107 -0.1475
 3770TIP3    H132801   6.496   5.098   5.723  3.0195 -0.1801  1.2826
 3770TIP3    H232802   6.490   5.230   5.795 -1.2331  0.8657 -0.7089
 3771TIP3   OH232803   5.405   6.488   3.789 -0.2938  0.4953  0.1277
 3771TIP3    H132804   5.358   6.426   3.733 -0.8378  1.6680 -0.7697
 3771TIP3    H232805   5.478   6.438   3.825 -0.5128 -0.5671 -0.8576
 3772TIP3   OH232806   4.213   5.670  12.326 -0.0596  0.1666 -0.4341
 3772TIP3    H132807   4.198   5.761  12.352 -0.3697 -0.0223  0.0581
 3772TIP3    H232808   4.149   5.620  12.376  0.1032 -0.3255 -0.7124
 3773TIP3   OH232809   2.290   4.318   2.077  0.4531 -0.1102 -0.1644
 3773TIP3    H132810   2.355   4.274   2.132 -0.5508 -1.1190  0.2531
 3773TIP3    H232811   2.333   4.399   2.050  0.8903  0.6322  2.4320
 3774TIP3   OH232812   5.730   4.300   1.051  0.3659  0.1269 -0.5756
 3774TIP3    H132813   5.806   4.343   1.011  1.1402  0.0543  0.7730
 3774TIP3    H232814   5.768   4.238   1.114 -0.8038  0.5607  0.5968
 3775TIP3   OH232815   0.137   2.435  16.686 -0.2123  0.3581 -0.3452
 3775TIP3    H132816   0.110   2.390  16.606  1.9025  1.7979 -2.0005
 3775TIP3    H232817   0.106   2.525  16.674 -0.9284  0.3162  1.0563
 3776TIP3   OH232818   1.723   0.203   1.167 -0.1572 -0.9904 -0.2466
 3776TIP3    H132819   1.724   0.256   1.087 -0.8453  0.2275  0.5357
 3776TIP3    H232820   1.790   0.242   1.223  1.5878 -2.9123 -0.8385
 3777TIP3   OH232821   4.307   2.622   2.328  0.1691  0.0737  0.3660
 3777TIP3    H132822   4.225   2.622   2.278 -0.8974 -0.1805  2.0487
 3777TIP3    H232823   4.373   2.655   2.266 -1.4508  1.6544 -0.6149
 3778TIP3   OH232824   0.434   4.891  17.138  0.2727  0.3523  0.3071
 3778TIP3    H132825   0.393   4.966  17.181  0.8890  1.2724 -0.6557
 3778TIP3    H232826   0.503   4.930  17.083  1.5668 -1.0235  0.8749
 3779TIP3   OH232827   5.761   2.511   6.470 -0.5450  0.0391 -0.1802
 3779TIP3    H132828   5.846   2.511   6.516 -0.6516 -1.0061  0.0323
 3779TIP3    H232829   5.782   2.540   6.382 -0.3393  2.1367  0.4927
 3780TIP3   OH232830   0.539   6.447   0.073  0.0910  0.0813  0.7830
 3780TIP3    H132831   0.635   6.442   0.079  0.0556 -0.7067  0.7894
 3780TIP3    H232832   0.512   6.358   0.049 -0.5256  0.6897 -0.8716
 3781TIP3   OH232833   0.054   6.586   2.929 -0.6206 -0.4042 -0.2083
 3781TIP3    H132834   0.014   6.504   2.900  1.7019 -1.1859 -1.4995
 3781TIP3    H232835   0.147   6.566   2.935  0.0463  2.1925 -0.7458
 3782TIP3   OH232836   6.829   1.304   5.537  0.3151 -0.1978 -0.3452
 3782TIP3    H132837   6.784   1.219   5.541  1.1554 -0.6455 -0.2381
 3782TIP3    H232838   6.917   1.283   5.507  0.8422  0.5205  0.6677
 3783TIP3   OH232839   6.128   6.812   3.420  0.1472  0.5812  0.3456
 3783TIP3    H132840   6.198   6.875   3.441 -0.6903  2.1921 -1.3781
 3783TIP3    H232841   6.129   6.808   3.324  0.0284 -1.9406  0.4062
 3784TIP3   OH232842   0.170   6.282   4.014  0.1843 -0.0345  0.0733
 3784TIP3    H132843   0.177   6.319   3.926  2.7847 -0.1417  0.1486
 3784TIP3    H232844   0.230   6.208   4.014 -0.6783 -0.7882  1.6071
 3785TIP3   OH232845   0.383   3.346   4.523  0.4147  0.0241  0.0663
 3785TIP3    H132846   0.363   3.278   4.458 -0.2875  1.6397 -1.4748
 3785TIP3    H232847   0.306   3.348   4.579  0.3520 -0.3151 -0.0026
 3786TIP3   OH232848   5.525   2.991   1.283 -0.7588 -0.2449 -0.4031
 3786TIP3    H132849   5.467   2.937   1.230 -0.9643  0.8192 -1.3009
 3786TIP3    H232850   5.484   3.078   1.283 -0.1711  0.0566  0.5675
 3787TIP3   OH232851   1.013   0.710   5.710  0.8895  0.6062 -0.2880
 3787TIP3    H132852   1.020   0.730   5.616  0.4298 -2.3460 -1.0531
 3787TIP3    H232853   1.089   0.656   5.729 -0.0563 -0.5083  0.5109
 3788TIP3   OH232854   1.767   2.142  13.016  0.0584  0.3710  0.1057
 3788TIP3    H132855   1.754   2.236  13.011 -0.1426  0.3744  0.6239
 3788TIP3    H232856   1.799   2.126  13.105  0.3216 -0.0214 -0.0559
 3789TIP3   OH232857   5.724   0.524  16.044 -0.5449  0.5269  0.3793
 3789TIP3    H132858   5.698   0.603  16.092 -0.5252  0.1131  1.0892
 3789TIP3    H232859   5.817   0.513  16.065 -0.4765  0.4731  0.0533
 3790TIP3   OH232860   2.426   2.473  16.288  0.2586 -0.8630 -0.5401
 3790TIP3    H132861   2.515   2.470  16.254  0.5693 -0.5900  0.2253
 3790TIP3    H232862   2.431   2.428  16.373 -0.3845 -1.0609 -0.6027
 3791TIP3   OH232863   0.067   1.733   3.073 -0.1224 -0.4148 -0.2673
 3791TIP3    H132864   0.128   1.680   3.022 -0.8175  0.0493 -1.6200
 3791TIP3    H232865   0.107   1.737   3.160  1.3204 -0.8651 -0.8668
 3792TIP3   OH232866   2.174   3.080   4.624 -0.0630  0.3118 -0.2578
 3792TIP3    H132867   2.143   3.021   4.693  0.6856 -0.7568 -0.8067
 3792TIP3    H232868   2.260   3.046   4.600  0.0102  1.1147 -1.2014
 3793TIP3   OH232869   6.454   2.789   5.590 -0.2241 -0.3681  0.0083
 3793TIP3    H132870   6.403   2.782   5.670 -0.5815 -0.3012 -0.2119
 3793TIP3    H232871   6.421   2.720   5.534  0.0873 -0.4734 -0.0506
 3794TIP3   OH232872   1.694   2.686   2.599  0.5265  0.2169  0.3632
 3794TIP3    H132873   1.754   2.613   2.612 -0.2198 -0.6574 -0.8885
 3794TIP3    H232874   1.747   2.754   2.558  0.8920 -0.1685  0.1887
 3795TIP3   OH232875   0.161   0.632  12.143  0.5941 -0.5514  0.5040
 3795TIP3    H132876   0.095   0.701  12.149  1.1895  0.1738 -0.8732
 3795TIP3    H232877   0.179   0.608  12.234 -1.1576 -0.3924  0.9267
 3796TIP3   OH232878   3.251   0.748  16.886 -0.3671  0.6247  0.0820
 3796TIP3    H132879   3.279   0.671  16.838  0.5362 -0.2909  1.9609
 3796TIP3    H232880   3.309   0.818  16.856 -1.9157  0.9342 -2.4565
 3797TIP3   OH232881   4.078   2.396   5.475 -0.0814 -0.2015  0.6286
 3797TIP3    H132882   4.081   2.334   5.402 -0.8334 -2.2541  2.2332
 3797TIP3    H232883   4.103   2.344   5.551  0.4382  1.8067  1.8975
 3798TIP3   OH232884   0.978   3.771  13.816  0.4096 -0.6363 -0.4213
 3798TIP3    H132885   0.947   3.691  13.859 -0.7743 -0.5341 -1.0597
 3798TIP3    H232886   1.013   3.742  13.732 -1.4576 -0.3591 -1.3539
 3799TIP3   OH232887   2.273   4.089   5.426  0.4477 -0.4284  0.4492
 3799TIP3    H132888   2.228   4.021   5.375 -0.2118 -0.0289  0.4925
 3799TIP3    H232889   2.283   4.161   5.364 -0.1811 -0.0136  0.8269
 3800TIP3   OH232890   6.221   5.363  13.519  0.2333 -0.0109  0.6327
 3800TIP3    H132891   6.276   5.318  13.583 -0.0177 -1.6969 -0.2751
 3800TIP3    H232892   6.219   5.454  13.549 -0.0360 -0.7545  3.1107
 3801TIP3   OH232893   2.287   4.796  13.590 -0.2445  0.8604 -0.0696
 3801TIP3    H132894   2.351   4.775  13.659  0.7593 -1.4803 -1.5879
 3801TIP3    H232895   2.334   4.856  13.532  0.4293 -0.4309 -0.8923
 3802TIP3   OH232896   3.046   2.453   5.198 -0.3945  0.2857 -0.0917
 3802TIP3    H132897   3.049   2.411   5.284 -1.3369  0.7307  0.1727
 3802TIP3    H232898   3.079   2.541   5.213 -2.0322  0.8967  0.1717
 3803TIP3   OH232899   1.738   2.974   1.862 -0.3953  0.6229 -0.3277
 3803TIP3    H132900   1.720   3.022   1.781  0.5558  1.3506 -0.1127
 3803TIP3    H232901   1.668   3.000   1.922  0.8372  2.8226  0.2401
 3804TIP3   OH232902   4.180   4.953  10.844  0.0394  0.0833  0.5778
 3804TIP3    H132903   4.091   4.918  10.840  0.7731 -1.9327  0.3923
 3804TIP3    H232904   4.221   4.905  10.917  0.8326  1.3426  0.9929
 3805TIP3   OH232905   5.911   0.499   0.775  0.2611 -0.3264  0.3600
 3805TIP3    H132906   5.942   0.543   0.855 -0.8122 -0.0368  0.6279
 3805TIP3    H232907   5.818   0.519   0.771  0.2308 -0.6283 -0.7922
 3806TIP3   OH232908   3.895   3.769  16.114  0.5776 -0.3468  0.6760
 3806TIP3    H132909   3.913   3.741  16.204 -0.6506  1.8607  1.7087
 3806TIP3    H232910   3.872   3.862  16.123 -0.2409 -0.2395 -1.8509
 3807TIP3   OH232911   3.238   2.012  14.165 -0.6242 -0.5744 -0.2279
 3807TIP3    H132912   3.293   2.090  14.159 -0.2226 -0.5976  2.1885
 3807TIP3    H232913   3.159   2.041  14.211 -0.2648 -1.6636  1.1338
 3808TIP3   OH232914   5.313   3.954   1.451 -0.2439  0.1340  0.2213
 3808TIP3    H132915   5.338   4.045   1.465  0.1203  0.2066 -0.8710
 3808TIP3    H232916   5.362   3.906   1.518  0.9919  0.5460 -0.3711
 3809TIP3   OH232917   6.815   1.508   3.515 -0.1351 -0.2027  0.1911
 3809TIP3    H132918   6.753   1.524   3.444 -0.6166 -0.9730  0.4176
 3809TIP3    H232919   6.760   1.505   3.594  0.4187  0.8776  0.6345
 3810TIP3   OH232920   1.803   6.164   1.446  0.5629  0.1041  0.1089
 3810TIP3    H132921   1.766   6.250   1.427  0.4555  0.2009  0.7275
 3810TIP3    H232922   1.890   6.167   1.406  0.0928  0.0396 -0.9494
 3811TIP3   OH232923   1.433   0.787   2.806  0.5088 -0.2065 -0.3645
 3811TIP3    H132924   1.474   0.701   2.807  1.0371  0.0453  0.4726
 3811TIP3    H232925   1.400   0.797   2.716  1.9953 -0.5565 -0.9814
 3812TIP3   OH232926   3.624   1.574   2.021 -0.1027  0.2888 -0.5340
 3812TIP3    H132927   3.718   1.582   2.009  0.1274 -1.4096 -0.1327
 3812TIP3    H232928   3.600   1.650   2.074  0.8697  1.2140 -1.3760
 3813TIP3   OH232929   3.126   3.423   6.380  0.7881  0.5053  0.2369
 3813TIP3    H132930   3.164   3.390   6.462  0.5180  0.8336  0.5023
 3813TIP3    H232931   3.159   3.364   6.312  0.1792 -0.4062  0.7122
 3814TIP3   OH232932   4.414   1.784   5.601  0.0874 -0.1986  0.6128
 3814TIP3    H132933   4.490   1.796   5.658  0.0312  1.4189  0.4087
 3814TIP3    H232934   4.427   1.848   5.530 -1.8409  0.6982  0.9984
 3815TIP3   OH232935   4.226   5.502  14.762  0.7302  0.3860 -0.0125
 3815TIP3    H132936   4.166   5.479  14.691 -1.7362 -1.0223  2.3542
 3815TIP3    H232937   4.210   5.595  14.778  0.3697  0.4041 -0.4738
 3816TIP3   OH232938   0.299   5.228   4.371  0.0717 -0.1148 -0.5118
 3816TIP3    H132939   0.247   5.184   4.304  1.1142 -2.9315  0.3623
 3816TIP3    H232940   0.384   5.244   4.329 -0.2262  0.9021 -0.7496
 3817TIP3   OH232941   0.365   4.489   4.818  0.2299  0.1002 -0.2616
 3817TIP3    H132942   0.408   4.566   4.855 -1.6849  0.5864  1.1644
 3817TIP3    H232943   0.292   4.524   4.768 -2.8425 -0.6157  3.2161
 3818TIP3   OH232944   0.816   4.648   4.658  0.1445  0.2512  0.8519
 3818TIP3    H132945   0.811   4.568   4.606  0.5846  0.4388  0.5160
 3818TIP3    H232946   0.725   4.670   4.676 -0.0616  0.5514 -0.4312
 3819TIP3   OH232947   3.502   6.265   6.633  0.2366  0.2277 -0.2839
 3819TIP3    H132948   3.553   6.258   6.553  0.8244  2.6882 -0.2053
 3819TIP3    H232949   3.416   6.297   6.604  0.3045  0.6885  0.0127
 3820TIP3   OH232950   1.886   4.911  12.855 -0.7832  0.0140 -0.2473
 3820TIP3    H132951   1.867   4.899  12.762 -0.0799  0.1252 -0.4105
 3820TIP3    H232952   1.927   4.997  12.860 -1.3110  0.2434  0.2445
 3821TIP3   OH232953   2.864   5.326  17.129 -0.2907 -1.1797  0.5400
 3821TIP3    H132954   2.875   5.366  17.042 -0.0956 -0.1749  1.0076
 3821TIP3    H232955   2.774   5.295  17.130 -1.0932  0.9741  0.8121
 3822TIP3   OH232956   2.539   3.627  16.318  0.0292  0.1751  0.0638
 3822TIP3    H132957   2.453   3.595  16.291 -0.0690  0.0364  0.5258
 3822TIP3    H232958   2.601   3.570  16.274 -0.1241  0.0814 -0.0323
 3823TIP3   OH232959   6.701   1.402  16.802  0.3620 -0.1010  0.2376
 3823TIP3    H132960   6.752   1.482  16.814  3.5953 -1.7514 -1.1901
 3823TIP3    H232961   6.686   1.397  16.707 -2.3006  0.1229  0.5734
 3824TIP3   OH232962   0.432   2.377  16.136 -0.0540  0.5643  0.0684
 3824TIP3    H132963   0.523   2.360  16.111  0.8083  1.3402  2.4392
 3824TIP3    H232964   0.428   2.471  16.151 -1.0227  0.4270  0.7891
 3825TIP3   OH232965   3.308   6.334  13.684 -0.4311  0.4159  0.2233
 3825TIP3    H132966   3.343   6.324  13.595 -0.9434  0.6496 -0.0138
 3825TIP3    H232967   3.337   6.256  13.731 -3.0923 -1.6030 -1.1534
 3826TIP3   OH232968   5.321   5.927   4.317 -0.1996 -0.5668  0.3827
 3826TIP3    H132969   5.385   5.856   4.323 -0.2714 -0.5193  2.2501
 3826TIP3    H232970   5.300   5.949   4.408  1.6366  3.5045  0.0663
 3827TIP3   OH232971   5.960   4.486   3.951  0.5699 -0.4174 -0.1342
 3827TIP3    H132972   5.881   4.440   3.981  0.4602  0.4932  1.0626
 3827TIP3    H232973   6.032   4.441   3.996  0.3273  1.6196  2.5730
 3828TIP3   OH232974   2.921   5.265  14.817 -0.1079 -0.0582  0.3193
 3828TIP3    H132975   2.826   5.265  14.814 -0.1603  2.1027 -0.0267
 3828TIP3    H232976   2.948   5.252  14.726 -0.0706 -0.3941  0.3766
 3829TIP3   OH232977   0.297   6.635  14.000 -0.3800  0.1547  0.2509
 3829TIP3    H132978   0.323   6.704  13.939 -1.2915 -0.3648 -0.7534
 3829TIP3    H232979   0.250   6.572  13.946 -0.2402 -0.8724  1.2993
 3830TIP3   OH232980   1.944   2.059  14.308 -0.2748 -0.1958  0.6421
 3830TIP3    H132981   1.863   2.031  14.266 -0.2700  1.5485 -0.6389
 3830TIP3    H232982   2.013   2.029  14.249 -0.2813  2.4956 -0.8997
 3831TIP3   OH232983   1.125   5.541   3.330 -0.4619  0.0949  0.0365
 3831TIP3    H132984   1.173   5.615   3.369 -0.2143 -1.3036  2.5809
 3831TIP3    H232985   1.167   5.529   3.245 -0.3135  2.6555 -0.3451
 3832TIP3   OH232986   4.747   0.918   1.485  0.0339  0.2170  0.3726
 3832TIP3    H132987   4.787   1.005   1.475  0.6044 -0.0008  0.6907
 3832TIP3    H232988   4.801   0.860   1.431  0.3095 -0.1279  1.0075
 3833TIP3   OH232989   0.865   4.046  13.906  0.5864  0.0839  0.4902
 3833TIP3    H132990   0.878   3.963  13.861 -0.9695 -0.1175  0.3516
 3833TIP3    H232991   0.868   4.024  13.999  0.0722 -0.1528  0.4530
 3834TIP3   OH232992   0.295   0.884   4.794  0.2998  0.1997  0.4613
 3834TIP3    H132993   0.232   0.900   4.865 -0.7486  1.2499 -0.6494
 3834TIP3    H232994   0.304   0.969   4.751  1.3494 -0.2921 -0.3363
 3835TIP3   OH232995   6.070   0.920   5.329 -0.4664  0.5181 -0.4134
 3835TIP3    H132996   6.115   0.959   5.404  0.5609 -0.6452 -0.3911
 3835TIP3    H232997   5.983   0.960   5.329 -0.1177  1.3089  0.7659
 3836TIP3   OH232998   1.990   3.467   4.061  0.1057  0.0836 -0.0876
 3836TIP3    H132999   1.918   3.437   4.117  1.9169 -1.1814  1.7081
 3836TIP3    H233000   2.006   3.393   4.002  0.2574  0.1749 -0.1598
 3837TIP3   OH233001   2.068   0.718  12.697  0.1918  0.1672 -0.2422
 3837TIP3    H133002   2.017   0.738  12.619  1.2070  0.8033 -0.7731
 3837TIP3    H233003   2.159   0.722  12.668  0.5765 -0.1140  0.8575
 3838TIP3   OH233004   1.557   3.561   2.721  0.4196 -0.1420 -0.3627
 3838TIP3    H133005   1.605   3.642   2.736 -0.6893  0.1640  1.9475
 3838TIP3    H233006   1.481   3.587   2.668 -0.5477  0.6265  1.3113
 3839TIP3   OH233007   4.329   1.367   1.784  0.0067 -0.0167  0.1609
 3839TIP3    H133008   4.266   1.437   1.766  1.1802  0.9776 -0.2668
 3839TIP3    H233009   4.398   1.379   1.718  0.0712 -1.8134 -0.1576
 3840TIP3   OH233010   0.166   5.041   2.790  0.4293 -0.0116  0.2841
 3840TIP3    H133011   0.073   5.049   2.769  0.4856  1.2692  0.4408
 3840TIP3    H233012   0.211   5.064   2.709  0.6233 -1.1043  0.0661
 3841TIP3   OH233013   0.824   4.969  11.571  0.8238  0.1730  0.0486
 3841TIP3    H133014   0.818   4.918  11.490 -0.1731 -0.9032  0.7717
 3841TIP3    H233015   0.891   4.923  11.623 -0.1533 -0.4945  0.7452
 3842TIP3   OH233016   1.277   4.202   5.975  0.0892  0.0348 -0.1530
 3842TIP3    H133017   1.189   4.166   5.979 -0.1850  0.4875 -1.5527
 3842TIP3    H233018   1.274   4.279   6.031 -0.6722  0.5339 -0.8479
 3843TIP3   OH233019   6.676   5.665  10.883 -0.3692 -0.4066  0.1745
 3843TIP3    H133020   6.771   5.654  10.888 -0.4142 -0.3821  1.7357
 3843TIP3    H233021   6.643   5.578  10.861  0.1014  0.0849 -2.8961
 3844TIP3   OH233022   0.876   5.806  15.789  0.5754 -0.5850 -0.1948
 3844TIP3    H133023   0.881   5.890  15.835 -0.5517 -0.6470  0.0588
 3844TIP3    H233024   0.875   5.830  15.696 -1.0883 -0.2123 -0.1107
 3845TIP3   OH233025   4.925   6.206   2.717  0.3247 -0.1127  0.4588
 3845TIP3    H133026   4.848   6.180   2.767 -0.0794  0.5017  0.1597
 3845TIP3    H233027   4.974   6.263   2.776  0.7218 -0.7607  0.7658
 3846TIP3   OH233028   2.690   0.234   5.927  0.2284  0.0685 -0.3806
 3846TIP3    H133029   2.601   0.242   5.961 -0.4134 -0.5651 -1.8202
 3846TIP3    H233030   2.728   0.161   5.976 -0.2317 -0.0204 -0.1512
 3847TIP3   OH233031   0.245   2.628   2.856  0.5601 -0.1603  0.1244
 3847TIP3    H133032   0.162   2.650   2.812  1.8111  1.0447 -1.7792
 3847TIP3    H233033   0.312   2.667   2.800  2.3165  1.5325  3.1528
 3848TIP3   OH233034   2.041   2.286   0.819  0.3532  0.0295  0.5423
 3848TIP3    H133035   2.129   2.275   0.782 -0.0381  0.4568 -0.5475
 3848TIP3    H233036   2.032   2.212   0.879  0.9392 -0.8238 -0.3753
 3849TIP3   OH233037   2.524   2.575  15.028 -0.7798 -0.0371  0.1008
 3849TIP3    H133038   2.549   2.538  15.113 -0.5091 -1.4993 -0.5834
 3849TIP3    H233039   2.438   2.615  15.045 -1.5415 -1.8018  0.7142
 3850TIP3   OH233040   0.985   4.965   2.741  0.1169 -0.1509  0.7907
 3850TIP3    H133041   0.975   5.018   2.820  0.1464  0.3546  0.4678
 3850TIP3    H233042   0.933   5.012   2.675  0.7679 -0.1045  0.3019
 3851TIP3   OH233043   2.285   4.639  13.232 -0.0184 -0.2139  0.2819
 3851TIP3    H133044   2.268   4.732  13.215  0.6234  0.0146  0.8729
 3851TIP3    H233045   2.380   4.633  13.239  0.0161 -1.0952 -0.7379
 3852TIP3   OH233046   1.342   0.167   5.178 -0.1224 -0.2390  0.7695
 3852TIP3    H133047   1.256   0.133   5.202 -0.2941  0.5293  1.2490
 3852TIP3    H233048   1.396   0.088   5.168 -0.5220 -0.6700  1.8547
 3853TIP3   OH233049   4.369   6.384   5.697 -0.4709  0.3959 -0.2175
 3853TIP3    H133050   4.328   6.454   5.747 -0.7196  0.0290  0.1065
 3853TIP3    H233051   4.362   6.411   5.606 -2.5848 -0.2236 -0.2880
 3854TIP3   OH233052   0.369   5.440  13.895  0.6240  0.1078 -0.1233
 3854TIP3    H133053   0.335   5.454  13.983 -1.8702  1.5012 -1.1971
 3854TIP3    H233054   0.395   5.527  13.865 -1.1355  0.1973 -1.6487
 3855TIP3   OH233055   0.525   2.911  13.286  0.0317 -0.3998  0.0189
 3855TIP3    H133056   0.590   2.920  13.216 -0.4618  1.4517 -0.2497
 3855TIP3    H233057   0.480   2.996  13.288 -0.7506 -0.8170  1.8043
 3856TIP3   OH233058   1.154   5.276   0.848  0.5098  0.2623  0.0746
 3856TIP3    H133059   1.172   5.263   0.941  1.9975 -0.0020 -0.2289
 3856TIP3    H233060   1.168   5.370   0.834  5.1416 -0.3107 -0.7594
 3857TIP3   OH233061   5.659   3.868   2.492 -0.1471  0.3845 -0.8993
 3857TIP3    H133062   5.620   3.820   2.564  1.1705  1.5070  0.6371
 3857TIP3    H233063   5.620   3.830   2.413 -1.7716 -0.7428  0.3926
 3858TIP3   OH233064   5.434   5.350   0.702 -0.1860 -0.3333 -0.1139
 3858TIP3    H133065   5.379   5.280   0.665  1.2238 -0.9375 -1.1919
 3858TIP3    H233066   5.449   5.324   0.792 -1.4650 -0.2691  0.1325
 3859TIP3   OH233067   2.828   5.549   3.888 -0.0730  0.0610 -0.5315
 3859TIP3    H133068   2.818   5.472   3.832 -1.8560  0.1425 -0.3741
 3859TIP3    H233069   2.875   5.516   3.964  2.1055 -0.1256 -1.8659
 3860TIP3   OH233070   2.616   4.712   5.546 -0.1952 -0.6763  0.0009
 3860TIP3    H133071   2.627   4.746   5.634  0.0344 -0.1939 -0.2125
 3860TIP3    H233072   2.538   4.755   5.513  0.4598  0.1580 -0.5042
 3861TIP3   OH233073   0.472   4.832   5.832 -0.6805 -1.0602 -0.0252
 3861TIP3    H133074   0.559   4.821   5.794 -0.4664 -1.5094  0.5796
 3861TIP3    H233075   0.486   4.828   5.926 -1.1156  0.7933  0.1420
 3862TIP3   OH233076   1.857   5.009   1.808  0.6152 -0.3968  0.4902
 3862TIP3    H133077   1.801   4.950   1.859  0.0331  1.2465  1.8380
 3862TIP3    H233078   1.946   4.984   1.832  0.3640 -0.4294  1.4313
 3863TIP3   OH233079   4.070   2.437  16.404  0.3024  0.1736  0.0029
 3863TIP3    H133080   4.057   2.531  16.414 -0.2075  0.2496 -1.1562
 3863TIP3    H233081   4.123   2.429  16.324  1.4729 -0.4711  0.8106
 3864TIP3   OH233082   0.555   5.168   1.060 -0.5766  0.4028  0.0312
 3864TIP3    H133083   0.476   5.157   1.112  0.9237 -0.1176  2.3447
 3864TIP3    H233084   0.595   5.249   1.092 -0.6228  1.2072 -1.8082
 3865TIP3   OH233085   2.555   5.381  14.061 -0.2082  0.0719  1.0486
 3865TIP3    H133086   2.647   5.368  14.083  0.2251 -2.6428 -1.7026
 3865TIP3    H233087   2.556   5.437  13.984 -0.9572  0.6176  1.4156
 3866TIP3   OH233088   5.055   2.128  10.377  0.4000  0.5023 -0.1470
 3866TIP3    H133089   5.016   2.064  10.316  1.6995  0.6527 -1.1728
 3866TIP3    H233090   4.981   2.159  10.429 -0.4370 -1.0504 -0.3399
 3867TIP3   OH233091   4.277   5.489   1.524  0.5430  0.0931  0.1244
 3867TIP3    H133092   4.280   5.537   1.606  2.1452  0.0026  0.1451
 3867TIP3    H233093   4.345   5.422   1.532 -0.6066 -1.2184 -0.5056
 3868TIP3   OH233094   6.057   2.260  13.591 -0.3912 -0.3344  0.0643
 3868TIP3    H133095   5.998   2.312  13.536  0.2705 -0.3862 -0.7199
 3868TIP3    H233096   6.080   2.319  13.663  0.6443  0.6383 -1.0077
 3869TIP3   OH233097   5.218   1.300   1.120 -0.1307  0.2530 -0.1353
 3869TIP3    H133098   5.237   1.310   1.026  0.7301  0.0908  0.0091
 3869TIP3    H233099   5.245   1.210   1.140  1.4508  0.8563  0.6405
 3870TIP3   OH233100   4.980   5.795   5.887  0.7125  0.1535 -0.5181
 3870TIP3    H133101   5.036   5.773   5.961 -0.3988 -0.4604  0.1575
 3870TIP3    H233102   4.923   5.864   5.920 -1.2010 -1.5382 -0.0924
 3871TIP3   OH233103   5.509   0.204   0.242 -0.1290 -0.5809 -0.2143
 3871TIP3    H133104   5.495   0.245   0.157 -3.1527  1.6162  1.1470
 3871TIP3    H233105   5.461   0.122   0.239  0.8643 -1.1588 -0.9788
 3872TIP3   OH233106   3.982   5.304   0.207 -0.0335  0.2756  0.3399
 3872TIP3    H133107   3.991   5.392   0.171 -0.1732 -0.4295 -1.5279
 3872TIP3    H233108   3.933   5.255   0.141  1.8925 -1.7834  0.3055
 3873TIP3   OH233109   4.798   3.756  14.974  0.2748 -0.7201  0.0839
 3873TIP3    H133110   4.833   3.669  14.995  1.2883 -0.1168  1.0020
 3873TIP3    H233111   4.825   3.771  14.883 -0.0051 -1.3978 -0.1204
 3874TIP3   OH233112   6.089   3.608   4.282  0.4144 -0.1386 -0.3424
 3874TIP3    H133113   6.180   3.577   4.289  0.3338 -0.6026 -1.2092
 3874TIP3    H233114   6.090   3.669   4.208 -0.2667 -1.3159 -1.3645
 3875TIP3   OH233115   6.817   1.862  12.944 -0.1551 -0.1446  0.0724
 3875TIP3    H133116   6.870   1.849  13.022 -1.1898 -1.1031  0.6431
 3875TIP3    H233117   6.821   1.779  12.898  1.4223  0.7673 -1.5656
 3876TIP3   OH233118   3.211   5.816   4.089 -0.5999  0.1552  0.1999
 3876TIP3    H133119   3.202   5.752   4.019  0.1770  1.5611 -1.2473
 3876TIP3    H233120   3.154   5.888   4.062  0.6317  1.2293  0.3723
 3877TIP3   OH233121   4.014   1.959  14.085 -0.6052  0.3937 -0.3118
 3877TIP3    H133122   4.098   1.953  14.131  0.0356 -1.3338 -1.6079
 3877TIP3    H233123   3.952   1.991  14.151  0.7586  0.2993  1.0566
 3878TIP3   OH233124   6.731   5.655   0.414  0.1188 -0.0570  0.3388
 3878TIP3    H133125   6.764   5.710   0.343 -0.2081 -0.4529 -0.1256
 3878TIP3    H233126   6.809   5.631   0.464  0.2357  1.0794  0.7477
 3879TIP3   OH233127   4.611   3.963   2.052  0.0305 -0.0277 -0.5705
 3879TIP3    H133128   4.672   3.889   2.057  1.5088  0.8523 -3.2791
 3879TIP3    H233129   4.602   3.980   1.958  1.4278  4.4691 -0.1272
 3880TIP3   OH233130   2.967   1.222  14.596 -0.0927 -0.5696 -0.3020
 3880TIP3    H133131   3.007   1.140  14.624  1.1191  0.1794  0.2090
 3880TIP3    H233132   2.894   1.194  14.540  1.2938 -1.9724 -1.5006
 3881TIP3   OH233133   1.853   5.339   0.181 -0.2091  0.2389  0.4794
 3881TIP3    H133134   1.881   5.391   0.106 -1.6214 -1.3565 -1.2347
 3881TIP3    H233135   1.758   5.352   0.186 -0.5059 -1.6275  0.3816
 3882TIP3   OH233136   4.898   4.215  13.746  0.0706 -0.1060 -0.0228
 3882TIP3    H133137   4.961   4.259  13.803  0.8052 -0.8116 -0.2611
 3882TIP3    H233138   4.849   4.158  13.805  0.7736 -0.7731 -0.0665
 3883TIP3   OH233139   0.006   1.672   5.933 -0.2372 -0.2765 -0.0964
 3883TIP3    H133140   0.059   1.610   5.983  0.4761 -1.7111 -2.5083
 3883TIP3    H233141  -0.073   1.685   5.987  1.0257 -0.7127  1.9588
 3884TIP3   OH233142   0.536   1.359   3.613  0.4455 -0.0211  0.1321
 3884TIP3    H133143   0.535   1.422   3.685 -0.1842  1.2571 -0.9588
 3884TIP3    H233144   0.543   1.274   3.656  1.6247  0.7803  1.6347
 3885TIP3   OH233145   3.205   1.320   0.449  0.4762 -0.1333  0.3031
 3885TIP3    H133146   3.230   1.232   0.476 -0.3511 -1.0275 -1.6450
 3885TIP3    H233147   3.288   1.364   0.431  0.8780 -0.6109  0.9597
 3886TIP3   OH233148   2.867   4.908   2.980  0.2887  0.2071  0.2645
 3886TIP3    H133149   2.854   4.998   3.009  2.0478  1.6578 -2.8844
 3886TIP3    H233150   2.785   4.883   2.938  0.2084  0.8754  0.0138
 3887TIP3   OH233151   3.823   3.505  12.029  0.0097 -0.0741  0.6136
 3887TIP3    H133152   3.750   3.521  11.969 -0.4576 -0.4110  1.0844
 3887TIP3    H233153   3.784   3.459  12.103  0.7820 -0.6545  0.6765
 3888TIP3   OH233154   3.323   1.237   3.601 -0.4560 -0.7620  0.4192
 3888TIP3    H133155   3.307   1.197   3.516  1.5100 -0.6765 -0.0306
 3888TIP3    H233156   3.275   1.181   3.663  0.8748 -2.9180 -0.3748
 3889TIP3   OH233157   5.836   1.525   5.217 -0.1635 -0.5167  0.0436
 3889TIP3    H133158   5.887   1.555   5.293  1.1063 -0.7709 -0.6779
 3889TIP3    H233159   5.876   1.441   5.193  0.2906  0.1437 -1.6646
 3890TIP3   OH233160   5.293   3.542   4.579 -0.4409  0.4725  0.4685
 3890TIP3    H133161   5.274   3.459   4.534  1.3859 -0.3898  1.1729
 3890TIP3    H233162   5.222   3.552   4.641 -0.2940 -1.0169  0.9186
 3891TIP3   OH233163   6.131   1.927  12.546  0.5307  0.4879 -0.3256
 3891TIP3    H133164   6.212   1.976  12.553  0.1541  0.9024  2.2100
 3891TIP3    H233165   6.143   1.852  12.604  0.5222 -1.6890 -2.9451
 3892TIP3   OH233166   2.499   2.464  15.743  0.2927  0.3422  0.0984
 3892TIP3    H133167   2.581   2.513  15.753  0.7750 -0.2737 -0.6963
 3892TIP3    H233168   2.458   2.469  15.829  1.5088  0.0575  0.7203
 3893TIP3   OH233169   2.113   4.379   0.532  0.0628  0.1173 -0.0884
 3893TIP3    H133170   2.155   4.448   0.583 -0.8542 -0.1118  1.0113
 3893TIP3    H233171   2.022   4.379   0.562 -0.0936 -1.1539 -0.5215
 3894TIP3   OH233172   2.346   2.335   4.792  0.2361  0.1825  0.0025
 3894TIP3    H133173   2.300   2.252   4.805 -0.8083  0.4860 -1.4772
 3894TIP3    H233174   2.355   2.343   4.697  0.4926  1.6785  0.1231
 3895TIP3   OH233175   4.977   1.239   0.341  0.1186 -0.3131 -0.2214
 3895TIP3    H133176   4.956   1.210   0.430 -1.0168  0.6262 -0.1522
 3895TIP3    H233177   4.892   1.242   0.296  0.4145  1.1091 -0.7434
 3896TIP3   OH233178   3.305   4.311   1.376  0.0558  0.3879  0.5250
 3896TIP3    H133179   3.266   4.250   1.438  2.0667 -2.2202 -0.5601
 3896TIP3    H233180   3.312   4.394   1.423 -2.7481 -0.1719  2.1066
 3897TIP3   OH233181   4.108   6.058   3.521  0.1828  0.2574 -0.8217
 3897TIP3    H133182   4.153   5.982   3.484 -0.5180  0.1369 -1.4405
 3897TIP3    H233183   4.168   6.131   3.505 -0.4346  0.3655 -2.9748
 3898TIP3   OH233184   6.313   3.642  11.021  0.3114 -0.3460 -0.2755
 3898TIP3    H133185   6.347   3.713  10.968  0.9110 -0.7649 -0.4623
 3898TIP3    H233186   6.301   3.570  10.959 -2.3915  0.2195 -0.5482
 3899TIP3   OH233187   0.546   3.179   6.687 -0.0218  0.6074  0.0145
 3899TIP3    H133188   0.563   3.264   6.646 -0.9781  1.0877  0.5921
 3899TIP3    H233189   0.539   3.198   6.781  2.3227 -0.5010  0.4982
 3900TIP3   OH233190   1.211   0.780  11.622  0.1036  0.2090 -0.3890
 3900TIP3    H133191   1.233   0.812  11.710  3.7622  1.0725 -1.4381
 3900TIP3    H233192   1.117   0.794  11.614  0.0104  2.1805  2.5841
 3901TIP3   OH233193   6.548   0.073   2.502 -0.1557  0.1124  0.0855
 3901TIP3    H133194   6.568   0.097   2.593 -1.9297  1.6944  0.1305
 3901TIP3    H233195   6.606   0.127   2.449 -0.2711  0.4286  0.2774
 3902TIP3   OH233196   3.259   1.286  16.741 -0.0052 -0.7636 -0.4659
 3902TIP3    H133197   3.348   1.252  16.737 -0.4494 -2.0559  0.0731
 3902TIP3    H233198   3.206   1.219  16.697 -0.7179 -0.0435 -0.7181
 3903TIP3   OH233199   4.913   4.147   5.597 -0.1449  0.2454  0.0653
 3903TIP3    H133200   4.881   4.082   5.660  0.3498  0.8461  0.9669
 3903TIP3    H233201   4.891   4.110   5.512 -0.1275 -0.9726  0.5608
 3904TIP3   OH233202   5.250   6.706  14.550 -0.5527 -0.1707 -0.3377
 3904TIP3    H133203   5.287   6.619  14.535 -0.2719  0.2185 -2.0920
 3904TIP3    H233204   5.173   6.709  14.494 -1.3691  0.2389  0.7600
 3905TIP3   OH233205   2.600   2.924  14.057 -0.2300 -0.3489 -0.0996
 3905TIP3    H133206   2.586   2.979  13.980 -0.1774  0.5061  0.4970
 3905TIP3    H233207   2.607   2.835  14.021  0.3343  0.0927 -1.1299
 3906TIP3   OH233208   5.925   2.205  17.136  0.2790 -0.1318 -0.1671
 3906TIP3    H133209   5.869   2.154  17.194 -1.3953  2.8752  1.0471
 3906TIP3    H233210   6.000   2.229  17.189  0.5371 -0.3985 -0.4055
 3907TIP3   OH233211   3.635   0.676   0.567  0.2179  0.3776 -0.2986
 3907TIP3    H133212   3.615   0.735   0.639 -1.9042  0.2669 -0.7501
 3907TIP3    H233213   3.722   0.641   0.588  0.6200  2.0637  1.0162
 3908TIP3   OH233214   2.255   2.525  11.842  0.1459 -0.7820  0.2137
 3908TIP3    H133215   2.177   2.470  11.835  1.8398 -3.1432 -2.0791
 3908TIP3    H233216   2.267   2.561  11.754 -0.4213  2.7841  1.4430
 3909TIP3   OH233217   5.356   6.806  10.230  0.1845  0.4380 -0.1331
 3909TIP3    H133218   5.330   6.892  10.198  1.9003  1.4419  1.0031
 3909TIP3    H233219   5.315   6.798  10.316  1.7654  1.1159  0.7279
 3910TIP3   OH233220   6.755   0.546   4.298 -0.2401 -0.3077  0.9594
 3910TIP3    H133221   6.822   0.502   4.246 -1.4709 -1.6207  0.4125
 3910TIP3    H233222   6.673   0.508   4.268 -1.7099  3.8887 -1.2306
 3911TIP3   OH233223   2.153   6.204   4.154  0.1473  0.6893 -0.1837
 3911TIP3    H133224   2.201   6.267   4.207 -0.0653  1.0346 -0.4041
 3911TIP3    H233225   2.078   6.180   4.207 -0.6439  1.8340 -0.7511
 3912TIP3   OH233226   3.905   2.304   2.478 -0.8006 -0.2097 -0.0505
 3912TIP3    H133227   3.946   2.226   2.515  0.6453  0.8320  0.6223
 3912TIP3    H233228   3.950   2.317   2.394  1.9110  2.0887  1.5667
 3913TIP3   OH233229   4.946   1.268   2.372 -0.1843  0.9136 -0.0832
 3913TIP3    H133230   4.991   1.201   2.319 -0.4064  0.0294  0.8203
 3913TIP3    H233231   4.853   1.256   2.352 -0.2085  1.0768 -0.0655
 3914TIP3   OH233232   3.509   3.003  16.291 -0.0301  0.0111  0.1760
 3914TIP3    H133233   3.418   2.991  16.264 -0.3948 -1.6932  1.9870
 3914TIP3    H233234   3.504   3.059  16.368  0.7795  2.4368 -1.3875
 3915TIP3   OH233235   1.844   1.271  12.841 -0.1470 -0.1856 -0.3677
 3915TIP3    H133236   1.913   1.220  12.882 -2.0344 -1.0920  1.9475
 3915TIP3    H233237   1.788   1.205  12.798 -0.2181  0.4002 -1.1913
 3916TIP3   OH233238   1.973   0.658   5.343 -0.4064 -0.7806  0.0091
 3916TIP3    H133239   1.942   0.700   5.263 -1.7832 -1.5554  0.1084
 3916TIP3    H233240   1.947   0.718   5.413 -0.6072 -0.8626  0.0032
 3917TIP3   OH233241   0.544   2.252  12.753 -0.2097 -0.1447  0.4229
 3917TIP3    H133242   0.454   2.268  12.778 -0.3567  0.0492 -0.1966
 3917TIP3    H233243   0.538   2.211  12.666  0.2888 -0.2127  0.4156
 3918TIP3   OH233244   2.400   5.017  11.508 -0.2585 -0.2183 -0.5100
 3918TIP3    H133245   2.326   4.963  11.480 -0.3256 -0.4571  0.1239
 3918TIP3    H233246   2.361   5.092  11.552 -0.1476  0.0739 -0.9048
 3919TIP3   OH233247   3.113   1.712   3.667  0.2606 -0.0628  0.2529
 3919TIP3    H133248   3.030   1.738   3.629  0.3436 -0.6610 -0.3692
 3919TIP3    H233249   3.090   1.644   3.731  0.0274  1.5735  1.9940
 3920TIP3   OH233250   6.096   5.511   5.538  0.2652 -0.4779  0.0068
 3920TIP3    H133251   6.028   5.506   5.605 -1.0808 -1.8947 -1.3755
 3920TIP3    H233252   6.144   5.428   5.545  1.0965  0.0074  0.1897
 3921TIP3   OH233253   2.794   0.790  11.094  0.0357 -0.5336  0.2518
 3921TIP3    H133254   2.805   0.872  11.045 -2.3438 -1.4003 -1.9716
 3921TIP3    H233255   2.846   0.726  11.046 -1.5378 -1.1809 -0.6689
 3922TIP3   OH233256   1.205   3.109  12.315 -0.4834 -0.2679  0.0499
 3922TIP3    H133257   1.284   3.060  12.295  0.1818  0.6790  0.2642
 3922TIP3    H233258   1.133   3.053  12.287  0.2136 -1.6837  0.9995
 3923TIP3   OH233259   2.249   4.330  13.872  0.3524 -0.2452  0.1185
 3923TIP3    H133260   2.251   4.373  13.786 -1.6833 -0.7542 -0.2238
 3923TIP3    H233261   2.293   4.247  13.859 -0.3361 -0.5093 -0.5588
 3924TIP3   OH233262   2.780   2.510   1.636  0.4698  0.1774 -0.1708
 3924TIP3    H133263   2.866   2.514   1.678  0.6197  0.1147 -0.4629
 3924TIP3    H233264   2.782   2.582   1.572 -0.1778  0.9877  0.7038
 3925TIP3   OH233265   3.340   4.374   6.223 -0.3623  0.8176  0.1662
 3925TIP3    H133266   3.255   4.405   6.191  0.5703  1.8372 -1.4194
 3925TIP3    H233267   3.372   4.446   6.277 -0.6877  0.2352  1.1650
 3926TIP3   OH233268   4.976   4.987  15.233  0.4725 -0.0260  0.0714
 3926TIP3    H133269   5.022   5.040  15.167 -0.3214  2.0066  1.0786
 3926TIP3    H233270   4.927   4.923  15.182  2.3511 -0.6021 -1.1427
 3927TIP3   OH233271   6.701   0.224  11.201 -0.2824 -0.0121  0.1248
 3927TIP3    H133272   6.670   0.152  11.146 -0.3667 -0.5702  0.8812
 3927TIP3    H233273   6.658   0.210  11.286  0.5535  0.2903  0.6113
 3928TIP3   OH233274   6.407   2.934   0.280 -0.7047 -0.0544 -0.1986
 3928TIP3    H133275   6.493   2.936   0.237 -0.6989  0.8988 -0.1686
 3928TIP3    H233276   6.400   2.846   0.316 -0.6626 -0.8625 -2.0673
 3929TIP3   OH233277   3.042   4.743   2.743  0.1808 -0.2054 -0.0376
 3929TIP3    H133278   3.015   4.830   2.714 -0.5534 -0.5057 -0.2830
 3929TIP3    H233279   3.048   4.692   2.662  1.6413 -0.1189 -0.0054
 3930TIP3   OH233280   6.135   3.486  16.776  0.0665  0.5467 -0.1772
 3930TIP3    H133281   6.124   3.497  16.871 -0.5091 -2.5197  0.2127
 3930TIP3    H233282   6.048   3.462  16.745  0.3018  1.3183 -1.4942
 3931TIP3   OH233283   0.785   0.398  16.297 -0.6076  0.4833  0.7352
 3931TIP3    H133284   0.825   0.358  16.374 -1.8880 -1.8155  0.3182
 3931TIP3    H233285   0.701   0.433  16.328 -0.0651  1.7354  0.8328
 3932TIP3   OH233286   1.749   4.242  14.694 -0.6083 -0.5222 -0.3037
 3932TIP3    H133287   1.701   4.226  14.613 -0.0759  1.3904 -1.0457
 3932TIP3    H233288   1.684   4.282  14.753 -0.4416  0.2187 -0.6106
 3933TIP3   OH233289   4.229   5.965   2.192 -0.2494  0.4903  0.0637
 3933TIP3    H133290   4.285   5.987   2.117  0.7024 -0.9527  0.2975
 3933TIP3    H233291   4.210   6.049   2.233  3.2412  1.0002  0.9849
 3934TIP3   OH233292   6.794   0.343  16.290 -0.3865 -0.6430  0.2055
 3934TIP3    H133293   6.724   0.286  16.323 -0.0955 -1.8850 -1.2271
 3934TIP3    H233294   6.789   0.335  16.195  0.6928  0.5122  0.0207
 3935TIP3   OH233295   5.493   3.754   5.436 -0.1348  0.2036  0.2852
 3935TIP3    H133296   5.543   3.835   5.424 -0.1909  0.0033 -1.5516
 3935TIP3    H233297   5.416   3.765   5.381  0.4388 -1.5503 -0.9640
 3936TIP3   OH233298   0.340   3.863  12.591 -0.2575 -0.2914 -0.5051
 3936TIP3    H133299   0.264   3.883  12.645 -0.4019 -2.0057 -0.0264
 3936TIP3    H233300   0.388   3.945  12.585 -0.4438  0.0462  1.8908
 3937TIP3   OH233301   4.137   1.350   4.697 -0.0870 -0.1852 -0.1588
 3937TIP3    H133302   4.081   1.333   4.773 -0.7935  0.0832 -0.6121
 3937TIP3    H233303   4.080   1.337   4.621 -0.2954  2.5931 -0.5980
 3938TIP3   OH233304   4.466   0.113  11.786 -0.1809  0.0979  0.1747
 3938TIP3    H133305   4.462   0.109  11.881  0.0867  0.5967  0.2094
 3938TIP3    H233306   4.425   0.197  11.764 -2.4330 -1.0327 -0.2987
 3939TIP3   OH233307   1.904   4.460  16.443  0.0306 -0.3390  0.2094
 3939TIP3    H133308   1.913   4.454  16.348 -0.0953  1.0911  0.0865
 3939TIP3    H233309   1.910   4.553  16.462  1.3608 -0.6982  1.7449
 3940TIP3   OH233310   5.189   3.951  13.122 -0.4788 -0.1237  0.4482
 3940TIP3    H133311   5.095   3.942  13.136 -1.0083 -2.3379 -3.4112
 3940TIP3    H233312   5.226   3.867  13.150 -0.4216 -1.1363 -2.3680
 3941TIP3   OH233313   3.711   0.758  14.193 -0.1154 -0.0652  0.2673
 3941TIP3    H133314   3.796   0.789  14.163  0.6533 -1.4906  0.8898
 3941TIP3    H233315   3.726   0.728  14.282 -1.8026  1.7349  1.2165
 3942TIP3   OH233316   1.061   3.623   2.219 -0.1577 -0.4575 -0.2920
 3942TIP3    H133317   1.054   3.702   2.165 -1.5192  0.0264  0.5238
 3942TIP3    H233318   1.155   3.606   2.226  0.3246  2.2338  1.1075
 3943TIP3   OH233319   1.235   5.600   1.169 -0.5561 -0.1040 -0.2264
 3943TIP3    H133320   1.257   5.625   1.259 -0.1080  0.6025 -0.5216
 3943TIP3    H233321   1.205   5.681   1.129  0.7148 -0.0540 -1.1428
 3944TIP3   OH233322   4.064   6.648  13.206  0.2398 -0.2097  0.4155
 3944TIP3    H133323   3.980   6.664  13.250 -0.0498 -0.3141 -0.0949
 3944TIP3    H233324   4.111   6.731  13.215  0.3198 -0.3233  1.1940
 3945TIP3   OH233325   1.662   2.878   1.126  0.1099  0.5509  0.2858
 3945TIP3    H133326   1.630   2.967   1.132 -0.2725  0.5909 -1.6811
 3945TIP3    H233327   1.587   2.827   1.095  0.6405 -0.2338  0.2617
 3946TIP3   OH233328   0.513   6.049   5.079  0.6938  0.6684  0.4008
 3946TIP3    H133329   0.588   6.107   5.087  0.4533  0.9791  0.4126
 3946TIP3    H233330   0.441   6.096   5.120 -0.2615  1.7366 -2.2589
 3947TIP3   OH233331   1.628   0.125  12.561 -0.4569  0.2827 -0.0991
 3947TIP3    H133332   1.650   0.076  12.639 -3.7879  0.6220  1.1915
 3947TIP3    H233333   1.600   0.211  12.593 -1.1443  0.7169 -1.7308
 3948TIP3   OH233334   4.887   5.611  14.954  0.1297 -0.1364  0.1034
 3948TIP3    H133335   4.860   5.602  15.045  0.3532 -1.7034  0.0455
 3948TIP3    H233336   4.902   5.705  14.943 -1.2736  0.2683  1.2671
 3949TIP3   OH233337   2.188   0.417  16.141  0.3652 -0.6789  0.3453
 3949TIP3    H133338   2.158   0.337  16.183 -0.9172 -1.3488 -1.7180
 3949TIP3    H233339   2.118   0.481  16.157  0.2331 -0.7081 -0.1081
 3950TIP3   OH233340   1.670   5.422  16.104 -0.1481  0.4706  0.5527
 3950TIP3    H133341   1.622   5.441  16.185  0.0226  2.5668  0.2067
 3950TIP3    H233342   1.676   5.506  16.059  1.9475 -0.1565 -0.4682
 3951TIP3   OH233343   5.386   1.858  13.684  0.0067  0.1602 -0.4931
 3951TIP3    H133344   5.454   1.921  13.706  0.2619 -0.3807  0.2849
 3951TIP3    H233345   5.420   1.773  13.712 -0.6949 -0.2134 -0.7298
 3952TIP3   OH233346   2.470   4.810  11.258  0.5295  0.0273 -0.2877
 3952TIP3    H133347   2.496   4.770  11.175  0.2058  1.2738 -1.0223
 3952TIP3    H233348   2.531   4.883  11.270 -2.0387  2.6770 -1.7671
 3953TIP3   OH233349   0.313   5.609   4.501  0.2946 -0.8132 -0.6178
 3953TIP3    H133350   0.257   5.588   4.576 -0.5132  0.4929 -0.8326
 3953TIP3    H233351   0.371   5.533   4.493 -0.6610 -1.6845  0.3420
 3954TIP3   OH233352   6.715   0.443   0.769  0.1524 -0.0125  0.4394
 3954TIP3    H133353   6.763   0.519   0.803 -0.1906  0.3854  0.0443
 3954TIP3    H233354   6.678   0.402   0.848  0.5949  0.0482  0.6843
 3955TIP3   OH233355   1.654   2.852  12.113 -0.3307 -0.6376  0.3943
 3955TIP3    H133356   1.694   2.875  12.196  0.7312  1.7962 -0.6884
 3955TIP3    H233357   1.723   2.805  12.066 -0.5489 -1.0353  0.4694
 3956TIP3   OH233358   3.152   2.822   1.859  0.2027 -0.6518  0.0011
 3956TIP3    H133359   3.207   2.842   1.934 -0.3945  0.3840  0.1908
 3956TIP3    H233360   3.066   2.803   1.897 -0.3239  0.7095 -0.4353
 3957TIP3   OH233361   6.265   2.459   1.730 -0.0442  0.1162  0.1386
 3957TIP3    H133362   6.290   2.441   1.639  2.1456  2.1829  0.2217
 3957TIP3    H233363   6.328   2.410   1.782 -0.2171  0.2847  0.5117
 3958TIP3   OH233364   3.067   5.395  13.721  0.2925  0.0586 -1.2311
 3958TIP3    H133365   3.059   5.340  13.643 -1.9112  1.8422 -2.4024
 3958TIP3    H233366   2.977   5.403  13.754  1.0254  0.2646  0.8803
 3959TIP3   OH233367   2.995   5.135   3.212  0.1153 -0.4517 -0.3638
 3959TIP3    H133368   2.921   5.170   3.164 -0.1395 -0.9113 -0.3102
 3959TIP3    H233369   2.956   5.081   3.281  0.4095  1.4719  1.4094
 3960TIP3   OH233370   6.267   3.120   0.400 -0.4882  0.4699  0.2967
 3960TIP3    H133371   6.310   3.038   0.376  1.5972  1.7138 -0.4550
 3960TIP3    H233372   6.338   3.177   0.431 -1.8953  1.9498  0.9821
 3961TIP3   OH233373   4.652   3.267  15.970 -0.1191  0.3958 -0.0310
 3961TIP3    H133374   4.742   3.283  15.997 -0.4182 -0.7634  1.8686
 3961TIP3    H233375   4.643   3.172  15.970 -0.7064  0.3667 -2.6269
 3962TIP3   OH233376   2.954   3.988  15.928  0.2591 -0.2703  0.1134
 3962TIP3    H133377   3.048   3.995  15.945  0.0558  0.3132  1.0127
 3962TIP3    H233378   2.919   4.075  15.946 -0.6194 -0.7469  0.8004
 3963TIP3   OH233379   4.877   3.732  17.126  0.4648 -0.1159  0.3424
 3963TIP3    H133380   4.912   3.790  17.193  2.6994 -0.5059 -0.4087
 3963TIP3    H233381   4.856   3.651  17.172 -2.8309  1.2073  1.4301
 3964TIP3   OH233382   5.682   0.621  12.405 -0.5707 -0.3526  0.3108
 3964TIP3    H133383   5.728   0.704  12.414 -0.0765 -0.5910 -0.0052
 3964TIP3    H233384   5.596   0.638  12.443 -0.6485  0.4513 -0.1912
 3965TIP3   OH233385   0.559   0.478  12.882  0.7964  0.1616 -0.1088
 3965TIP3    H133386   0.619   0.530  12.936  0.7018 -1.5462  1.7511
 3965TIP3    H233387   0.600   0.477  12.796  2.0814  1.2258  0.4569
 3966TIP3   OH233388   3.434   2.927   0.700  0.7052  0.1935  0.2023
 3966TIP3    H133389   3.422   2.834   0.721  0.2202  0.2889  0.3425
 3966TIP3    H233390   3.353   2.953   0.657  1.4257  0.1815 -1.1980
 3967TIP3   OH233391   3.905   3.711  13.478 -0.0530  0.3857 -0.3824
 3967TIP3    H133392   3.989   3.666  13.470 -0.8395 -0.9468 -1.6433
 3967TIP3    H233393   3.928   3.801  13.500  1.7605  0.3086 -1.7248
 3968TIP3   OH233394   3.050   3.364  14.707 -0.1942 -0.0575 -0.6900
 3968TIP3    H133395   3.097   3.448  14.706 -1.3805  0.6271 -0.5782
 3968TIP3    H233396   3.116   3.300  14.734  0.4302  1.0173  0.4166
 3969TIP3   OH233397   2.872   1.713  16.327 -0.2213 -0.3662 -0.6034
 3969TIP3    H133398   2.941   1.726  16.392 -0.3173  1.6828 -0.8451
 3969TIP3    H233399   2.892   1.628  16.287  1.9688  0.0191 -0.4550
 3970TIP3   OH233400   5.941   4.036   5.567  0.1882  0.3117 -0.0801
 3970TIP3    H133401   5.900   4.110   5.611 -0.8479  0.4023 -1.1350
 3970TIP3    H233402   5.890   3.960   5.595  1.9462 -0.2526  1.9136
 3971TIP3   OH233403   1.129   2.786  13.448 -0.0463  0.1269  0.2655
 3971TIP3    H133404   1.206   2.779  13.391  0.5869  1.8009  0.8635
 3971TIP3    H233405   1.163   2.817  13.532 -1.2437 -0.1415  0.8762
 3972TIP3   OH233406   5.859   2.436   4.593  0.5119 -0.0130 -0.2359
 3972TIP3    H133407   5.853   2.530   4.606 -0.5747 -0.2899  1.6257
 3972TIP3    H233408   5.856   2.424   4.498 -1.7702  1.7003 -0.4491
 3973TIP3   OH233409   4.469   4.910  17.168  0.1243  0.5450  0.7402
 3973TIP3    H133410   4.379   4.886  17.188  0.0237 -0.7550 -0.9847
 3973TIP3    H233411   4.510   4.827  17.141  0.2066  1.8225 -4.0637
 3974TIP3   OH233412   5.890   3.359  11.945 -0.4663 -0.3385 -0.3766
 3974TIP3    H133413   5.903   3.452  11.962  0.8393 -0.1615 -2.0341
 3974TIP3    H233414   5.801   3.353  11.911  0.4211  0.8244 -3.1565
 3975TIP3   OH233415   2.809   2.343  15.449 -0.2756  0.1242  0.5634
 3975TIP3    H133416   2.828   2.330  15.355 -0.6259  0.3036  0.4688
 3975TIP3    H233417   2.776   2.258  15.478 -1.8090  0.5483  0.1245
 3976TIP3   OH233418   3.329   6.615  15.993  0.4808  0.0042 -0.2739
 3976TIP3    H133419   3.301   6.539  15.943  0.1409  0.0747 -0.1952
 3976TIP3    H233420   3.314   6.590  16.084 -2.0562  1.0575 -0.2997
 3977TIP3   OH233421   3.381   4.267  12.198 -0.0892  0.2105  0.0382
 3977TIP3    H133422   3.459   4.300  12.240  0.0210  0.4733 -0.3688
 3977TIP3    H233423   3.379   4.174  12.221  0.3482  0.1999  0.0396
 3978TIP3   OH233424   2.026   3.890  16.168  0.2819 -0.4404  0.1653
 3978TIP3    H133425   2.047   3.826  16.236 -0.5499  0.5635  1.4187
 3978TIP3    H233426   2.042   3.975  16.209  0.2259  0.1946 -1.0663
 3979TIP3   OH233427   5.644   0.846   2.893 -0.1112  0.1223  0.2255
 3979TIP3    H133428   5.608   0.905   2.958 -0.2709  0.1578  0.1066
 3979TIP3    H233429   5.615   0.759   2.921 -1.7766  0.2928 -0.7991
 3980TIP3   OH233430   5.690   4.938  14.046  0.5641 -0.2246 -0.6856
 3980TIP3    H133431   5.630   4.863  14.051  0.2225  0.0327 -0.8592
 3980TIP3    H233432   5.646   4.999  13.986 -0.8027  1.5712  1.9576
 3981TIP3   OH233433   2.914   2.312  13.111  0.5523 -0.2122 -0.0109
 3981TIP3    H133434   2.874   2.257  13.043 -0.0140  0.1494  0.0214
 3981TIP3    H233435   2.850   2.311  13.183  1.0050 -0.3400  0.3936
 3982TIP3   OH233436   6.563   0.765  13.436 -0.6734  0.1805  0.1742
 3982TIP3    H133437   6.524   0.693  13.387 -0.0643  0.7030 -1.1099
 3982TIP3    H233438   6.520   0.844  13.403 -0.1680  0.5477  0.3705
 3983TIP3   OH233439   5.394   4.125   0.237  0.1902 -0.1947 -0.0880
 3983TIP3    H133440   5.330   4.164   0.296  0.1288 -0.1090 -0.2086
 3983TIP3    H233441   5.409   4.037   0.271  0.5954  0.0565  0.3935
 3984TIP3   OH233442   1.543   0.079  14.142 -0.1147 -0.0091 -0.2186
 3984TIP3    H133443   1.488   0.104  14.068 -1.2661  0.8231  0.8754
 3984TIP3    H233444   1.516  -0.011  14.162 -0.2720  0.0000 -0.3899
 3985TIP3   OH233445   3.525   4.744  14.383 -0.0684  0.0436 -0.6076
 3985TIP3    H133446   3.438   4.709  14.404 -0.3943  0.7099 -0.8157
 3985TIP3    H233447   3.509   4.804  14.309  0.5306  0.3369 -0.5026
 3986TIP3   OH233448   4.579   2.327  11.678 -0.9800 -0.0045  0.1004
 3986TIP3    H133449   4.633   2.310  11.600 -2.3001  0.4619 -0.9480
 3986TIP3    H233450   4.641   2.322  11.751  0.5800  0.8999 -1.0950
 3987TIP3   OH233451   5.314   0.658  13.338 -0.2836  0.1887  0.1739
 3987TIP3    H133452   5.361   0.592  13.286 -1.1471 -0.5727  0.3361
 3987TIP3    H233453   5.242   0.686  13.282  0.6858  1.8244 -0.3276
 3988TIP3   OH233454   6.772   5.796   5.371 -0.5530 -0.4312  0.1089
 3988TIP3    H133455   6.784   5.789   5.465 -1.1900 -0.4048  0.1976
 3988TIP3    H233456   6.753   5.889   5.355  1.6303 -0.0135 -0.3092
 3989TIP3   OH233457   6.358   5.583  11.019  0.5214  0.0822 -0.4381
 3989TIP3    H133458   6.410   5.583  11.099  1.5983 -0.3437 -1.1173
 3989TIP3    H233459   6.411   5.534  10.956  0.3669  1.6550 -1.8456
 3990TIP3   OH233460   5.937   3.711  16.763  0.2912 -0.2164 -0.4192
 3990TIP3    H133461   5.919   3.679  16.675  0.5546  0.8389 -0.8815
 3990TIP3    H233462   6.031   3.693  16.776  0.5400  0.6910 -0.8436
 3991TIP3   OH233463   0.133   3.054   1.109 -0.2901 -0.2087  0.0226
 3991TIP3    H133464   0.100   2.985   1.053  0.1205  0.2896 -0.8595
 3991TIP3    H233465   0.086   3.043   1.192 -2.5074  0.3346 -1.0812
 3992TIP3   OH233466   1.067   0.075   2.377  0.1773  0.8397 -0.2917
 3992TIP3    H133467   1.071   0.123   2.460  1.8008  0.5113 -0.1519
 3992TIP3    H233468   0.987   0.023   2.384  0.3031  0.7831  1.1081
 3993TIP3   OH233469   2.379   4.370  16.388  0.4601  0.7179  0.2280
 3993TIP3    H133470   2.352   4.287  16.427  2.2073 -0.6086 -1.1971
 3993TIP3    H233471   2.472   4.378  16.410  0.5119  1.9166 -0.3126
 3994TIP3   OH233472   1.525   3.411   0.100 -0.3508 -0.1079  0.2766
 3994TIP3    H133473   1.576   3.462   0.164 -0.0157 -0.2979  0.1665
 3994TIP3    H233474   1.592   3.373   0.042 -0.7139  1.1178 -0.9797
 3995TIP3   OH233475   3.094   2.486  11.137  0.0657 -0.3923  0.0411
 3995TIP3    H133476   3.079   2.447  11.051  0.3830 -0.6823  0.1134
 3995TIP3    H233477   3.095   2.581  11.121 -1.4977 -0.3640 -0.0069
 3996TIP3   OH233478   5.748   2.294   5.411  0.5682 -0.5048  0.3175
 3996TIP3    H133479   5.838   2.278   5.383  0.0518 -1.1829 -1.0202
 3996TIP3    H233480   5.724   2.216   5.461  1.2599  0.4114  2.1765
 3997TIP3   OH233481   2.187   2.976   1.058 -0.0410  0.0518  0.0803
 3997TIP3    H133482   2.225   2.906   1.006 -1.2547 -0.6237  0.0610
 3997TIP3    H233483   2.110   2.937   1.099 -0.2166  1.1169  0.8163
 3998TIP3   OH233484   3.731   6.112  16.823  0.5118  0.5067 -0.0694
 3998TIP3    H133485   3.753   6.019  16.826 -0.5679  0.2629  0.8582
 3998TIP3    H233486   3.772   6.148  16.902  1.0069  0.8448 -0.4763
 3999TIP3   OH233487   4.020   5.735  17.021 -0.5556  0.1477  0.3904
 3999TIP3    H133488   4.078   5.749  17.096  0.7439  1.3128 -0.7622
 3999TIP3    H233489   3.938   5.778  17.046  0.0297  0.9624  0.9747
 4000TIP3   OH233490   3.168   4.576  12.918 -0.3774  0.3005  0.1369
 4000TIP3    H133491   3.120   4.644  12.965  0.0925  0.1126  0.9112
 4000TIP3    H233492   3.260   4.594  12.936 -0.2655 -0.8884  0.8534
 4001TIP3   OH233493   0.320   6.068   3.943  0.2299  0.6162  0.8894
 4001TIP3    H133494   0.318   5.983   3.898  0.1447  1.7018 -1.2830
 4001TIP3    H233495   0.401   6.109   3.913 -0.1041  1.5994  1.3042
 4002TIP3   OH233496   2.974   0.682  10.532  0.3726 -1.0063 -0.2673
 4002TIP3    H133497   3.040   0.613  10.528  0.8295 -0.7087  1.4610
 4002TIP3    H233498   2.940   0.677  10.621  0.1812  0.7919 -0.2167
 4003TIP3   OH233499   1.440   5.779  13.562 -0.1219  0.3026  0.3838
 4003TIP3    H133500   1.442   5.820  13.649 -0.3664  0.8874  0.1169
 4003TIP3    H233501   1.514   5.817  13.516  1.6194 -1.9412  1.1753
 4004TIP3   OH233502   3.484   4.963   3.401  0.1518  0.0363 -0.3084
 4004TIP3    H133503   3.409   5.002   3.357  0.1081  0.5527  0.2050
 4004TIP3    H233504   3.542   5.037   3.420 -1.7406  0.6643  4.3588
 4005TIP3   OH233505   6.563   6.117   3.309 -0.1658  0.1531 -0.8369
 4005TIP3    H133506   6.532   6.098   3.221 -0.8651  2.0286 -1.0479
 4005TIP3    H233507   6.649   6.157   3.296 -0.0624 -0.0051 -0.6425
 4006TIP3   OH233508   2.512   3.634  13.350  0.2334 -0.5514 -0.1775
 4006TIP3    H133509   2.547   3.562  13.297  0.1771 -0.5391 -0.2307
 4006TIP3    H233510   2.420   3.638  13.328  0.2739 -0.3446 -0.3080
 4007TIP3   OH233511   4.716   6.404   1.606  0.0059 -0.4807  0.2226
 4007TIP3    H133512   4.711   6.389   1.701  0.9332 -1.1658  0.1765
 4007TIP3    H233513   4.806   6.434   1.591 -0.2776  0.0865 -0.3864
 4008TIP3   OH233514   4.521   4.896   5.752 -0.1493 -0.7327  0.5035
 4008TIP3    H133515   4.447   4.838   5.733  1.0546 -2.6651  1.3936
 4008TIP3    H233516   4.559   4.861   5.832  2.6548 -0.7798 -0.7356
 4009TIP3   OH233517   4.754   0.808   2.073 -0.0916  0.0462 -0.6624
 4009TIP3    H133518   4.773   0.714   2.082 -0.5444  0.0541  0.7066
 4009TIP3    H233519   4.835   0.846   2.040  0.2911 -0.7532 -0.6616
 4010TIP3   OH233520   2.675   3.669  16.553  0.3353  0.4303 -0.1780
 4010TIP3    H133521   2.632   3.595  16.595  0.4196 -0.1782 -1.1386
 4010TIP3    H233522   2.632   3.677  16.468  1.0814  0.7789 -0.5356
 4011TIP3   OH233523   4.918   3.432  11.646  0.1203 -0.8813  0.1430
 4011TIP3    H133524   4.975   3.461  11.575  2.1703  0.8757  2.3364
 4011TIP3    H233525   4.830   3.436  11.609  1.0426  0.3559 -2.1583
 4012TIP3   OH233526   4.241   4.579  12.045 -0.1828 -0.0518  0.3420
 4012TIP3    H133527   4.155   4.575  12.002 -0.0275  0.5561 -0.0446
 4012TIP3    H233528   4.243   4.664  12.087  0.9157  0.7241 -1.1715
 4013TIP3   OH233529   3.682   5.484   2.399 -0.2119 -0.3821 -0.3614
 4013TIP3    H133530   3.771   5.511   2.378  0.0995 -2.0407 -1.2813
 4013TIP3    H233531   3.629   5.562   2.382  1.0129  0.5564 -0.0106
 4014TIP3   OH233532   4.335   1.359   3.395  0.3970 -0.4945 -0.0810
 4014TIP3    H133533   4.398   1.351   3.323 -0.9669 -2.3120 -1.1357
 4014TIP3    H233534   4.251   1.373   3.352 -0.4491 -1.6197  1.1467
 4015TIP3   OH233535   2.435   5.691  13.674  0.4531  0.2831  0.1277
 4015TIP3    H133536   2.390   5.760  13.724  1.8200  0.0144  1.8234
 4015TIP3    H233537   2.528   5.708  13.689  0.8656 -3.0046  2.2719
 4016TIP3   OH233538   1.492   2.868   2.693  0.3728 -0.5804  0.1598
 4016TIP3    H133539   1.525   2.945   2.647 -0.4213 -1.0824 -1.3068
 4016TIP3    H233540   1.543   2.795   2.658 -0.5116 -1.0217 -0.2440
 4017TIP3   OH233541   0.863   2.535   0.474 -0.2053 -0.5866  0.0462
 4017TIP3    H133542   0.892   2.448   0.448  1.5466  0.1815 -0.7972
 4017TIP3    H233543   0.791   2.555   0.415  1.0986 -0.4716 -1.5802
 4018TIP3   OH233544   2.956   1.711   1.262 -0.4283  0.3177 -0.7745
 4018TIP3    H133545   2.891   1.642   1.269  0.4308 -0.4367  0.1620
 4018TIP3    H233546   3.038   1.669   1.289  0.1020  1.7122 -0.0988
 4019TIP3   OH233547   4.833   1.036  14.614 -0.6245  0.0388  0.0575
 4019TIP3    H133548   4.858   1.007  14.701 -1.7076  1.1240  0.7630
 4019TIP3    H233549   4.862   1.127  14.609 -0.8750  0.0923 -0.5750
 4020TIP3   OH233550   0.979   4.512   0.483  0.0548 -0.2335  0.2105
 4020TIP3    H133551   0.974   4.452   0.558 -1.3277 -0.6070 -0.1403
 4020TIP3    H233552   0.900   4.566   0.491  0.2310  0.1514 -0.6174
 4021TIP3   OH233553   6.180   1.921  11.512 -0.7925  0.1799 -1.2505
 4021TIP3    H133554   6.163   2.011  11.541 -0.8761  0.2906 -1.6299
 4021TIP3    H233555   6.200   1.930  11.419 -3.0080 -0.4127 -1.8504
 4022TIP3   OH233556   5.486   3.446   1.589  0.5011  0.2025 -0.0957
 4022TIP3    H133557   5.544   3.522   1.593 -0.4937  1.1907 -2.4996
 4022TIP3    H233558   5.421   3.462   1.658 -0.7070  2.5229 -1.6347
 4023TIP3   OH233559   6.202   5.926  11.433  0.2869 -0.1182  0.6066
 4023TIP3    H133560   6.182   6.018  11.451  1.2708 -0.2452  2.6127
 4023TIP3    H233561   6.153   5.906  11.353  0.4337  2.2710 -0.1588
 4024TIP3   OH233562   4.176   3.256   6.485 -0.3481  0.1489 -0.0226
 4024TIP3    H133563   4.253   3.292   6.530 -1.1484  0.4138  1.1865
 4024TIP3    H233564   4.140   3.193   6.548 -1.8698  0.9984 -0.0106
 4025TIP3   OH233565   0.791   3.555  12.868 -0.1545  0.8836  0.5598
 4025TIP3    H133566   0.856   3.619  12.839 -1.1827  1.9344  0.5056
 4025TIP3    H233567   0.734   3.542  12.792  0.1163 -0.2127  0.5290
 4026TIP3   OH233568   5.998   6.575  11.604  0.5118 -0.0324 -0.3445
 4026TIP3    H133569   5.988   6.480  11.615  0.2934 -0.3375 -2.5979
 4026TIP3    H233570   6.092   6.588  11.594  0.4915 -0.1075 -0.6493
 4027TIP3   OH233571   5.830   0.458   5.358 -0.2204  0.3451 -0.3614
 4027TIP3    H133572   5.831   0.550   5.385  0.5077 -0.4233  2.5240
 4027TIP3    H233573   5.740   0.430   5.374  0.2586 -0.1632  1.6828
 4028TIP3   OH233574   2.955   6.348  13.970  0.1806  0.0298  0.1455
 4028TIP3    H133575   2.869   6.380  13.945  0.0441 -0.3706  0.0980
 4028TIP3    H233576   2.992   6.312  13.889  1.1919  1.9354 -0.3089
 4029TIP3   OH233577   2.129   6.348   1.582 -0.0069  0.3353  0.2782
 4029TIP3    H133578   2.103   6.358   1.491  0.9555 -1.6070 -0.2688
 4029TIP3    H233579   2.066   6.285   1.618  0.8943 -0.5869  0.3061
 4030TIP3   OH233580   2.473   2.709   1.650  0.8531  0.2301 -0.5403
 4030TIP3    H133581   2.392   2.733   1.605  0.1789 -1.8454 -0.5337
 4030TIP3    H233582   2.501   2.627   1.607  0.7275 -1.3027  2.0732
 4031TIP3   OH233583   0.757   4.572   2.213 -0.4390 -0.3622  0.3210
 4031TIP3    H133584   0.796   4.513   2.277 -0.0250 -0.9576 -0.4582
 4031TIP3    H233585   0.831   4.600   2.159 -0.7949  0.0641  0.0505
 4032TIP3   OH233586   3.558   2.543   1.402 -0.2977  0.2959 -0.3251
 4032TIP3    H133587   3.595   2.500   1.479 -1.1538 -0.6257 -0.4128
 4032TIP3    H233588   3.578   2.636   1.414  1.3955 -0.0763 -0.0188
 4033TIP3   OH233589   5.192   5.095   2.602  0.1696 -0.0906  0.4368
 4033TIP3    H133590   5.225   5.128   2.518  2.9585 -1.8570  0.7292
 4033TIP3    H233591   5.230   5.155   2.667 -2.0192  1.3006  0.5330
 4034TIP3   OH233592   4.471   4.103   2.836 -0.1316 -0.8300 -0.4246
 4034TIP3    H133593   4.562   4.112   2.807 -0.5818 -0.7833 -1.9122
 4034TIP3    H233594   4.419   4.116   2.756 -1.5107  0.5575  0.6316
 4035TIP3   OH233595   4.930   6.479  17.114  0.5528 -0.4208  0.2581
 4035TIP3    H133596   4.925   6.386  17.139 -1.9984 -0.1309  1.1746
 4035TIP3    H233597   4.941   6.525  17.198  1.1236  0.1260 -0.1190
 4036TIP3   OH233598   0.667   5.954  13.113  0.4198 -0.0203  0.5322
 4036TIP3    H133599   0.691   6.046  13.125  1.0552 -0.2693  1.2342
 4036TIP3    H233600   0.735   5.905  13.160 -2.0396 -0.7121  3.7494
 4037TIP3   OH233601   6.148   6.717   1.330 -0.1800 -0.3585  0.5455
 4037TIP3    H133602   6.146   6.777   1.255  0.7554 -0.5905  0.3211
 4037TIP3    H233603   6.195   6.640   1.297 -0.1719 -0.6509  1.2374
 4038TIP3   OH233604   1.836   2.918  15.718  0.1688  0.6310 -0.2649
 4038TIP3    H133605   1.929   2.936  15.707  0.2839  0.8544  0.9321
 4038TIP3    H233606   1.819   2.936  15.811 -0.6739 -1.1506 -0.0319
 4039TIP3   OH233607   3.345   4.816  15.657 -0.2395 -0.0053 -0.7555
 4039TIP3    H133608   3.321   4.876  15.586 -0.6011  1.4310  0.5214
 4039TIP3    H233609   3.354   4.731  15.614  1.6723  1.1576 -2.9089
 4040TIP3   OH233610   2.786   2.052   5.289 -0.0828  0.2774  0.6954
 4040TIP3    H133611   2.798   2.059   5.194 -0.4951  0.2895  0.6404
 4040TIP3    H233612   2.855   1.993   5.318  0.5498  0.9052  0.5020
 4041TIP3   OH233613   3.422   4.634  15.912  0.5088  0.2408 -0.1524
 4041TIP3    H133614   3.470   4.588  15.842 -0.4915  0.1140 -0.7812
 4041TIP3    H233615   3.431   4.578  15.988  2.2578  0.7415  0.0581
 4042TIP3   OH233616   0.107   2.877  15.922  0.0139 -0.4943 -0.0334
 4042TIP3    H133617   0.064   2.869  16.007 -1.7405  0.2509 -0.7917
 4042TIP3    H233618   0.171   2.947  15.934  0.2833 -0.8768  0.8487
 4043TIP3   OH233619   4.800   3.261  15.103  0.1725 -0.2351 -0.1713
 4043TIP3    H133620   4.710   3.292  15.093  0.7171  0.9785 -1.8372
 4043TIP3    H233621   4.832   3.250  15.013  1.8666 -0.0619  0.3648
 4044TIP3   OH233622   5.336   0.606   1.460  0.2635  0.1783  0.3540
 4044TIP3    H133623   5.254   0.557   1.467 -1.3749  2.0497 -3.1155
 4044TIP3    H233624   5.403   0.538   1.450 -1.2603 -1.4075  0.3089
 4045TIP3   OH233625   2.633   6.663   3.555 -0.2624 -0.6099 -0.2521
 4045TIP3    H133626   2.647   6.697   3.466 -0.3070 -0.0163 -0.0370
 4045TIP3    H233627   2.545   6.692   3.578  1.0065  2.4116  1.3450
 4046TIP3   OH233628   1.467   3.311  13.222  0.3272  0.1358 -0.0926
 4046TIP3    H133629   1.457   3.275  13.134 -3.1916  1.0858 -0.2029
 4046TIP3    H233630   1.391   3.279  13.270  1.4495  0.7584  2.2446
 4047TIP3   OH233631   2.088   2.753  15.019 -0.2201  0.4149 -0.9607
 4047TIP3    H133632   2.010   2.700  15.036  0.5922 -0.7783 -0.8688
 4047TIP3    H233633   2.155   2.715  15.075  0.0913  2.3531  0.0928
 4048TIP3   OH233634   0.723   2.514  13.671 -0.0314 -0.4000  0.3316
 4048TIP3    H133635   0.750   2.601  13.641 -1.1365  0.4765  1.7540
 4048TIP3    H233636   0.659   2.485  13.606  0.2426 -0.0910 -0.0819
 4049TIP3   OH233637   2.414   0.885  16.297 -0.0671 -0.1448  0.2851
 4049TIP3    H133638   2.382   0.828  16.367 -0.2653  0.3331  0.5886
 4049TIP3    H233639   2.427   0.827  16.222  0.8025 -0.7875  0.9148
 4050TIP3   OH233640   1.067   2.019   2.786 -0.5403 -0.1919 -0.8262
 4050TIP3    H133641   1.055   2.093   2.846  1.7514  0.7076 -1.3975
 4050TIP3    H233642   1.040   1.943   2.837  1.2174  0.5457  1.3877
 4051TIP3   OH233643   2.529   3.935   4.330  0.0124  0.4242 -0.6124
 4051TIP3    H133644   2.482   3.975   4.257  1.3749  1.2395 -1.0779
 4051TIP3    H233645   2.514   3.841   4.321 -1.4770  0.6520 -0.7540
 4052TIP3   OH233646   1.246   3.960  11.901  0.3692  0.2841  0.2430
 4052TIP3    H133647   1.307   3.901  11.857  0.3975  1.2262 -1.0350
 4052TIP3    H233648   1.251   4.042  11.851 -2.1816  0.3030 -0.1006
 4053TIP3   OH233649   1.418   0.529  14.066  0.4562  0.2025  0.0713
 4053TIP3    H133650   1.428   0.565  14.154  0.6984 -1.4559  0.7437
 4053TIP3    H233651   1.501   0.546  14.023  0.8544 -0.2495  0.6501
 4054TIP3   OH233652   5.650   1.949  14.546  0.5091  0.2968 -0.3621
 4054TIP3    H133653   5.675   1.863  14.512  1.3224  0.1879  0.4851
 4054TIP3    H233654   5.697   2.011  14.490  1.1030  0.1428 -0.0409
 4055TIP3   OH233655   4.332   3.426  13.694 -0.5837 -0.5257 -0.1291
 4055TIP3    H133656   4.424   3.400  13.701 -0.3080  0.6490  1.0415
 4055TIP3    H233657   4.291   3.354  13.646  0.2156 -2.9394  2.4830
 4056TIP3   OH233658   3.818   5.338  15.998 -0.1898 -0.2869 -0.1807
 4056TIP3    H133659   3.897   5.286  15.983  0.0338  0.1847 -0.6316
 4056TIP3    H233660   3.749   5.273  16.010  0.3761 -0.7157  0.8624
 4057TIP3   OH233661   1.060   4.137   5.286  0.0872  0.2057 -0.4993
 4057TIP3    H133662   1.010   4.132   5.368  0.6508  1.4459 -0.0575
 4057TIP3    H233663   1.041   4.054   5.242 -0.9990 -0.0782  0.4353
 4058TIP3   OH233664   3.728   1.933   3.488 -0.5218  0.0614  0.1788
 4058TIP3    H133665   3.795   1.976   3.435 -1.9583 -0.5811 -2.3151
 4058TIP3    H233666   3.692   2.003   3.543 -0.0859  1.1282 -0.8559
 4059TIP3   OH233667   4.438   2.694  16.472  0.2873  0.1291  0.0754
 4059TIP3    H133668   4.469   2.604  16.484  0.6582  0.3772  0.9888
 4059TIP3    H233669   4.481   2.723  16.392 -0.3256 -0.7070 -0.5888
 4060TIP3   OH233670   6.657   1.729  11.520 -0.1466  0.2940  0.3234
 4060TIP3    H133671   6.686   1.658  11.463 -2.6259 -0.0915 -0.5740
 4060TIP3    H233672   6.737   1.758  11.565  1.1649 -2.1503 -0.2632
 4061TIP3   OH233673   4.934   2.980  14.284 -0.3523 -0.1414 -0.3932
 4061TIP3    H133674   4.847   2.988  14.244 -0.0102 -1.6627 -1.5485
 4061TIP3    H233675   4.993   3.021  14.221 -0.3058  1.8611  0.8869
 4062TIP3   OH233676   4.115   3.457   0.423 -0.6362 -0.5249  0.5090
 4062TIP3    H133677   4.155   3.533   0.466 -0.4670  0.6594 -1.5638
 4062TIP3    H233678   4.187   3.415   0.377 -1.1816 -0.3199 -0.5638
 4063TIP3   OH233679   3.531   3.596  11.119  0.1782 -0.3481  0.7811
 4063TIP3    H133680   3.494   3.564  11.037  2.2743 -1.8312  0.3279
 4063TIP3    H233681   3.568   3.518  11.161  2.6262  0.9374  1.2048
 4064TIP3   OH233682   2.847   2.754  16.705 -0.5687  0.3859 -0.3779
 4064TIP3    H133683   2.876   2.830  16.756 -1.3471  0.2007  0.3711
 4064TIP3    H233684   2.751   2.759  16.708 -0.8801 -3.0069  3.4931
 4065TIP3   OH233685   1.729   0.698  17.161  0.2263 -0.2275  0.3169
 4065TIP3    H133686   1.689   0.694  17.247 -0.0144 -1.9517  0.1719
 4065TIP3    H233687   1.671   0.754  17.109  0.0969  0.3917  1.1219
 4066TIP3   OH233688   3.094   0.359   4.319  0.6620 -0.0736 -0.6152
 4066TIP3    H133689   3.136   0.320   4.242 -0.5048 -1.0835 -0.7761
 4066TIP3    H233690   3.080   0.450   4.294  2.2777  0.1685 -0.7339
 4067TIP3   OH233691   5.883   5.851   0.393 -0.6423  0.2629 -0.6942
 4067TIP3    H133692   5.973   5.882   0.380 -0.4385 -1.0350 -2.8823
 4067TIP3    H233693   5.840   5.922   0.440  1.5503  0.8409  0.5823
 4068TIP3   OH233694   2.404   2.301  11.760 -0.3781 -0.2855  0.4631
 4068TIP3    H133695   2.397   2.340  11.673  0.2436 -1.5440 -0.1792
 4068TIP3    H233696   2.324   2.248  11.769  0.6700 -2.1218 -0.4012
 4069TIP3   OH233697   3.577   5.070  11.591  0.5539  0.1561  0.3608
 4069TIP3    H133698   3.486   5.040  11.600  1.1307 -2.5312 -1.4254
 4069TIP3    H233699   3.605   5.089  11.680 -1.3472 -0.3301  1.1177
 4070TIP3   OH233700   5.956   2.848   5.701  0.2638  0.5294  0.3361
 4070TIP3    H133701   5.895   2.838   5.774  0.9443 -0.1167  0.8235
 4070TIP3    H233702   5.992   2.936   5.713 -0.1131  0.6836  0.3852
 4071TIP3   OH233703   3.835   2.190   3.701 -0.9391  0.3183 -0.0578
 4071TIP3    H133704   3.921   2.167   3.665 -0.4070  1.4300  0.4528
 4071TIP3    H233705   3.793   2.242   3.633 -0.0684  2.1348  0.7506
 4072TIP3   OH233706   0.872   2.041   0.267  0.4960  0.7386  0.3285
 4072TIP3    H133707   0.857   1.993   0.349  0.2847 -1.0952 -0.7261
 4072TIP3    H233708   0.878   1.973   0.200  0.5769  2.1897 -1.2105
 4073TIP3   OH233709   2.052   3.053  11.567  0.2621 -0.1211  0.3841
 4073TIP3    H133710   2.129   3.106  11.587  0.7368 -0.9362  0.7233
 4073TIP3    H233711   2.087   2.971  11.533 -0.4479 -0.6104  0.8115
 4074TIP3   OH233712   0.027   3.038   0.781 -0.4922  0.0511 -0.3686
 4074TIP3    H133713  -0.016   2.956   0.756 -0.6793  0.1097 -0.2393
 4074TIP3    H233714  -0.024   3.070   0.855  1.0150 -0.9377  1.1512
 4075TIP3   OH233715   2.258   5.315  13.411 -0.5017 -0.5077  0.3542
 4075TIP3    H133716   2.307   5.353  13.484 -0.5050 -1.6721  0.9785
 4075TIP3    H233717   2.167   5.334  13.430 -0.4799 -0.5550  0.5058
 4076TIP3   OH233718   0.891   2.736   3.546  0.2580 -0.3635  0.2440
 4076TIP3    H133719   0.827   2.759   3.479  1.4360 -1.8537 -1.4796
 4076TIP3    H233720   0.839   2.716   3.624 -1.3382 -1.1681 -0.9841
 4077TIP3   OH233721   5.115   0.420  11.625  0.1028 -0.5384 -0.3998
 4077TIP3    H133722   5.123   0.413  11.721 -1.2355 -2.0992 -0.3612
 4077TIP3    H233723   5.116   0.514  11.608 -0.5850 -0.1950  1.2604
 4078TIP3   OH233724   6.011   4.260   3.687 -0.5202  0.3120 -0.6184
 4078TIP3    H133725   5.990   4.182   3.635  1.1349 -0.5068 -0.1324
 4078TIP3    H233726   6.047   4.225   3.769  0.5636  1.5782 -0.5209
 4079TIP3   OH233727   3.441   1.046  13.131  1.0257  0.6308  0.0933
 4079TIP3    H133728   3.431   0.991  13.209  0.3327  0.1106 -0.3571
 4079TIP3    H233729   3.524   1.091  13.145  1.3912 -0.1946  0.6856
 4080TIP3   OH233730   5.963   4.990  11.875  0.0151 -0.0061  0.4247
 4080TIP3    H133731   6.059   4.993  11.875  0.0217 -0.2798  0.9108
 4080TIP3    H233732   5.942   4.913  11.822  0.0813 -0.5833  1.2339
 4081TIP3   OH233733   3.382   6.634  15.653  0.6239 -0.1814  0.3207
 4081TIP3    H133734   3.469   6.598  15.667 -0.0262 -0.9061  2.9910
 4081TIP3    H233735   3.326   6.557  15.641 -0.0716  0.1077  1.5552
 4082TIP3   OH233736   0.146   3.095   2.076 -0.3597  0.0881  0.0071
 4082TIP3    H133737   0.152   3.078   2.170  1.0755  1.7540  0.2776
 4082TIP3    H233738   0.147   3.008   2.036 -0.2393 -0.6316  1.4987
 4083TIP3   OH233739   2.625   6.395  11.867  0.2190 -0.4960  0.1997
 4083TIP3    H133740   2.628   6.366  11.958  0.7188  1.9496  1.0613
 4083TIP3    H233741   2.688   6.467  11.863 -0.8314  0.4011 -1.7192
 4084TIP3   OH233742   2.435   5.216  12.383  0.1849  0.5377 -0.3889
 4084TIP3    H133743   2.389   5.297  12.401  1.9030  1.9495 -1.8959
 4084TIP3    H233744   2.459   5.182  12.470 -1.6055  0.9683  0.3041
 4085TIP3   OH233745   0.989   1.421   0.728  0.3874  0.3436  0.3031
 4085TIP3    H133746   1.031   1.361   0.790  0.9781  1.1325  0.6746
 4085TIP3    H233747   0.956   1.492   0.782  3.6259  2.6683 -0.4853
 4086TIP3   OH233748   5.280   5.801  11.077 -0.4070  0.5094 -0.2049
 4086TIP3    H133749   5.362   5.756  11.056  0.7476  2.7030 -0.7211
 4086TIP3    H233750   5.221   5.779  11.005  0.2036  0.0349 -0.5652
 4087TIP3   OH233751   3.621   0.669  11.755  0.0071  0.9473  0.1049
 4087TIP3    H133752   3.690   0.607  11.733 -1.4519 -0.8100  0.2254
 4087TIP3    H233753   3.615   0.728  11.680  0.2554 -0.1687 -0.8116
 4088TIP3   OH233754   0.837   0.628   2.676 -0.3494 -0.2022  0.0356
 4088TIP3    H133755   0.821   0.720   2.653 -0.3350  0.5783  2.7678
 4088TIP3    H233756   0.767   0.580   2.633 -0.8917  1.2058 -0.7182
 4089TIP3   OH233757   0.976   5.951  15.029  0.6130 -0.0265 -0.4614
 4089TIP3    H133758   0.996   6.012  14.959  1.1794  0.0051 -0.2739
 4089TIP3    H233759   0.920   5.885  14.988 -0.6857  1.0476 -0.4695
 4090TIP3   OH233760   6.120   0.343   3.232 -0.5640 -0.8125  0.1878
 4090TIP3    H133761   6.061   0.418   3.240  0.6313  0.3403 -1.2449
 4090TIP3    H233762   6.208   0.381   3.240  0.0394 -2.3353  1.1929
 4091TIP3   OH233763   0.107   4.364  15.526 -0.1173  0.7994 -0.8826
 4091TIP3    H133764   0.064   4.318  15.454  0.4660  0.0102 -0.7267
 4091TIP3    H233765   0.110   4.301  15.598 -1.1403  1.7275  0.0269
 4092TIP3   OH233766   1.788   0.739  13.686  0.0215 -0.6487  0.1350
 4092TIP3    H133767   1.780   0.687  13.766  0.9012  0.0057  0.6672
 4092TIP3    H233768   1.876   0.776  13.691 -0.1622 -0.0664 -0.8155
 4093TIP3   OH233769   1.442   1.100   4.124  0.0366  0.0650  0.3780
 4093TIP3    H133770   1.487   1.038   4.182 -0.8447  0.1039  1.1380
 4093TIP3    H233771   1.506   1.168   4.108  1.9945 -2.2413 -2.6473
 4094TIP3   OH233772   3.073   2.288  14.482  0.1189  0.4014 -0.2262
 4094TIP3    H133773   3.029   2.216  14.436  1.1033 -0.1350 -0.3630
 4094TIP3    H233774   3.075   2.359  14.419  1.3592 -0.2925 -1.0235
 4095TIP3   OH233775   3.166   4.686  15.104 -0.5634 -0.2773  0.4365
 4095TIP3    H133776   3.222   4.721  15.173 -0.4583 -3.0612  1.8982
 4095TIP3    H233777   3.077   4.712  15.131 -0.4626 -0.7841  1.3107
 4096TIP3   OH233778   0.106   0.828   4.224 -0.4782 -0.2371 -0.1232
 4096TIP3    H133779   0.197   0.821   4.254 -0.1647  0.4072 -0.8825
 4096TIP3    H233780   0.099   0.762   4.155  0.3772  1.8079 -2.2835
 4097TIP3   OH233781   6.824   3.034  15.504 -0.3915 -0.0348 -0.1802
 4097TIP3    H133782   6.872   2.999  15.579  0.0192 -0.0582 -0.4439
 4097TIP3    H233783   6.855   3.125  15.497  2.6049 -1.0516 -2.6393
 4098TIP3   OH233784   0.544   2.713   4.052  0.0746  0.0878 -0.4809
 4098TIP3    H133785   0.468   2.736   4.106  0.0414 -0.1858 -0.4090
 4098TIP3    H233786   0.550   2.618   4.059  1.2856  0.2161  0.6788
 4099TIP3   OH233787   0.153   0.697  10.828  0.2887  0.0387 -0.3378
 4099TIP3    H133788   0.239   0.687  10.786  0.5228 -0.5727  0.2640
 4099TIP3    H233789   0.173   0.733  10.915  0.0124 -0.7987  0.0873
 4100TIP3   OH233790   3.643   6.312  15.374  0.0858  0.1753 -1.0049
 4100TIP3    H133791   3.680   6.378  15.316 -0.3866  0.5086 -0.9336
 4100TIP3    H233792   3.574   6.358  15.422  1.8125  0.4770  1.3761
 4101TIP3   OH233793   0.355   6.173   0.426  0.2804  0.4293 -0.3133
 4101TIP3    H133794   0.449   6.168   0.409  0.6536  0.2771  1.5620
 4101TIP3    H233795   0.326   6.249   0.375  0.7533 -1.3080 -3.4099
 4102TIP3   OH233796   5.564   1.590   6.208  0.2019 -0.0059 -0.1940
 4102TIP3    H133797   5.595   1.541   6.284 -0.4825  2.3968  1.7401
 4102TIP3    H233798   5.488   1.540   6.177  0.2619 -0.8195  0.9029
 4103TIP3   OH233799   1.435   3.617  14.438 -0.3432 -0.0448 -0.2722
 4103TIP3    H133800   1.370   3.682  14.411  0.1158 -0.0284 -1.3867
 4103TIP3    H233801   1.409   3.537  14.393 -0.1245 -0.2898  0.0290
 4104TIP3   OH233802   2.808   3.133  15.033  0.5209 -0.0019  0.2762
 4104TIP3    H133803   2.794   3.137  14.938  1.8517 -1.6066 -0.0349
 4104TIP3    H233804   2.811   3.225  15.060  0.1307  0.4908 -1.2309
 4105TIP3   OH233805   1.790   1.007   0.315  0.7318 -0.0819 -0.2422
 4105TIP3    H133806   1.792   0.945   0.242  1.4050 -0.0039 -0.2926
 4105TIP3    H233807   1.792   1.093   0.274  1.3076 -0.0391 -0.1250
 4106TIP3   OH233808   0.388   6.260   2.281 -0.2843  0.5423  0.0486
 4106TIP3    H133809   0.483   6.258   2.294 -0.4286 -1.8205  1.1892
 4106TIP3    H233810   0.375   6.216   2.197 -0.3723  1.6509 -0.5497
 4107TIP3   OH233811   3.879   4.096   2.550  0.4759 -0.0239 -0.1606
 4107TIP3    H133812   3.895   4.162   2.617 -2.1529 -0.7134  1.2970
 4107TIP3    H233813   3.904   4.013   2.590 -4.9814 -1.0772  2.0265
 4108TIP3   OH233814   3.415   5.702  16.714  0.2298  0.4623 -0.0411
 4108TIP3    H133815   3.496   5.744  16.687 -0.2298  1.4041  0.0047
 4108TIP3    H233816   3.350   5.772  16.714 -0.7122 -0.3770 -0.6100
 4109TIP3   OH233817   5.958   4.063   5.266  0.2002 -0.6958 -0.0684
 4109TIP3    H133818   5.951   4.079   5.360 -2.1390  0.8328 -0.4060
 4109TIP3    H233819   5.903   3.986   5.250  0.1522 -0.6248 -0.2525
 4110TIP3   OH233820   0.444   3.226  13.297  0.2647  0.4802 -0.7020
 4110TIP3    H133821   0.381   3.213  13.226  2.2886  0.6280 -2.6084
 4110TIP3    H233822   0.397   3.280  13.361 -1.7570 -0.0023 -1.7010
 4111TIP3   OH233823   6.753   3.731  15.475 -0.3460  0.7650 -0.0947
 4111TIP3    H133824   6.788   3.793  15.412  1.5263 -0.5503 -0.4280
 4111TIP3    H233825   6.829   3.681  15.505 -1.5639 -0.3851  1.2672
 4112TIP3   OH233826   0.633   5.108  16.025  0.0596  0.1540 -0.1498
 4112TIP3    H133827   0.598   5.181  16.076 -1.3082 -0.7420  0.2536
 4112TIP3    H233828   0.704   5.073  16.078  0.0043  0.5168  0.1676
 4113TIP3   OH233829   3.397   4.033   1.707  0.3947  0.1851  0.0666
 4113TIP3    H133830   3.387   3.944   1.673 -0.0346 -0.0871  0.9042
 4113TIP3    H233831   3.491   4.051   1.699  0.5573 -0.5187  0.3288
 4114TIP3   OH233832   6.207   6.658   0.914  0.1708 -0.1870 -0.4934
 4114TIP3    H133833   6.198   6.578   0.862  0.3083  0.2976 -1.2599
 4114TIP3    H233834   6.244   6.722   0.854 -1.2259  0.8672 -0.2663
 4115TIP3   OH233835   6.194   0.211  15.281 -1.0716  0.5730 -0.4057
 4115TIP3    H133836   6.175   0.119  15.261 -2.0498  0.5921  0.3630
 4115TIP3    H233837   6.130   0.234  15.348  1.0179  0.9701  1.5892
 4116TIP3   OH233838   5.418   1.441  12.529  0.0552 -0.1053 -0.3933
 4116TIP3    H133839   5.504   1.443  12.488  0.7571 -0.4419  1.0180
 4116TIP3    H233840   5.390   1.350  12.521  0.1225 -0.1375 -0.2592
 4117TIP3   OH233841   5.177   2.800  14.186  0.0939 -0.1535 -0.2349
 4117TIP3    H133842   5.113   2.729  14.182  0.5724 -0.5590 -0.8705
 4117TIP3    H233843   5.245   2.768  14.245 -0.7948  0.7144  1.3141
 4118TIP3   OH233844   6.694   4.213  14.680  0.6174 -0.0454  0.5301
 4118TIP3    H133845   6.745   4.282  14.638  4.2423 -2.3610  0.6717
 4118TIP3    H233846   6.680   4.245  14.769  0.7496  1.1821  0.1314
 4119TIP3   OH233847   2.176   0.667  15.912 -0.0397 -0.2911 -0.1163
 4119TIP3    H133848   2.187   0.746  15.859 -0.2673  0.2661  0.6422
 4119TIP3    H233849   2.083   0.646  15.905  0.0240 -0.5053 -0.3317
 4120TIP3   OH233850   6.429   1.117  16.455 -0.1930 -0.1084 -0.1181
 4120TIP3    H133851   6.511   1.107  16.503  0.1086 -0.1069 -0.6234
 4120TIP3    H233852   6.425   1.211  16.434 -1.0684  0.1710  1.1963
 4121TIP3   OH233853   1.019   2.110   6.390  0.1836 -0.0787  0.5685
 4121TIP3    H133854   0.970   2.137   6.468  1.3071  2.4052  0.5127
 4121TIP3    H233855   0.954   2.110   6.320 -0.4120 -0.2626  1.1088
 4122TIP3   OH233856   5.587   2.334   6.593  0.4773  0.2878 -0.5541
 4122TIP3    H133857   5.620   2.246   6.612  1.3222  1.0506  2.0231
 4122TIP3    H233858   5.662   2.381   6.556  0.1556  0.0766 -1.5021
 4123TIP3   OH233859   0.924   5.849  13.202 -0.1011 -0.3302 -0.0333
 4123TIP3    H133860   1.015   5.850  13.172  0.4235 -0.2585  1.4643
 4123TIP3    H233861   0.928   5.879  13.293 -1.5068 -1.2008  0.3615
 4124TIP3   OH233862   3.453   0.805   0.399  0.0752 -0.4993 -0.4605
 4124TIP3    H133863   3.495   0.749   0.464 -1.1029 -0.3953  0.4273
 4124TIP3    H233864   3.509   0.883   0.395  0.3738 -0.6737  0.1358
 4125TIP3   OH233865   0.552   0.572   4.222  0.4125  0.0617  0.2438
 4125TIP3    H133866   0.594   0.657   4.208 -1.0321  0.9218  0.9062
 4125TIP3    H233867   0.532   0.571   4.316 -1.4978 -0.0819 -0.1348
 4126TIP3   OH233868   1.390   1.906  12.264 -0.0157 -0.3572 -0.5576
 4126TIP3    H133869   1.336   1.931  12.189 -0.1376 -2.8532 -1.4061
 4126TIP3    H233870   1.344   1.941  12.340 -2.5582 -1.8093 -1.2946
 4127TIP3   OH233871   5.548   3.646  11.549  0.3806 -0.0057  0.4297
 4127TIP3    H133872   5.517   3.661  11.459 -0.5455  1.0220  0.8971
 4127TIP3    H233873   5.621   3.585  11.539  1.2625  1.2164 -1.1784
 4128TIP3   OH233874   0.922   2.998   2.558 -0.4080  0.0523  0.5881
 4128TIP3    H133875   0.864   3.073   2.543  0.0629  0.5390  1.1494
 4128TIP3    H233876   1.010   3.034   2.548 -0.1549 -1.0803 -2.2219
 4129TIP3   OH233877   1.624   1.378  15.845 -0.3563  0.3794  0.1578
 4129TIP3    H133878   1.677   1.375  15.766  0.4145  0.8081  0.6447
 4129TIP3    H233879   1.614   1.472  15.863 -1.1410  0.2973  0.1643
 4130TIP3   OH233880   5.890   4.591  14.869  0.4469  0.4442 -0.3729
 4130TIP3    H133881   5.897   4.672  14.818 -0.9840  1.7059  1.3107
 4130TIP3    H233882   5.913   4.617  14.958 -1.3546 -0.6699  0.4746
 4131TIP3   OH233883   3.396   3.255  11.428 -0.1067  0.3127 -0.5052
 4131TIP3    H133884   3.459   3.256  11.501 -0.7173  0.2118  0.0362
 4131TIP3    H233885   3.450   3.266  11.350  0.5280  0.8246 -0.0116
 4132TIP3   OH233886   4.934   2.685  14.922 -0.2554 -0.1636  0.2093
 4132TIP3    H133887   5.017   2.728  14.940 -0.7765  0.4914  1.1140
 4132TIP3    H233888   4.904   2.652  15.006 -2.3073  2.1786  0.5296
 4133TIP3   OH233889   6.413   5.573  11.301 -0.2786 -0.3385  0.2934
 4133TIP3    H133890   6.350   5.555  11.371 -1.9916  2.7918 -0.2399
 4133TIP3    H233891   6.472   5.639  11.339  0.1164 -0.2195 -0.5062
 4134TIP3   OH233892   1.635   5.038  15.054 -0.5092  0.2492 -0.2380
 4134TIP3    H133893   1.644   4.944  15.043  0.7581  0.4693 -1.4478
 4134TIP3    H233894   1.575   5.065  14.984 -0.5358  0.3816 -0.1648
 4135TIP3   OH233895   1.678   2.132   5.611 -0.1141  0.6698 -0.0298
 4135TIP3    H133896   1.633   2.215   5.631 -2.9858 -0.7773  0.0706
 4135TIP3    H233897   1.607   2.072   5.590  1.9200 -1.6857 -0.5407
 4136TIP3   OH233898   1.519   3.091   1.748 -0.1952 -0.0037 -0.0159
 4136TIP3    H133899   1.503   2.999   1.728 -2.9899 -0.1643  2.2019
 4136TIP3    H233900   1.432   3.131   1.746  0.8214  2.3900  0.1034
 4137TIP3   OH233901   0.460   0.079  14.359  0.2311  0.2715 -0.2455
 4137TIP3    H133902   0.467   0.004  14.419 -1.9312 -0.3570 -0.6974
 4137TIP3    H233903   0.495   0.047  14.276  0.4269  0.1562 -0.1188
 4138TIP3   OH233904   4.281   4.157   0.679 -0.2402  0.3776  0.0321
 4138TIP3    H133905   4.339   4.205   0.739 -0.2659  3.3474 -2.1021
 4138TIP3    H233906   4.195   4.160   0.721 -0.1644  1.9912  0.1337
 4139TIP3   OH233907   3.792   2.771  15.532  0.2395  0.1199 -0.3375
 4139TIP3    H133908   3.872   2.749  15.486 -0.1894  1.3927 -1.7560
 4139TIP3    H233909   3.722   2.733  15.479 -0.1231 -2.5306  1.7886
 4140TIP3   OH233910   4.440   1.247   2.004  0.9589  0.5912 -0.3369
 4140TIP3    H133911   4.518   1.215   1.959  0.1346 -0.8594 -0.8086
 4140TIP3    H233912   4.403   1.312   1.943 -0.4265 -1.7181 -2.1102
 4141TIP3   OH233913   3.432   2.132   1.082  0.0297 -0.0765 -0.3543
 4141TIP3    H133914   3.447   2.084   1.163 -2.2571 -1.1771 -0.5143
 4141TIP3    H233915   3.440   2.065   1.013 -2.0318 -0.0410 -0.6780
 4142TIP3   OH233916   3.218   2.201  14.753  0.1791  0.5256  0.3274
 4142TIP3    H133917   3.199   2.111  14.779 -1.8404  0.9873  0.5469
 4142TIP3    H233918   3.212   2.200  14.657  0.9391  0.2758  0.2762
 4143TIP3   OH233919   0.406   2.411   0.376  0.3992 -0.3653  0.1727
 4143TIP3    H133920   0.366   2.498   0.377 -0.0876 -0.5497 -0.9528
 4143TIP3    H233921   0.332   2.351   0.367  0.6842 -0.9503  1.4410
 4144TIP3   OH233922   3.212   0.381  11.468  0.1676 -0.6435 -0.3533
 4144TIP3    H133923   3.179   0.293  11.485  0.5068 -1.0625 -1.7630
 4144TIP3    H233924   3.260   0.373  11.386  0.9509  0.6742 -0.0522
 4145TIP3   OH233925   5.859   4.583   3.721 -0.0912  0.0078 -0.1691
 4145TIP3    H133926   5.883   4.550   3.807 -0.4880  2.3557  0.9306
 4145TIP3    H233927   5.939   4.623   3.686 -0.7053  2.1522  0.7069
 4146TIP3   OH233928   2.721   3.227   4.922 -0.3660  0.2968 -0.2706
 4146TIP3    H133929   2.676   3.143   4.914 -2.7057  1.5851 -1.7815
 4146TIP3    H233930   2.767   3.222   5.006 -2.0399 -1.7727  0.5976
 4147TIP3   OH233931   6.214   4.638   3.475 -0.3200 -0.3180 -0.0463
 4147TIP3    H133932   6.224   4.632   3.569 -0.0779 -0.7307 -0.0985
 4147TIP3    H233933   6.148   4.572   3.453 -2.6990  1.8200  0.1988
 4148TIP3   OH233934   0.933   2.086  16.188 -0.0259  0.5609 -0.1262
 4148TIP3    H133935   0.988   2.108  16.263  1.3116 -0.3273 -0.8010
 4148TIP3    H233936   0.941   1.991  16.180  0.1440  0.6837 -1.6062
 4149TIP3   OH233937   1.846   0.476   4.276 -0.8551 -0.2646  0.3105
 4149TIP3    H133938   1.887   0.390   4.267  3.4271  1.5104  0.4169
 4149TIP3    H233939   1.827   0.485   4.369 -0.1309 -0.6633  0.5053
 4150TIP3   OH233940   0.424   5.005  13.308 -0.4065  0.1540  0.2946
 4150TIP3    H133941   0.355   5.068  13.328  0.5564  0.3204  3.9602
 4150TIP3    H233942   0.502   5.058  13.293  0.4783  0.0984  3.6966
 4151TIP3   OH233943   3.017   3.560  11.791 -0.7157  0.1181 -0.3492
 4151TIP3    H133944   3.070   3.569  11.870 -1.0354 -0.0927 -0.1115
 4151TIP3    H233945   2.929   3.585  11.818 -0.6206  1.1004 -0.8994
 4152TIP3   OH233946   4.900   6.481  11.631  0.1772  0.2820 -0.9352
 4152TIP3    H133947   4.954   6.511  11.704 -1.3265  1.9841 -0.4449
 4152TIP3    H233948   4.825   6.540  11.630 -1.4692 -1.6758 -1.8768
 4153TIP3   OH233949   2.374   0.077   0.704 -0.0194  0.2939  0.5797
 4153TIP3    H133950   2.334   0.001   0.661 -1.6733 -0.2686  2.9091
 4153TIP3    H233951   2.453   0.095   0.653 -1.3128 -0.8999 -2.0177
 4154TIP3   OH233952   5.173   3.850  14.587  0.3252  0.3114  0.4635
 4154TIP3    H133953   5.145   3.774  14.537  2.7575 -0.8975  0.7542
 4154TIP3    H233954   5.109   3.858  14.657 -1.7497  0.5247 -1.3402
 4155TIP3   OH233955   2.150   2.655   3.019  0.0610  0.2203 -0.5450
 4155TIP3    H133956   2.075   2.612   2.978  0.6654 -0.3344 -1.0988
 4155TIP3    H233957   2.224   2.632   2.963  1.1181 -1.4643  1.4140
 4156TIP3   OH233958   0.096   6.668  11.359  0.2018 -0.3275 -0.6537
 4156TIP3    H133959   0.124   6.577  11.359  3.4849  0.5596  0.5561
 4156TIP3    H233960   0.159   6.713  11.303  1.7286  1.8953  2.5400
 4157TIP3   OH233961   6.677   5.290   2.775  0.1191  0.2985 -0.7590
 4157TIP3    H133962   6.665   5.263   2.684 -1.5331 -1.1825 -0.1496
 4157TIP3    H233963   6.652   5.383   2.775 -0.6011  0.1248 -1.6812
 4158TIP3   OH233964   5.621   5.237  16.048 -0.1235  0.2025  0.5538
 4158TIP3    H133965   5.653   5.156  16.010  0.6941  1.2458 -1.0971
 4158TIP3    H233966   5.669   5.246  16.130  1.6744  0.2537 -0.4630
 4159TIP3   OH233967   3.361   6.237   4.703 -0.3507  0.3725 -0.3249
 4159TIP3    H133968   3.366   6.329   4.676 -0.9698  0.2659 -0.8413
 4159TIP3    H233969   3.417   6.231   4.779  0.2640  1.0258 -0.7165
 4160TIP3   OH233970   4.736   6.210   4.017 -0.2375 -0.9137  0.1431
 4160TIP3    H133971   4.760   6.303   4.022  1.9342 -1.3320 -1.1835
 4160TIP3    H233972   4.741   6.189   3.923 -4.1502 -1.6247 -0.1097
 4161TIP3   OH233973   1.267   5.131   2.533  0.4648 -0.4713  0.0764
 4161TIP3    H133974   1.357   5.147   2.561  0.6853  1.8854 -1.6022
 4161TIP3    H233975   1.216   5.200   2.576 -0.3758 -1.2288  0.3054
 4162TIP3   OH233976   2.978   6.357  11.626 -0.0323  0.1545  0.6360
 4162TIP3    H133977   2.911   6.311  11.575  1.5291 -0.8730 -0.5853
 4162TIP3    H233978   3.012   6.292  11.686 -0.1438  0.6859  1.2817
 4163TIP3   OH233979   5.216   2.215  11.892  0.1698  0.2172  0.9255
 4163TIP3    H133980   5.192   2.280  11.958 -1.7807 -0.3607  0.8506
 4163TIP3    H233981   5.233   2.266  11.813  1.4520  0.8220  1.5588
 4164TIP3   OH233982   1.570   0.724  10.414  0.7107  0.3435 -0.2971
 4164TIP3    H133983   1.480   0.728  10.383  0.4923  4.4503  0.3068
 4164TIP3    H233984   1.623   0.734  10.335  0.6105 -0.5418 -0.4849
 4165TIP3   OH233985   6.569   3.473  13.342 -0.1960  0.4903 -0.4007
 4165TIP3    H133986   6.521   3.462  13.259  0.4733 -1.4621 -0.5742
 4165TIP3    H233987   6.547   3.395  13.393  2.8810 -0.5906 -0.5673
 4166TIP3   OH233988   5.018   0.900  15.775  0.0890 -0.0424 -0.5335
 4166TIP3    H133989   5.106   0.919  15.743 -0.1174  1.6724 -0.1625
 4166TIP3    H233990   5.026   0.814  15.818  1.3841 -0.2675 -1.1767
 4167TIP3   OH233991   4.289   4.868  13.253  0.3122 -0.0309 -0.7068
 4167TIP3    H133992   4.261   4.886  13.343  0.7469  0.1857 -0.6094
 4167TIP3    H233993   4.382   4.848  13.261  0.1728 -0.8598 -1.0053
 4168TIP3   OH233994   2.501   4.848  15.098  0.3457 -0.1605 -0.2742
 4168TIP3    H133995   2.513   4.885  15.011 -0.7019  2.6772  0.6695
 4168TIP3    H233996   2.416   4.805  15.094  0.5796 -0.5794 -0.8043
 4169TIP3   OH233997   3.766   0.718   4.986  0.1355  0.1626  0.5807
 4169TIP3    H133998   3.856   0.749   4.986 -0.3046  1.5293  0.1821
 4169TIP3    H233999   3.718   0.785   5.035 -0.6423 -0.6075  0.8903
 4170TIP3   OH234000   3.346   4.548  12.395  0.2135 -0.1485 -0.1342
 4170TIP3    H134001   3.379   4.465  12.430  1.2743  1.2914  2.6094
 4170TIP3    H234002   3.425   4.600  12.379 -0.3785  2.3117  3.7508
 4171TIP3   OH234003   2.554   0.071   1.657  0.5083 -0.2437 -0.7686
 4171TIP3    H134004   2.533  -0.022   1.659  0.6675 -0.2779 -0.6655
 4171TIP3    H234005   2.566   0.091   1.564 -1.2301  0.0652 -0.9650
 4172TIP3   OH234006   2.572   2.921  15.415 -0.2511 -0.4677  0.4366
 4172TIP3    H134007   2.620   2.838  15.408  1.5761  0.6505 -1.1116
 4172TIP3    H234008   2.527   2.930  15.332 -0.8409 -0.1146  0.7860
 4173TIP3   OH234009   5.870   3.288  13.093 -0.1586  0.0915 -0.1179
 4173TIP3    H134010   5.778   3.269  13.080  0.2039 -3.5058  1.3058
 4173TIP3    H234011   5.916   3.219  13.045  1.5213 -1.2999  3.1361
 4174TIP3   OH234012   5.357   5.471  11.257  0.2307  0.0139  0.5311
 4174TIP3    H134013   5.319   5.558  11.271  0.4419 -0.0225  1.4004
 4174TIP3    H234014   5.450   5.486  11.244  0.5357 -0.1764  2.2382
 4175TIP3   OH234015   0.209   0.762  16.691  0.1364  0.5726 -0.9798
 4175TIP3    H134016   0.187   0.673  16.666 -1.1178  0.9461 -1.2453
 4175TIP3    H234017   0.125   0.804  16.710  0.7968  1.2311  0.7681
 4176TIP3   OH234018   2.048   2.527  16.779  0.2533  0.2984 -0.0977
 4176TIP3    H134019   2.087   2.607  16.815 -1.6731  0.5880  1.5353
 4176TIP3    H234020   2.007   2.484  16.855 -1.0046 -0.8883 -1.3862
 4177TIP3   OH234021   0.097   4.653   2.739  0.4055  0.4877  0.0553
 4177TIP3    H134022   0.172   4.659   2.680  2.2177 -0.2276  2.1394
 4177TIP3    H234023   0.135   4.634   2.825 -2.2358 -1.1174  1.0167
 4178TIP3   OH234024   0.769   1.163   2.008 -0.0340 -0.3022 -0.3731
 4178TIP3    H134025   0.859   1.190   2.030 -0.6346  0.2027  1.7227
 4178TIP3    H234026   0.780   1.092   1.945  1.7809  0.7157 -1.2959
 4179TIP3   OH234027   1.156   0.494   4.668 -0.3511  0.0784  0.5033
 4179TIP3    H134028   1.200   0.443   4.600  0.1189 -0.2587  1.0435
 4179TIP3    H234029   1.126   0.429   4.731 -0.2700  0.4201  0.9050
 4180TIP3   OH234030   1.812   1.506   0.897  0.0961  0.3192 -0.2126
 4180TIP3    H134031   1.868   1.514   0.974  0.9603 -1.8589 -0.5428
 4180TIP3    H234032   1.854   1.560   0.830  0.9250 -0.0374  0.0165
 4181TIP3   OH234033   0.878   2.749  13.573 -0.1779  0.1451 -1.0507
 4181TIP3    H134034   0.816   2.762  13.501  0.1273 -1.6170 -1.6837
 4181TIP3    H234035   0.964   2.763  13.533 -0.0823  1.5174 -0.4273
 4182TIP3   OH234036   0.762   0.245   3.603 -0.2784 -0.3265 -0.7361
 4182TIP3    H134037   0.788   0.156   3.626  1.5769  0.0058 -1.4422
 4182TIP3    H234038   0.770   0.249   3.508 -2.9853 -0.1730 -1.0322
 4183TIP3   OH234039   5.814   3.561   3.896  0.2370  0.0377  0.0709
 4183TIP3    H134040   5.790   3.645   3.936  1.7482  0.4355  0.1916
 4183TIP3    H234041   5.903   3.574   3.865  0.7424 -1.7393  0.6723
 4184TIP3   OH234042   5.669   4.672  11.258  0.0035 -0.4126  0.0150
 4184TIP3    H134043   5.716   4.635  11.183  0.9130 -0.4546  0.5919
 4184TIP3    H234044   5.738   4.705  11.316 -0.6881 -0.3341  0.8098
 4185TIP3   OH234045   5.382   5.278  16.403  0.3561 -0.4343  0.1169
 4185TIP3    H134046   5.300   5.299  16.449  0.5945 -2.1888  1.4522
 4185TIP3    H234047   5.387   5.342  16.333 -1.7659  0.2177  0.4874
 4186TIP3   OH234048   2.685   1.545  11.320 -0.1025 -0.3315 -0.4541
 4186TIP3    H134049   2.738   1.487  11.266  0.6719 -1.5336  1.4923
 4186TIP3    H234050   2.747   1.611  11.353 -0.4519  0.0529 -0.5534
 4187TIP3   OH234051   5.341   2.705  14.392  0.3494 -0.2723 -0.4876
 4187TIP3    H134052   5.428   2.723  14.358  0.9943 -1.4137  0.4984
 4187TIP3    H234053   5.340   2.611  14.409 -0.7608 -0.1361  0.3568
 4188TIP3   OH234054   2.756   3.561  14.360 -0.0087 -0.0132 -0.3862
 4188TIP3    H134055   2.777   3.511  14.439  0.0862 -0.8858 -0.9462
 4188TIP3    H234056   2.820   3.632  14.359 -1.6715  1.6251  1.7152
 4189TIP3   OH234057   0.352   4.266  16.181  0.1177 -0.5613  0.1017
 4189TIP3    H134058   0.337   4.333  16.248 -0.1077 -0.4868 -0.0205
 4189TIP3    H234059   0.395   4.194  16.227 -1.0255 -0.9656  0.5660
 4190TIP3   OH234060   5.089   2.853  12.922  0.0653  0.0984 -0.1262
 4190TIP3    H134061   5.148   2.901  12.981  0.0493  2.5091 -1.9270
 4190TIP3    H234062   5.127   2.866  12.835 -1.7119 -0.5193 -1.0330
 4191TIP3   OH234063   5.917   4.382  13.784 -0.4689 -0.5871  0.2382
 4191TIP3    H134064   5.922   4.335  13.867 -0.5052 -0.2556  0.4299
 4191TIP3    H234065   6.004   4.374  13.747 -0.6197 -1.2597  0.0151
 4192TIP3   OH234066   1.404   4.740   6.422 -0.2213  0.0382  0.4194
 4192TIP3    H134067   1.490   4.704   6.403  0.0457  0.3880  0.9350
 4192TIP3    H234068   1.405   4.756   6.517 -0.8403  0.0718  0.4263
 4193TIP3   OH234069   5.643   1.051   0.688  0.4465  0.3548  0.2162
 4193TIP3    H134070   5.716   0.994   0.712 -0.5883 -0.7001  0.9914
 4193TIP3    H234071   5.574   0.991   0.658 -0.2025  1.3012 -0.2500
 4194TIP3   OH234072   4.278   3.602   5.695 -0.3620  0.1030  0.2944
 4194TIP3    H134073   4.240   3.682   5.660  0.3959  0.0392 -0.7129
 4194TIP3    H234074   4.372   3.621   5.701 -0.5539  0.6634  3.7586
 4195TIP3   OH234075   5.706   5.496  16.978  0.0555 -0.1093 -0.0782
 4195TIP3    H134076   5.650   5.496  16.901 -0.5199  0.4806  0.3295
 4195TIP3    H234077   5.696   5.409  17.016  0.0078 -0.2582 -0.4295
 4196TIP3   OH234078   1.560   0.123   3.755 -0.0283  0.3931  0.0659
 4196TIP3    H134079   1.615   0.177   3.699 -1.3242  0.0288 -1.6384
 4196TIP3    H234080   1.498   0.185   3.794  1.0791  0.6948  1.4051
 4197TIP3   OH234081   3.848   5.979   3.468 -0.3555  0.1141  0.5496
 4197TIP3    H134082   3.826   5.950   3.557 -1.3187  0.6322  0.4947
 4197TIP3    H234083   3.937   6.012   3.475 -0.4229  0.1457  1.3251
 4198TIP3   OH234084   6.406   3.014  13.954  0.0845  0.4948 -0.2578
 4198TIP3    H134085   6.474   2.955  13.920 -2.7329 -1.5256 -3.0242
 4198TIP3    H234086   6.374   3.061  13.877 -2.9980 -0.2643  0.3866
 4199TIP3   OH234087   4.153   5.383   1.006  0.1887  0.3950 -0.1280
 4199TIP3    H134088   4.192   5.463   1.041 -0.4447  0.4597  0.4701
 4199TIP3    H234089   4.210   5.357   0.934  1.4138  0.3866  0.8159
 4200TIP3   OH234090   3.668   2.096   2.757 -0.0205 -0.5106 -0.6674
 4200TIP3    H134091   3.623   2.101   2.841 -0.7490 -0.0559 -1.0707
 4200TIP3    H234092   3.741   2.158   2.765  0.8454 -1.6029  0.1554
 4201TIP3   OH234093   0.192   5.128   4.147  0.0365 -0.3279  0.1908
 4201TIP3    H134094   0.244   5.176   4.082 -0.5966  0.1163 -0.0013
 4201TIP3    H234095   0.129   5.078   4.094 -1.4276  1.1331  0.4771
 4202TIP3   OH234096   1.840   0.107  15.386  0.1708  0.0429 -0.1423
 4202TIP3    H134097   1.843   0.136  15.477 -0.8746 -2.2418  0.7141
 4202TIP3    H234098   1.919   0.054  15.375  1.3603  1.9631 -1.2496
 4203TIP3   OH234099   5.086   1.662   6.109 -0.2825  0.4140  0.4207
 4203TIP3    H134100   4.993   1.652   6.130 -0.1946 -1.4447  0.0777
 4203TIP3    H234101   5.124   1.576   6.126  1.4544  1.2262  0.8635
 4204TIP3   OH234102   2.595   4.797   1.257  0.3194  0.5727  0.3245
 4204TIP3    H134103   2.615   4.819   1.166 -1.2682  2.4867  0.3752
 4204TIP3    H234104   2.629   4.871   1.308  0.9716 -0.3570  1.3111
 4205TIP3   OH234105   0.804   3.531  13.326 -0.1468  0.0935 -0.0709
 4205TIP3    H134106   0.789   3.522  13.420  1.0495 -2.5585 -0.0283
 4205TIP3    H234107   0.899   3.536  13.317 -0.2816  1.4574 -1.1132
 4206TIP3   OH234108   1.825   1.307  16.317  0.2306 -0.4314  0.2928
 4206TIP3    H134109   1.856   1.378  16.373  0.3327 -1.1110  1.1301
 4206TIP3    H234110   1.848   1.334  16.228  1.9288 -0.2435  0.7500
 4207TIP3   OH234111   0.130   3.177   5.045 -0.0423  0.3145  0.4761
 4207TIP3    H134112   0.216   3.196   5.008  0.1281  0.3627  0.8968
 4207TIP3    H234113   0.088   3.263   5.053 -0.0683  0.3066  0.4290
 4208TIP3   OH234114   2.233   2.699   1.840 -0.3805  0.0837 -0.0548
 4208TIP3    H134115   2.261   2.653   1.761  0.5680  1.7689 -0.7617
 4208TIP3    H234116   2.299   2.677   1.906  0.1752  0.5326 -0.4443
 4209TIP3   OH234117   3.944   3.094  14.969 -0.4631 -0.3060  0.2692
 4209TIP3    H134118   3.912   3.021  15.023  2.1929 -0.7576  1.4047
 4209TIP3    H234119   3.905   3.172  15.007  1.5029 -0.5805  3.1772
 4210TIP3   OH234120   2.530   4.474   7.002  0.2221 -0.3357 -0.0669
 4210TIP3    H134121   2.462   4.536   7.027  1.2583  0.3467  1.1415
 4210TIP3    H234122   2.483   4.391   6.989 -0.9044  0.2464  0.1561
 4211TIP3   OH234123   1.679   6.347  12.257  0.0428  0.4655 -0.3529
 4211TIP3    H134124   1.728   6.429  12.249  0.8931 -0.0093 -0.1775
 4211TIP3    H234125   1.692   6.304  12.173 -2.7305  1.7127 -1.5423
 4212TIP3   OH234126   1.591   5.662  11.254 -0.4832 -0.0123 -0.0750
 4212TIP3    H134127   1.649   5.609  11.309 -2.9786 -3.2014 -0.2594
 4212TIP3    H234128   1.544   5.717  11.316  0.2334  0.0524  0.4241
 4213TIP3   OH234129   5.968   6.416   0.750  0.0353 -0.2800  0.2653
 4213TIP3    H134130   6.060   6.392   0.739 -0.8510 -3.1607 -2.4893
 4213TIP3    H234131   5.957   6.495   0.698  0.9790  0.2791  0.8851
 4214TIP3   OH234132   3.126   0.198   6.177 -0.1533  0.0139 -0.1826
 4214TIP3    H134133   3.180   0.120   6.191 -0.4640 -0.2788 -0.6239
 4214TIP3    H234134   3.049   0.166   6.131  0.8008  0.9178 -2.6002
 4215TIP3   OH234135   5.979   1.703  13.830  0.5790 -0.0968  0.3482
 4215TIP3    H134136   5.891   1.693  13.792  0.8486 -0.4226 -0.1921
 4215TIP3    H234137   5.962   1.725  13.922 -0.0760 -2.5384  0.8780
 4216TIP3   OH234138   4.597   6.163   1.947  0.2956  0.0915  0.1652
 4216TIP3    H134139   4.502   6.162   1.960  0.5083  0.5001  1.9382
 4216TIP3    H234140   4.623   6.071   1.955  0.1194  0.0411  0.1715
 4217TIP3   OH234141   0.559   4.041  17.112  0.6921 -0.3788  0.8175
 4217TIP3    H134142   0.507   4.036  17.032  0.7271 -0.3663  0.7942
 4217TIP3    H234143   0.505   4.092  17.172  1.2476  0.7663  0.3677
 4218TIP3   OH234144   5.738   3.462   0.386 -0.3094  0.3383 -0.5806
 4218TIP3    H134145   5.744   3.551   0.350 -1.5147  0.2896 -0.9578
 4218TIP3    H234146   5.653   3.430   0.356  0.7047 -1.4914 -1.6782
 4219TIP3   OH234147   0.084   2.441   1.451 -0.3892  0.0384 -0.1958
 4219TIP3    H134148   0.132   2.518   1.482 -0.1148 -0.7154  1.3095
 4219TIP3    H234149   0.131   2.414   1.372  1.6091 -0.5935  1.1493
 4220TIP3   OH234150   1.075   5.622   6.091  0.2315  0.1750  0.0046
 4220TIP3    H134151   1.030   5.540   6.070  1.4633 -0.6861  0.5853
 4220TIP3    H234152   1.106   5.610   6.181 -0.7202  1.8353  0.6112
 4221TIP3   OH234153   5.852   2.771   4.626 -0.3452  0.1546 -0.1723
 4221TIP3    H134154   5.780   2.747   4.567  0.3560 -0.4696 -0.7792
 4221TIP3    H234155   5.809   2.783   4.711 -0.8792 -2.6489  0.0707
 4222TIP3   OH234156   2.258   6.530   4.541  0.0352  0.3552  0.5157
 4222TIP3    H134157   2.257   6.544   4.446  0.5842 -0.9791  0.2869
 4222TIP3    H234158   2.313   6.600   4.575 -0.5995  1.1677 -0.0764
 4223TIP3   OH234159   5.776   2.613  15.448 -0.0342  0.4608  0.1373
 4223TIP3    H134160   5.867   2.586  15.434  0.2131  1.8558 -1.2387
 4223TIP3    H234161   5.756   2.669  15.373 -2.6575 -1.3513 -0.6589
 4224TIP3   OH234162   3.710   5.130   3.398 -0.7069  0.1077  0.0462
 4224TIP3    H134163   3.695   5.225   3.405 -0.2767  0.1672  0.1322
 4224TIP3    H234164   3.748   5.119   3.311 -0.8442  0.0010 -0.0007
 4225TIP3   OH234165   1.558   2.182  13.562  0.3112  0.1184 -0.1254
 4225TIP3    H134166   1.596   2.101  13.528 -1.4577 -1.5019  1.4718
 4225TIP3    H234167   1.493   2.208  13.496 -0.1102 -0.5950 -0.0028
 4226TIP3   OH234168   3.970   1.419  17.042 -0.1363 -0.2426  0.5965
 4226TIP3    H134169   3.892   1.458  17.003  0.0937  1.4496  1.7366
 4226TIP3    H234170   3.977   1.333  17.001 -1.2580  0.4997 -1.2713
 4227TIP3   OH234171   2.440   5.816   2.834 -0.0083 -0.2761  0.2683
 4227TIP3    H134172   2.359   5.772   2.858 -0.6339  0.0122 -1.1709
 4227TIP3    H234173   2.413   5.906   2.815  0.7587 -0.0123  0.3975
 4228TIP3   OH234174   1.497   4.325   0.299 -0.1318 -0.3748 -0.4581
 4228TIP3    H134175   1.475   4.339   0.391  0.1324 -1.7131 -0.1686
 4228TIP3    H234176   1.541   4.406   0.272 -0.1874  0.0204  0.6014
 4229TIP3   OH234177   3.017   1.495  13.287 -0.4334  0.1220  0.3363
 4229TIP3    H134178   2.945   1.436  13.308  0.6444 -1.5875 -0.5058
 4229TIP3    H234179   3.069   1.501  13.367 -0.7131  0.1535  0.5120
 4230TIP3   OH234180   4.555   2.074   3.258  0.5441  0.8034 -0.6683
 4230TIP3    H134181   4.493   2.047   3.190  0.5332  1.9438 -1.1399
 4230TIP3    H234182   4.531   2.165   3.277 -1.7097 -0.4045  3.3647
 4231TIP3   OH234183   2.969   1.128   5.027 -0.2925 -0.2983  0.0952
 4231TIP3    H134184   3.003   1.081   4.950 -1.2927 -1.6086  0.4024
 4231TIP3    H234185   2.884   1.087   5.043 -1.3298  1.8138  0.2812
 4232TIP3   OH234186   1.451   5.648   1.667 -0.2012  0.3016 -0.8447
 4232TIP3    H134187   1.535   5.648   1.712 -1.4580  0.9622  1.6423
 4232TIP3    H234188   1.438   5.739   1.640 -0.1112  0.1786 -1.3245
 4233TIP3   OH234189   2.818   1.767  15.545  0.3889 -0.0306 -0.6873
 4233TIP3    H134190   2.808   1.776  15.640  1.0819  1.7573 -0.7338
 4233TIP3    H234191   2.913   1.758  15.532  0.4882  1.5979 -1.2957
 4234TIP3   OH234192   4.769   6.358  10.527  0.6045 -0.1200  0.2054
 4234TIP3    H134193   4.701   6.345  10.593  1.4227 -0.1504  1.0605
 4234TIP3    H234194   4.732   6.422  10.466 -1.0799 -1.8011 -0.6338
 4235TIP3   OH234195   1.763   0.716   1.022 -0.2607 -0.3524 -0.1125
 4235TIP3    H134196   1.688   0.660   1.042 -0.3815 -0.3192 -0.4679
 4235TIP3    H234197   1.793   0.748   1.107  0.6246 -2.0058  0.2319
 4236TIP3   OH234198   6.227   2.916   5.331  0.0986  0.6205 -0.1932
 4236TIP3    H134199   6.228   2.894   5.238  1.6523  0.0483 -0.0648
 4236TIP3    H234200   6.155   2.865   5.367  0.2037 -0.0330 -0.8809
 4237TIP3   OH234201   3.685   6.511  16.297 -0.4339 -0.0791 -0.3105
 4237TIP3    H134202   3.719   6.541  16.213  0.8421  2.3295  0.9471
 4237TIP3    H234203   3.722   6.423  16.308  3.5477  1.3841 -0.2034
 4238TIP3   OH234204   2.279   2.828  14.264  0.3654  0.1671  0.6680
 4238TIP3    H134205   2.244   2.775  14.335 -0.6322  0.9087  0.7496
 4238TIP3    H234206   2.367   2.851  14.293  0.2670 -0.2233  1.2902
 4239TIP3   OH234207   6.751   2.026   4.407  0.5143  0.2741  0.0081
 4239TIP3    H134208   6.657   2.018   4.424  0.4047 -1.7455 -1.2899
 4239TIP3    H234209   6.792   1.980   4.481  0.5963  2.2651  1.2730
 4240TIP3   OH234210   5.389   3.001  14.214  0.0945 -0.1917 -0.3246
 4240TIP3    H134211   5.428   2.915  14.230  0.1959 -0.1004 -0.0707
 4240TIP3    H234212   5.454   3.063  14.247  0.6712  0.0408 -1.8375
 4241TIP3   OH234213   4.879   2.322  12.011  0.4129  0.3698 -0.1643
 4241TIP3    H134214   4.893   2.308  11.918  0.9757  0.2487 -0.0643
 4241TIP3    H234215   4.893   2.236  12.051  0.8786  0.5619  0.1058
 4242TIP3   OH234216   2.576   1.845  12.574 -0.5726 -0.4163 -0.1220
 4242TIP3    H134217   2.510   1.874  12.512 -0.9255  0.8173  0.7865
 4242TIP3    H234218   2.554   1.889  12.656  0.1123 -1.6738  0.7948
 4243TIP3   OH234219   0.098   5.013   1.233 -0.1067 -0.2564 -0.0295
 4243TIP3    H134220   0.162   4.955   1.191 -1.5039 -1.9071  0.0163
 4243TIP3    H234221   0.067   4.964   1.309 -1.5394  0.4184 -0.1377
 4244TIP3   OH234222   2.918   1.687  11.381  0.3252 -0.7127 -0.7191
 4244TIP3    H134223   2.994   1.630  11.366  2.5446  1.9977 -0.5518
 4244TIP3    H234224   2.919   1.702  11.476  0.8277  0.8774 -0.9510
 4245TIP3   OH234225   4.871   6.569  14.097 -1.0285 -0.0464 -0.2081
 4245TIP3    H134226   4.883   6.664  14.099 -0.6163 -0.1134  1.4749
 4245TIP3    H234227   4.859   6.549  14.004  2.5540  1.2064 -1.1292
 4246TIP3   OH234228   5.189   0.806   4.215  0.0814  0.3145 -0.2367
 4246TIP3    H134229   5.121   0.817   4.149 -0.6802  0.3131  0.5304
 4246TIP3    H234230   5.142   0.790   4.296  1.0157 -1.8191 -0.0415
 4247TIP3   OH234231   1.552   5.557  16.327 -0.4225  0.4813  0.8941
 4247TIP3    H134232   1.535   5.624  16.261  2.0117  2.6314  2.2635
 4247TIP3    H234233   1.468   5.543  16.370 -1.3101  1.5193 -0.4184
 4248TIP3   OH234234   1.946   5.400   4.553  0.4063  0.1092  0.0409
 4248TIP3    H134235   1.853   5.411   4.574  0.2753  1.7253 -1.1937
 4248TIP3    H234236   1.992   5.457   4.616  0.5020 -0.0621  0.1273
 4249TIP3   OH234237   2.800   1.528  11.914  0.0609  0.4041  0.1307
 4249TIP3    H134238   2.725   1.540  11.972  0.0053  1.4562 -0.1501
 4249TIP3    H234239   2.829   1.438  11.932 -0.0094  0.6642  1.7110
 4250TIP3   OH234240   5.186   6.712   5.895  0.1080 -0.2109  0.6675
 4250TIP3    H134241   5.138   6.655   5.955  0.6637 -1.2075  0.1993
 4250TIP3    H234242   5.278   6.690   5.911  0.2865 -0.0715 -0.1335
 4251TIP3   OH234243   1.527   2.471  14.590 -0.0993 -0.7527  0.1712
 4251TIP3    H134244   1.532   2.426  14.506  0.9954 -1.2024  0.4673
 4251TIP3    H234245   1.504   2.403  14.653 -3.2734 -0.0442 -0.0324
 4252TIP3   OH234246   2.941   0.120   1.784  0.0958  0.2316 -0.0395
 4252TIP3    H134247   2.992   0.056   1.833  1.1677  0.8575 -0.3088
 4252TIP3    H234248   2.912   0.183   1.849 -1.6933 -0.9359  0.3738
 4253TIP3   OH234249   0.217   2.014   3.586  0.2098  0.6399  0.2248
 4253TIP3    H134250   0.196   2.041   3.496 -0.8161  0.4119  0.3818
 4253TIP3    H234251   0.139   1.967   3.615  0.9139 -0.1347  0.9021
 4254TIP3   OH234252   1.210   2.306  15.365 -0.3089 -0.2665  0.3309
 4254TIP3    H134253   1.159   2.325  15.443 -1.0765 -1.2526  0.0867
 4254TIP3    H234254   1.300   2.328  15.390 -0.5573 -0.4397  1.4466
 4255TIP3   OH234255   5.828   4.695   0.088 -0.3720  0.5594  0.8619
 4255TIP3    H134256   5.771   4.735   0.154 -1.3514 -0.9528  0.9963
 4255TIP3    H234257   5.780   4.616   0.061  1.2225 -0.2388  0.2618
 4256TIP3   OH234258   4.993   3.400   0.414 -0.5299  0.5390 -0.4232
 4256TIP3    H134259   5.029   3.318   0.379 -1.8647 -0.1881 -0.1647
 4256TIP3    H234260   4.919   3.420   0.357 -1.4516  0.4595  0.6902
 4257TIP3   OH234261   1.399   5.523   2.437 -0.3919 -0.1350 -0.0003
 4257TIP3    H134262   1.368   5.456   2.377 -1.5826  1.1091 -0.8380
 4257TIP3    H234263   1.484   5.550   2.401 -1.1399  0.6675 -1.2194
 4258TIP3   OH234264   3.972   4.533   0.193 -0.0271 -0.1026  0.1769
 4258TIP3    H134265   4.045   4.550   0.133  0.9948 -0.5478  1.2672
 4258TIP3    H234266   3.901   4.505   0.135  0.9987 -0.7355 -0.8257
 4259TIP3   OH234267   2.083   1.229   2.591 -0.1880 -0.3142 -0.2409
 4259TIP3    H134268   1.990   1.205   2.586  0.2081 -1.9981 -0.0724
 4259TIP3    H234269   2.084   1.310   2.641 -1.5054 -0.7736  0.5787
 4260TIP3   OH234270   3.345   5.705  12.159 -0.3534  0.1901 -0.8406
 4260TIP3    H134271   3.405   5.640  12.197 -2.3383 -0.6938  1.0061
 4260TIP3    H234272   3.314   5.755  12.235 -0.7787  1.6609 -1.9462
 4261TIP3   OH234273   4.265   5.072   2.302 -0.6758 -0.7369 -0.2366
 4261TIP3    H134274   4.223   5.073   2.387  0.3914 -2.3032  0.3514
 4261TIP3    H234275   4.193   5.083   2.239 -1.5219 -0.0173  0.8243
 4262TIP3   OH234276   0.760   3.653   6.688 -0.7170 -0.0941  1.0250
 4262TIP3    H134277   0.829   3.665   6.754  0.3206 -0.3101  0.0239
 4262TIP3    H234278   0.706   3.731   6.695 -0.0760  0.3144  1.5165
 4263TIP3   OH234279   0.170   6.457  13.196 -0.4190 -0.0994 -0.5245
 4263TIP3    H134280   0.238   6.463  13.264 -0.6038  0.9527 -0.4267
 4263TIP3    H234281   0.169   6.543  13.155  0.1536 -0.9109 -2.3432
 4264TIP3   OH234282   1.959   6.006  12.666 -0.6011 -0.3969  0.5925
 4264TIP3    H134283   2.024   6.065  12.703 -2.8275  1.3656  2.0014
 4264TIP3    H234284   1.956   6.027  12.573 -0.4488  0.8270  0.8515
 4265TIP3   OH234285   4.863   1.726  16.176 -0.1209  0.1876 -0.3109
 4265TIP3    H134286   4.853   1.707  16.269 -1.7961  0.1081 -0.4827
 4265TIP3    H234287   4.949   1.769  16.170 -0.2405  0.7477  1.3496
 4266TIP3   OH234288   1.099   2.863  17.082 -0.3188 -0.0572  0.0443
 4266TIP3    H134289   1.079   2.811  17.004  1.0534  1.5187 -1.4217
 4266TIP3    H234290   1.129   2.947  17.049  0.3732  0.6610  2.2853
 4267TIP3   OH234291   2.571   1.376  14.043  0.0756 -0.1493 -0.3904
 4267TIP3    H134292   2.513   1.449  14.066 -0.0369 -0.2339 -0.4080
 4267TIP3    H234293   2.539   1.303  14.096 -2.2445 -1.2854 -3.1146
 4268TIP3   OH234294   0.164   0.894  11.165 -0.0980  0.4188  0.0949
 4268TIP3    H134295   0.203   0.808  11.182 -0.8195 -0.1188 -0.8914
 4268TIP3    H234296   0.237   0.947  11.133  0.7401  0.7271  2.3154
 4269TIP3   OH234297   5.189   6.160  17.025  0.1311 -0.0262  0.1804
 4269TIP3    H134298   5.202   6.244  16.982  0.0813 -0.9755 -1.7844
 4269TIP3    H234299   5.231   6.096  16.967 -2.6798 -1.7499 -0.1752
 4270TIP3   OH234300   3.300   2.822  17.018  0.2927  0.0326 -0.1494
 4270TIP3    H134301   3.367   2.797  16.954  0.7678  0.3915  0.2057
 4270TIP3    H234302   3.234   2.753  17.010 -0.1502  0.5862 -1.7455
 4271TIP3   OH234303   1.407   2.682   0.021  0.0220 -0.2735 -0.4803
 4271TIP3    H134304   1.323   2.648   0.052  0.1887  0.8862  1.3864
 4271TIP3    H234305   1.416   2.767   0.064  2.0830 -0.3141 -0.7333
 4272TIP3   OH234306   2.768   0.475  15.107  0.3481 -0.6751 -0.4100
 4272TIP3    H134307   2.757   0.400  15.048 -1.6466 -1.2036  0.5284
 4272TIP3    H234308   2.860   0.472  15.133  0.6948 -1.8172 -1.6791
 4273TIP3   OH234309   1.414   6.441   0.062 -0.1522  0.6852 -0.1087
 4273TIP3    H134310   1.452   6.354   0.049  0.7054  1.0089  0.1117
 4273TIP3    H234311   1.397   6.472  -0.027 -1.1023  0.0328 -0.1692
 4274TIP3   OH234312   3.531   1.283  14.223 -0.0207 -0.0559 -0.4339
 4274TIP3    H134313   3.600   1.244  14.277 -0.4274  0.7598  0.7030
 4274TIP3    H234314   3.553   1.376  14.219 -1.8429  0.5206  1.2463
 4275TIP3   OH234315   0.759   3.211   5.049  0.5678 -0.7778  0.2677
 4275TIP3    H134316   0.696   3.199   4.978 -1.0269 -2.3333  1.8524
 4275TIP3    H234317   0.819   3.136   5.041  2.1345  0.5384 -1.0550
 4276TIP3   OH234318   3.647   0.485  14.996 -0.6879  0.2659  0.1647
 4276TIP3    H134319   3.580   0.530  15.048  0.5007  1.7495  0.4734
 4276TIP3    H234320   3.652   0.535  14.914 -1.1444 -0.8694 -0.5855
 4277TIP3   OH234321   6.757   3.849   2.452 -0.1185  0.0869 -0.8435
 4277TIP3    H134322   6.814   3.879   2.381  0.4390  1.5554  0.1804
 4277TIP3    H234323   6.737   3.928   2.503 -1.6974 -0.6790 -0.1832
 4278TIP3   OH234324   5.188   1.362  11.054  0.2796 -0.2250  0.0463
 4278TIP3    H134325   5.160   1.358  10.963 -1.3965  1.2657  0.4562
 4278TIP3    H234326   5.217   1.452  11.067 -0.8674 -0.0161  1.3497
 4279TIP3   OH234327   5.522   1.782  16.051  0.2275  0.2297 -0.2913
 4279TIP3    H134328   5.481   1.817  15.972  0.5070  0.2537 -0.4276
 4279TIP3    H234329   5.503   1.847  16.118  0.2051  0.3360 -0.3990
 4280TIP3   OH234330   3.523   0.555   0.177 -0.3432  0.1616  0.1485
 4280TIP3    H134331   3.461   0.535   0.107 -0.9831 -0.2641  0.8176
 4280TIP3    H234332   3.484   0.516   0.256  0.5216  0.3357  0.6821
 4281TIP3   OH234333   1.855   6.767   1.475 -0.0442  0.0773 -0.5466
 4281TIP3    H134334   1.879   6.856   1.501  1.3213 -0.4437  0.0724
 4281TIP3    H234335   1.937   6.728   1.443 -0.4009 -1.2499  0.0766
 4282TIP3   OH234336   0.390   2.311   2.520 -0.4869  0.6494 -0.4451
 4282TIP3    H134337   0.453   2.355   2.464 -0.4167  1.1670  0.0265
 4282TIP3    H234338   0.433   2.307   2.606 -1.1008  1.0542 -0.1066
 4283TIP3   OH234339   4.227   1.509  15.323  0.1070  0.2958  0.2117
 4283TIP3    H134340   4.240   1.415  15.312  1.9145  0.3485  1.5438
 4283TIP3    H234341   4.138   1.518  15.356 -1.0855 -0.6948 -2.4318
 4284TIP3   OH234342   0.795   0.246   0.838 -0.2165 -0.1625  0.4662
 4284TIP3    H134343   0.784   0.267   0.931  0.4006 -1.2551  0.8083
 4284TIP3    H234344   0.827   0.155   0.838  1.1944  0.2989 -0.7502
 4285TIP3   OH234345   0.950   0.778   5.023  0.1797  0.2058 -0.1639
 4285TIP3    H134346   0.883   0.721   5.062 -0.6220  1.4876  0.3968
 4285TIP3    H234347   1.028   0.723   5.020 -0.2246 -0.5598  1.5101
 4286TIP3   OH234348   4.559   4.117  11.672  0.0052  0.4641 -0.5574
 4286TIP3    H134349   4.604   4.169  11.739 -0.4353  0.5524 -0.3199
 4286TIP3    H234350   4.480   4.086  11.717  0.2101 -0.3229 -0.7267
 4287TIP3   OH234351   2.700   4.993   5.506  0.2406  0.2984 -0.0261
 4287TIP3    H134352   2.655   4.923   5.552  0.3480  1.2018  1.5185
 4287TIP3    H234353   2.700   4.965   5.414 -2.5028 -0.2427  0.0482
 4288TIP3   OH234354   2.912   6.327   3.846 -0.2674  0.0108 -0.0836
 4288TIP3    H134355   2.997   6.370   3.834  0.4092 -1.3917 -0.4376
 4288TIP3    H234356   2.928   6.261   3.914 -1.1522 -0.0777  0.0471
 4289TIP3   OH234357   0.872   6.736  12.613 -0.5958  0.1347 -0.1504
 4289TIP3    H134358   0.855   6.796  12.685  0.0522  0.4770 -0.2692
 4289TIP3    H234359   0.915   6.790  12.547 -0.1684 -0.4181 -0.3328
 4290TIP3   OH234360   6.202   5.790  10.982 -0.4766 -0.5725  0.1445
 4290TIP3    H134361   6.234   5.703  11.006 -1.3408 -0.7248  0.8492
 4290TIP3    H234362   6.273   5.829  10.932  2.0291  0.1560  3.8264
 4291TIP3   OH234363   1.354   2.236   5.791 -0.3315  0.4745 -0.2148
 4291TIP3    H134364   1.321   2.279   5.870 -1.6848 -0.8185 -0.0313
 4291TIP3    H234365   1.335   2.143   5.805  1.1619 -0.0226 -1.2281
 4292TIP3   OH234366   6.248   2.271   3.545  0.4241 -0.0847 -0.3408
 4292TIP3    H134367   6.329   2.256   3.595  0.7692 -0.8098 -1.0973
 4292TIP3    H234368   6.220   2.359   3.571  1.7945  0.4301 -0.5281
 4293TIP3   OH234369   6.814   0.012   3.397  0.2992 -0.3071  0.1009
 4293TIP3    H134370   6.786  -0.005   3.487  1.8224 -1.2181  0.4487
 4293TIP3    H234371   6.901   0.051   3.406  1.0183 -1.5703 -0.9827
 4294TIP3   OH234372   0.478   4.078   2.847  0.3128  0.4961  0.0846
 4294TIP3    H134373   0.425   4.111   2.774 -1.2252 -2.1435 -0.1429
 4294TIP3    H234374   0.549   4.140   2.855 -2.0370  3.4955 -0.5463
 4295TIP3   OH234375   0.654   4.875  12.459  0.5979  0.0374 -0.0604
 4295TIP3    H134376   0.685   4.937  12.525  0.7259 -0.1591  0.0668
 4295TIP3    H234377   0.688   4.790  12.488  1.3776  0.0722 -0.8357
 4296TIP3   OH234378   2.385   1.675  16.454  0.1411 -0.4946 -0.2654
 4296TIP3    H134379   2.415   1.591  16.489 -0.8079 -0.4906  0.6331
 4296TIP3    H234380   2.355   1.723  16.531  0.3615  0.5405 -0.8142
 4297TIP3   OH234381   2.132   0.076  14.670  0.1867  0.6326  0.5479
 4297TIP3    H134382   2.214   0.051  14.712  0.6227  1.2203  0.0686
 4297TIP3    H234383   2.128   0.171  14.681 -0.6053  0.5746  0.8617
 4298TIP3   OH234384   2.160   3.670   1.470 -0.1302  0.1856 -1.0516
 4298TIP3    H134385   2.191   3.659   1.380  2.7767  0.3523 -0.1952
 4298TIP3    H234386   2.230   3.720   1.513 -1.6185  0.4654  1.2146
 4299TIP3   OH234387   5.314   3.788  16.379 -0.6069  0.0165  0.2783
 4299TIP3    H134388   5.350   3.746  16.456 -0.5284 -2.1287 -0.8544
 4299TIP3    H234389   5.234   3.831  16.410  0.0434  0.2062  1.7452
 4300TIP3   OH234390   2.887   3.066  12.984  0.1480 -0.8342  0.0330
 4300TIP3    H134391   2.836   3.139  13.020  0.2505 -1.0157  0.5612
 4300TIP3    H234392   2.946   3.041  13.056  0.0688 -1.4760 -0.1225
 4301TIP3   OH234393   4.092   1.825   1.874  0.1950 -0.2553  0.4417
 4301TIP3    H134394   4.164   1.835   1.811 -2.0195  2.0310 -1.9634
 4301TIP3    H234395   4.128   1.857   1.957  2.0756  0.3329 -0.5364
 4302TIP3   OH234396   1.207   3.005  10.659  0.4794 -0.2901  0.2649
 4302TIP3    H134397   1.191   2.911  10.663 -0.0416 -0.1730  1.3258
 4302TIP3    H234398   1.292   3.016  10.701  0.7638 -0.3245 -0.2879
 4303TIP3   OH234399   1.287   0.546   1.640  0.5362 -0.1006  0.0435
 4303TIP3    H134400   1.303   0.567   1.732 -0.5587  3.0793 -0.3796
 4303TIP3    H234401   1.374   0.536   1.602  1.2046  2.6574  0.6415
 4304TIP3   OH234402   6.216   0.998   3.230 -0.5319  0.3163 -0.1176
 4304TIP3    H134403   6.305   1.025   3.207  0.0108 -1.4900 -0.2616
 4304TIP3    H234404   6.166   1.010   3.149  0.2191 -1.1716 -0.8548
 4305TIP3   OH234405   6.489   5.348  13.999 -0.4347  0.2000  0.9732
 4305TIP3    H134406   6.518   5.435  14.024 -0.3696 -0.0831  1.9319
 4305TIP3    H234407   6.404   5.337  14.044 -0.7040 -0.0138  0.4173
 4306TIP3   OH234408   4.375   2.381   2.051  0.1452  0.1412 -0.0576
 4306TIP3    H134409   4.471   2.380   2.054  0.2339  1.6928 -1.1779
 4306TIP3    H234410   4.353   2.464   2.009 -1.7289  0.1840  0.9042
 4307TIP3   OH234411   5.366   0.858  14.082  0.5886 -0.8674  0.1997
 4307TIP3    H134412   5.457   0.856  14.111  0.9265  0.9140 -0.6436
 4307TIP3    H234413   5.346   0.950  14.071 -1.1112 -1.2690 -0.3164
 4308TIP3   OH234414   3.396   4.486  16.141 -0.0946 -0.5939  0.1925
 4308TIP3    H134415   3.392   4.536  16.222  1.2589 -1.4824  0.8408
 4308TIP3    H234416   3.435   4.403  16.166  0.2227 -0.9431 -1.3583
 4309TIP3   OH234417   2.807   5.453  16.038  0.3010  0.1294 -0.3992
 4309TIP3    H134418   2.763   5.521  15.988  1.1528  0.6265 -0.4854
 4309TIP3    H234419   2.887   5.434  15.989  1.3360  0.8861  0.9330
 4310TIP3   OH234420   2.635   0.472  12.149  0.5875 -0.0635  0.2981
 4310TIP3    H134421   2.700   0.474  12.078 -0.2128  1.2216 -0.4393
 4310TIP3    H234422   2.560   0.426  12.111  0.9345 -1.2935  1.0545
 4311TIP3   OH234423   0.789   2.899   6.359  0.2397 -0.7912 -0.5844
 4311TIP3    H134424   0.803   2.966   6.426 -0.3668  0.2607 -1.4698
 4311TIP3    H234425   0.716   2.847   6.391  0.2082 -0.5484 -0.2514
 4312TIP3   OH234426   0.689   2.707   3.152 -0.0499  0.0314 -0.8701
 4312TIP3    H134427   0.699   2.798   3.179 -0.9840  0.2580 -1.2379
 4312TIP3    H234428   0.615   2.709   3.091 -0.8721 -1.1573  0.0580
 4313TIP3   OH234429   2.655   1.291   2.025  0.3966  0.8073  0.3780
 4313TIP3    H134430   2.578   1.342   2.000 -0.5551 -0.2926  0.9710
 4313TIP3    H234431   2.682   1.248   1.944 -1.1539 -0.7566  0.6217
 4314TIP3   OH234432   1.088   1.994   5.016  0.7408  0.2989  0.1110
 4314TIP3    H134433   1.077   2.086   4.990  0.6270  0.3812  0.4429
 4314TIP3    H234434   1.146   1.957   4.949  0.5419  0.5334 -0.1926
 4315TIP3   OH234435   3.645   0.530  13.938 -0.0199  0.3594 -0.5466
 4315TIP3    H134436   3.577   0.558  13.877 -1.9821  1.3349  1.9020
 4315TIP3    H234437   3.610   0.449  13.977 -0.1851  1.2268  1.2211
 4316TIP3   OH234438   1.778   2.938  14.980  0.2497 -0.0683 -0.0705
 4316TIP3    H134439   1.708   2.948  15.044 -1.0903  0.5145 -1.5589
 4316TIP3    H234440   1.766   2.849  14.946 -0.2883  0.2978 -0.8747
 4317TIP3   OH234441   1.822   5.208  16.706  0.3488  0.2202 -0.2579
 4317TIP3    H134442   1.730   5.224  16.687 -0.3878 -0.3269  2.4501
 4317TIP3    H234443   1.828   5.114  16.721  0.2988  0.6571  3.7883
 4318TIP3   OH234444   1.037   4.737  12.974  0.2635 -0.3983 -0.4077
 4318TIP3    H134445   1.043   4.770  12.884  1.7220  1.4757  0.3005
 4318TIP3    H234446   0.967   4.788  13.014  0.4464 -0.3565 -0.1397
 4319TIP3   OH234447   3.414   5.785   4.543  0.1536  0.2788  0.1684
 4319TIP3    H134448   3.406   5.761   4.450  0.6995  0.1785  0.1441
 4319TIP3    H234449   3.329   5.823   4.565  0.1048  0.5437 -0.4420
 4320TIP3   OH234450   1.158   6.766  14.150 -0.1203 -0.1043  0.1232
 4320TIP3    H134451   1.117   6.853  14.145  0.4539  0.1841  0.3601
 4320TIP3    H234452   1.111   6.722  14.220 -1.4848 -0.5695 -1.0299
 4321TIP3   OH234453   0.184   3.732   6.050  0.3507 -0.0076  0.7778
 4321TIP3    H134454   0.107   3.747   5.995  0.7111 -0.8846  0.0009
 4321TIP3    H234455   0.194   3.812   6.101 -1.8702 -0.3687  1.9027
 4322TIP3   OH234456   5.507   3.494  15.130 -0.0494  0.3392  0.3788
 4322TIP3    H134457   5.517   3.548  15.052 -0.5842  0.5787  0.4729
 4322TIP3    H234458   5.424   3.448  15.117  0.2481 -0.2274  0.4448
 4323TIP3   OH234459   1.992   5.409   3.878  0.4249 -0.1629 -0.2596
 4323TIP3    H134460   2.048   5.403   3.801 -0.7235  0.7039 -1.1899
 4323TIP3    H234461   1.956   5.498   3.875 -0.5766 -0.5178  0.6081
 4324TIP3   OH234462   0.852   1.490  11.333 -0.0904  0.2726  0.2636
 4324TIP3    H134463   0.825   1.578  11.357 -0.5480 -0.2182  1.6158
 4324TIP3    H234464   0.858   1.442  11.416 -0.0423 -1.0267 -0.4491
 4325TIP3   OH234465   3.352   3.560  16.956 -0.5301 -0.4371 -0.5267
 4325TIP3    H134466   3.397   3.632  16.912 -0.4046 -0.0867  0.1648
 4325TIP3    H234467   3.309   3.512  16.885 -1.3056  0.8022 -0.9133
 4326TIP3   OH234468   0.901   2.262  16.476 -0.6032  0.4764 -0.2747
 4326TIP3    H134469   0.806   2.266  16.488 -0.7303 -1.0079 -0.5691
 4326TIP3    H234470   0.922   2.169  16.486  0.7337  0.6962 -0.8880
 4327TIP3   OH234471   2.627   0.365   0.176  0.1492 -0.3899 -0.2804
 4327TIP3    H134472   2.569   0.345   0.250  1.3578  0.4664  0.9567
 4327TIP3    H234473   2.635   0.460   0.177  0.5331 -0.4061 -1.2511
 4328TIP3   OH234474   4.637   5.658  11.843  0.6682  0.9921 -0.0605
 4328TIP3    H134475   4.716   5.633  11.891  2.4220  2.2983 -2.0640
 4328TIP3    H234476   4.608   5.739  11.884 -0.1586  0.1221  1.1640
 4329TIP3   OH234477   2.601   1.571   2.702 -0.5805  0.2906 -0.0994
 4329TIP3    H134478   2.537   1.507   2.733 -0.5239 -0.6273 -1.7834
 4329TIP3    H234479   2.617   1.547   2.611  1.9036  0.7106  0.1573
 4330TIP3   OH234480   5.307   3.306  15.039  0.1279 -0.2846  0.0888
 4330TIP3    H134481   5.269   3.363  14.972  1.1757  1.7407  1.1040
 4330TIP3    H234482   5.235   3.249  15.066 -0.9108  0.3722 -1.1830
 4331TIP3   OH234483   5.912   0.121   5.404 -0.0635 -0.1011  0.2331
 4331TIP3    H134484   5.902   0.088   5.314  1.7729 -0.7155  0.2233
 4331TIP3    H234485   5.913   0.042   5.458  2.8917 -0.0800  0.3552
 4332TIP3   OH234486   0.129   6.424   5.764 -0.6641  0.2864  0.2794
 4332TIP3    H134487   0.132   6.329   5.760  2.1895  0.2976  0.2080
 4332TIP3    H234488   0.142   6.444   5.857 -2.2324  0.6308  0.4480
 4333TIP3   OH234489   2.248   5.958  14.853  0.0818 -0.1486  0.4954
 4333TIP3    H134490   2.266   6.036  14.906 -2.2692  0.7397  0.1404
 4333TIP3    H234491   2.152   5.950  14.856 -0.1327 -0.3837 -3.1332
 4334TIP3   OH234492   5.260   1.747  13.008  0.9442  0.3405 -0.0002
 4334TIP3    H134493   5.317   1.670  13.003 -1.4328 -1.6447  1.0550
 4334TIP3    H234494   5.241   1.757  13.101 -0.6831  0.6494 -0.3319
 4335TIP3   OH234495   0.053   0.379  14.962  0.5222  0.1380  0.3107
 4335TIP3    H134496   0.067   0.291  14.997  0.6248 -0.2657 -0.7073
 4335TIP3    H234497   0.119   0.433  15.006  0.3939 -0.2610  1.0154
 4336TIP3   OH234498   4.460   1.439  13.227  0.0342  0.6491 -0.3547
 4336TIP3    H134499   4.495   1.350  13.236 -0.1497  0.5900 -0.2127
 4336TIP3    H234500   4.394   1.445  13.295 -0.0563  0.8459 -0.4604
 4337TIP3   OH234501   2.102   4.213   5.001 -0.0731 -0.3690  0.3057
 4337TIP3    H134502   2.067   4.264   4.928  0.3838  1.3269  1.2088
 4337TIP3    H234503   2.045   4.137   5.007 -0.0273 -0.6360 -1.8992
 4338TIP3   OH234504   6.065   3.588   6.515 -0.3892 -0.5265  0.5179
 4338TIP3    H134505   6.138   3.650   6.526 -1.6797  1.1777 -0.0121
 4338TIP3    H234506   6.107   3.504   6.497  1.4505  0.5913 -0.7551
 4339TIP3   OH234507   3.549   5.529   5.110  0.0068  0.3768 -0.6021
 4339TIP3    H134508   3.552   5.497   5.200 -1.5921 -0.5356 -0.8462
 4339TIP3    H234509   3.516   5.619   5.118 -0.4837  0.1744 -0.3010
 4340TIP3   OH234510   0.022   5.228  11.079 -0.4025 -0.5341  0.6668
 4340TIP3    H134511   0.075   5.208  11.002  0.9516  0.1544  1.3790
 4340TIP3    H234512  -0.060   5.179  11.066 -0.8576  0.7596 -1.9151
 4341TIP3   OH234513   2.332   1.232   5.651  0.2779 -0.0102 -0.2283
 4341TIP3    H134514   2.403   1.167   5.645  0.4931  0.1150  0.7244
 4341TIP3    H234515   2.377   1.315   5.668 -0.1113 -0.0255  0.9724
 4342TIP3   OH234516   4.118   4.460   5.161  0.3507 -0.1514 -0.1442
 4342TIP3    H134517   4.134   4.551   5.137 -1.0189  0.3600  0.7845
 4342TIP3    H234518   4.100   4.416   5.078  0.6663  0.4893 -0.5611
 4343TIP3   OH234519   3.344   3.857  16.472  0.0261  0.2050  0.0761
 4343TIP3    H134520   3.286   3.857  16.396  0.3646  1.8554 -0.2236
 4343TIP3    H234521   3.296   3.906  16.539  0.8921  1.3196 -0.0749
 4344TIP3   OH234522   2.865   4.739  11.630  0.2522 -0.7194 -0.2282
 4344TIP3    H134523   2.809   4.683  11.576 -2.2811  0.7713  0.6903
 4344TIP3    H234524   2.834   4.726  11.719 -0.8985  2.4782 -0.0223
 4345TIP3   OH234525   6.386   5.707   1.525 -0.1692  0.1311 -0.2156
 4345TIP3    H134526   6.476   5.674   1.528 -0.6789 -1.2498  0.7514
 4345TIP3    H234527   6.332   5.631   1.543 -1.4536  1.3158  1.2176
 4346TIP3   OH234528   5.146   1.865  11.732  0.9890 -1.2583 -0.3964
 4346TIP3    H134529   5.151   1.954  11.698 -0.9522 -1.0617 -0.2647
 4346TIP3    H234530   5.149   1.809  11.654 -2.8997 -0.8267 -1.0789
 4347TIP3   OH234531   5.603   1.377  11.017 -0.0968  0.3572  0.3142
 4347TIP3    H134532   5.674   1.385  10.953 -0.4909  0.4465 -0.1098
 4347TIP3    H234533   5.524   1.363  10.965 -0.4294  0.4895  0.7760
 4348TIP3   OH234534   5.334   0.148  14.602  0.0990  0.4324 -0.3804
 4348TIP3    H134535   5.307   0.058  14.584  2.0990 -0.3021  0.0508
 4348TIP3    H234536   5.323   0.158  14.697 -1.4148  1.1251 -0.6078
 4349TIP3   OH234537   1.168   3.811   3.290 -0.5087 -0.1364 -0.1907
 4349TIP3    H134538   1.149   3.892   3.337  0.8783 -0.1339  0.4249
 4349TIP3    H234539   1.100   3.750   3.318  0.5110 -0.2639  2.2308
 4350TIP3   OH234540   3.273   3.752   5.663 -0.6170 -0.3010 -0.0737
 4350TIP3    H134541   3.190   3.798   5.675  0.3142  1.4207 -0.0051
 4350TIP3    H234542   3.339   3.821   5.659  0.7868 -1.6109 -0.5003
 4351TIP3   OH234543   2.645   4.657  15.694  0.0193 -0.0597 -0.9281
 4351TIP3    H134544   2.640   4.562  15.689  0.4616 -0.0714 -1.2320
 4351TIP3    H234545   2.732   4.678  15.661 -0.3142  0.4958 -1.4788
 4352TIP3   OH234546   6.101   6.288  17.142 -0.2818  0.2433  0.0588
 4352TIP3    H134547   6.101   6.195  17.165  0.3546  0.2936  0.2944
 4352TIP3    H234548   6.164   6.327  17.203  0.7171  0.5484 -1.1493
 4353TIP3   OH234549   3.417   3.514  16.520  0.4889  0.4807 -0.2812
 4353TIP3    H134550   3.354   3.508  16.449  0.9454 -1.8203 -0.5468
 4353TIP3    H234551   3.460   3.429  16.523  3.0299  1.6554  0.4412
 4354TIP3   OH234552   2.204   1.226   2.147 -0.1122  0.0883 -0.1348
 4354TIP3    H134553   2.221   1.184   2.231 -2.0312  0.0042  0.2600
 4354TIP3    H234554   2.280   1.204   2.093  1.0623 -0.0149  1.5009
 4355TIP3   OH234555   5.746   2.678   2.325  0.4480  0.7690 -0.2142
 4355TIP3    H134556   5.663   2.699   2.281  0.0110 -0.3452  0.0477
 4355TIP3    H234557   5.721   2.658   2.415  0.8054 -0.8861 -0.4482
 4356TIP3   OH234558   6.521   0.434  13.247 -0.1664  0.0068  0.2006
 4356TIP3    H134559   6.530   0.451  13.341  1.1612 -0.2890  0.1573
 4356TIP3    H234560   6.498   0.518  13.209 -0.4935  0.1778  0.7691
 4357TIP3   OH234561   5.949   6.131  16.677 -0.3809  0.6065 -0.0526
 4357TIP3    H134562   5.904   6.076  16.741  0.6203 -0.6272 -0.3710
 4357TIP3    H234563   5.958   6.216  16.722 -1.5704  0.4048  0.6081
 4358TIP3   OH234564   6.756   2.360   0.291  0.5677  0.3106 -0.5373
 4358TIP3    H134565   6.663   2.348   0.274  0.2005  3.0953 -0.8906
 4358TIP3    H234566   6.763   2.446   0.332  3.0049  0.2415 -0.6182
 4359TIP3   OH234567   2.468   1.177   3.210  0.1916  0.2783 -0.4753
 4359TIP3    H134568   2.533   1.165   3.280  1.0753 -1.7796 -1.5531
 4359TIP3    H234569   2.389   1.134   3.243  0.4538 -0.2474 -0.5180
 4360TIP3   OH234570   0.538   5.208  12.815  0.0832  0.4581  0.4534
 4360TIP3    H134571   0.534   5.271  12.742  2.0563  0.6446  0.4451
 4360TIP3    H234572   0.600   5.248  12.877 -1.2689  0.1201  2.0870
 4361TIP3   OH234573   6.064   2.867  12.676  0.2666  0.4474 -0.0869
 4361TIP3    H134574   6.047   2.861  12.770  0.8395 -0.3775 -0.0258
 4361TIP3    H234575   6.091   2.958  12.663  0.2140  0.5618  0.5522
 4362TIP3   OH234576   4.954   3.925   5.375 -0.4762  0.0248  0.0653
 4362TIP3    H134577   4.868   3.962   5.351  0.6572  1.7466 -1.6668
 4362TIP3    H234578   4.988   3.890   5.293 -0.0393 -1.8726  1.0131
 4363TIP3   OH234579   2.072   1.350   3.438 -0.0715  0.4545 -0.1577
 4363TIP3    H134580   2.143   1.302   3.395 -0.9430 -0.2706 -0.8391
 4363TIP3    H234581   2.013   1.373   3.367 -1.4234 -0.5600  0.5910
 4364TIP3   OH234582   0.619   2.483   1.761 -0.4424  0.0173 -0.0617
 4364TIP3    H134583   0.537   2.436   1.747 -1.2522  1.2157  0.5139
 4364TIP3    H234584   0.635   2.529   1.678 -1.4705  1.4207  0.4773
 4365TIP3   OH234585   2.818   4.535   1.147  0.6209  0.2921 -0.2347
 4365TIP3    H134586   2.816   4.563   1.239 -0.3765 -0.1323 -0.1218
 4365TIP3    H234587   2.844   4.614   1.099  1.0951  0.5344  0.3992
 4366TIP3   OH234588   1.737   2.397  15.919 -0.4314  0.0695  0.2706
 4366TIP3    H134589   1.703   2.483  15.897 -4.0808 -1.1990  0.1813
 4366TIP3    H234590   1.826   2.412  15.950 -0.6389  3.7060 -0.5524
 4367TIP3   OH234591   2.045   5.756   1.125 -0.5765  0.7179 -0.1891
 4367TIP3    H134592   1.995   5.807   1.061  0.5111  1.1631 -0.7083
 4367TIP3    H234593   2.136   5.773   1.103 -0.1564 -1.6598 -0.5745
 4368TIP3   OH234594   2.477   3.009  16.035 -0.2143  0.4556 -0.0147
 4368TIP3    H134595   2.467   2.960  16.116 -0.5563  1.4462  0.5512
 4368TIP3    H234596   2.457   2.945  15.966  2.1607 -0.9886  0.5168
 4369TIP3   OH234597   0.542   0.175   3.073 -0.1219 -0.1205  0.1162
 4369TIP3    H134598   0.449   0.180   3.054  0.4076  0.8677 -2.9320
 4369TIP3    H234599   0.569   0.266   3.089  0.2933 -0.4202  1.1884
 4370TIP3   OH234600   5.069   1.753   2.178  0.4246 -0.3871 -0.1353
 4370TIP3    H134601   4.987   1.752   2.129  0.9194  0.8076 -1.0490
 4370TIP3    H234602   5.074   1.666   2.219 -1.6378 -0.2128  0.5854
 4371TIP3   OH234603   2.249   6.573  14.463 -0.0831 -0.0734  0.1109
 4371TIP3    H134604   2.170   6.523  14.484  0.3492 -1.3053 -1.0514
 4371TIP3    H234605   2.235   6.604  14.373  0.5005  0.2019  0.1103
 4372TIP3   OH234606   4.180   1.052  11.402 -0.5807  0.3158  0.1211
 4372TIP3    H134607   4.111   1.117  11.415  2.2759  3.6772 -0.4127
 4372TIP3    H234608   4.168   1.021  11.313 -2.0895 -0.1206  0.4449
 4373TIP3   OH234609   1.507   1.713  15.331 -0.7527  0.2264 -0.5247
 4373TIP3    H134610   1.565   1.663  15.273  0.2527  0.2823  0.3960
 4373TIP3    H234611   1.557   1.792  15.352 -0.2485 -0.6187  1.8712
 4374TIP3   OH234612   5.703   0.170   1.582 -0.3584  0.5921 -0.0354
 4374TIP3    H134613   5.788   0.133   1.604 -2.1785 -1.7339  4.5564
 4374TIP3    H234614   5.697   0.250   1.635 -1.1290  0.5592 -0.0635
 4375TIP3   OH234615   3.176   3.196  16.482 -0.1828 -0.9229 -0.9137
 4375TIP3    H134616   3.145   3.108  16.462  1.2616 -1.7752  0.3905
 4375TIP3    H234617   3.258   3.183  16.529 -0.1520  1.1055 -0.2886
 4376TIP3   OH234618   3.622   6.695  15.138  0.3912 -0.1786 -0.3336
 4376TIP3    H134619   3.667   6.777  15.155  0.6128  0.1303 -2.1695
 4376TIP3    H234620   3.530   6.719  15.128  0.1301 -0.4793  1.1744
 4377TIP3   OH234621   2.591   2.307   1.093  0.3966 -0.0434 -0.4941
 4377TIP3    H134622   2.587   2.212   1.082 -1.3990  0.0301 -0.7234
 4377TIP3    H234623   2.649   2.319   1.168 -0.3988 -1.4016  0.3997
 4378TIP3   OH234624   5.559   0.644  12.129  0.1430  0.0815  0.1158
 4378TIP3    H134625   5.601   0.654  12.214  0.6239 -0.8170 -0.0033
 4378TIP3    H234626   5.628   0.663  12.065  0.1889 -0.7234 -0.0785
 4379TIP3   OH234627   1.259   5.484   5.674 -0.1273 -0.2922 -0.3345
 4379TIP3    H134628   1.349   5.516   5.670  0.6115 -2.2522 -0.3216
 4379TIP3    H234629   1.221   5.510   5.589 -0.0309  1.7220  0.1731
 4380TIP3   OH234630   6.514   3.597  13.860  0.1535  0.1451 -0.3495
 4380TIP3    H134631   6.477   3.520  13.902 -0.5362 -0.0328 -1.2431
 4380TIP3    H234632   6.590   3.621  13.914  0.1813 -0.9627  0.1136
 4381TIP3   OH234633   5.212   3.811  14.945 -0.0080  0.3709  0.2550
 4381TIP3    H134634   5.175   3.754  15.013 -3.0956  1.1367 -0.6134
 4381TIP3    H234635   5.287   3.762  14.911 -0.3186 -1.4683  2.0375
 4382TIP3   OH234636   6.525   0.891  11.472 -0.1911  0.2812 -0.1444
 4382TIP3    H134637   6.467   0.879  11.397 -2.0838  1.5830  1.0184
 4382TIP3    H234638   6.574   0.809  11.478  0.8245  0.4742 -3.3654
 4383TIP3   OH234639   4.132   4.454   1.237 -0.3479  0.1313  0.0722
 4383TIP3    H134640   4.193   4.526   1.252 -1.0843  1.1601 -1.5109
 4383TIP3    H234641   4.051   4.497   1.209 -1.4169 -1.2440  0.9357
 4384TIP3   OH234642   4.283   6.652  11.254 -0.3162  0.3684  0.0311
 4384TIP3    H134643   4.199   6.609  11.266 -0.8403  1.1453 -0.8310
 4384TIP3    H234644   4.262   6.744  11.239  0.7374  0.7565  0.7517
 4385TIP3   OH234645   6.171   5.907  13.499  0.3916 -0.0175  0.0604
 4385TIP3    H134646   6.249   5.902  13.554 -0.0053  0.8296  0.7239
 4385TIP3    H234647   6.188   5.980  13.440  0.9684 -1.1475 -1.2116
 4386TIP3   OH234648   1.442   5.674   4.509 -0.4007  0.3023  0.0326
 4386TIP3    H134649   1.499   5.743   4.543 -1.1319  0.0213  1.9371
 4386TIP3    H234650   1.354   5.707   4.523 -0.7578 -0.8877  0.7257
 4387TIP3   OH234651   2.174   6.273  13.424 -0.0040  0.2306 -0.0867
 4387TIP3    H134652   2.110   6.249  13.490  2.2976  1.2708  2.7057
 4387TIP3    H234653   2.139   6.352  13.383 -0.6182  0.6897  1.2828
 4388TIP3   OH234654   2.095   3.354   4.660 -0.3835 -0.1062  0.2416
 4388TIP3    H134655   2.172   3.401   4.691 -1.0671  0.5392  0.9870
 4388TIP3    H234656   2.118   3.261   4.669 -0.1279  0.0671  1.6128
 4389TIP3   OH234657   2.996   5.276   3.940 -0.1316  0.4619 -0.0811
 4389TIP3    H134658   2.929   5.219   3.978 -1.7666  2.7363  0.6982
 4389TIP3    H234659   3.013   5.239   3.853 -1.3641 -0.9806  0.2509
 4390TIP3   OH234660   5.511   5.608   1.898  0.3628 -1.3963 -0.2616
 4390TIP3    H134661   5.549   5.611   1.986 -0.8686 -0.5141  0.2628
 4390TIP3    H234662   5.517   5.699   1.867 -1.8222 -1.0796  0.0832
 4391TIP3   OH234663   2.125   5.822  14.318  0.3550 -0.3937 -0.5639
 4391TIP3    H134664   2.055   5.777  14.365 -0.1368  1.4497  0.5648
 4391TIP3    H234665   2.083   5.856  14.239 -0.3536  1.5522  0.5795
 4392TIP3   OH234666   3.383   1.474  16.539  0.0515  0.2622 -0.5141
 4392TIP3    H134667   3.407   1.566  16.546 -0.6783  0.7051 -2.9660
 4392TIP3    H234668   3.343   1.454  16.623  1.8096  1.6409  0.7519
 4393TIP3   OH234669   0.540   4.950   1.489 -0.7448 -0.2504 -0.1467
 4393TIP3    H134670   0.608   4.885   1.471  0.8991  1.2479  0.3839
 4393TIP3    H234671   0.493   4.915   1.564 -0.4635 -1.2465 -0.4214
 4394TIP3   OH234672   3.022   3.763  13.803  0.0995 -0.7673 -0.1629
 4394TIP3    H134673   2.998   3.743  13.893  1.7881 -0.2931  0.4474
 4394TIP3    H234674   3.040   3.857  13.804 -0.1297 -0.7019 -1.0720
 4395TIP3   OH234675   3.777   4.618  14.325 -0.0367  0.2086  0.0998
 4395TIP3    H134676   3.861   4.625  14.369  1.1109 -2.7843 -1.3971
 4395TIP3    H234677   3.712   4.631  14.395  1.6853 -1.0060  2.0188
 4396TIP3   OH234678   3.998   4.318  15.925  0.0026 -0.0278 -0.0015
 4396TIP3    H134679   4.029   4.236  15.963 -0.9820 -0.2907  0.2682
 4396TIP3    H234680   3.970   4.295  15.837 -1.4687 -0.2709  0.5046
 4397TIP3   OH234681   3.703   2.732  11.905  0.7307  0.0905 -0.1336
 4397TIP3    H134682   3.791   2.762  11.928  1.0600 -0.2054 -0.9757
 4397TIP3    H234683   3.645   2.791  11.953  1.3772  0.7773 -0.1715
 4398TIP3   OH234684   6.487   4.858   2.042 -0.0269  0.4820 -0.4260
 4398TIP3    H134685   6.402   4.901   2.033 -1.0856 -1.3336  0.3949
 4398TIP3    H234686   6.551   4.926   2.022 -1.6273  2.2645  0.2929
 4399TIP3   OH234687   6.275   2.124  13.435  0.0417  0.4290  0.0652
 4399TIP3    H134688   6.331   2.089  13.365 -2.0302  0.8703 -1.9120
 4399TIP3    H234689   6.239   2.047  13.478  0.9137  0.1533  0.3182
 4400TIP3   OH234690   2.629   3.922   1.608 -0.3476 -0.5702 -0.0207
 4400TIP3    H134691   2.723   3.909   1.597 -0.0725  0.3916  0.9818
 4400TIP3    H234692   2.615   4.015   1.590 -1.5741 -1.1982 -2.8695
 4401TIP3   OH234693   1.891   4.979  13.845  0.2265  0.0420  0.2115
 4401TIP3    H134694   1.831   4.919  13.800 -1.2724 -0.2542  2.4275
 4401TIP3    H234695   1.950   4.921  13.894  1.2449  0.3676 -0.5969
 4402TIP3   OH234696   0.310   4.101  12.325 -0.2934  0.5234  0.0776
 4402TIP3    H134697   0.329   4.008  12.335 -1.3800  0.2612 -0.1452
 4402TIP3    H234698   0.214   4.106  12.323 -0.2463  1.6193 -0.1768
 4403TIP3   OH234699   4.443   3.716   2.967 -0.0238 -0.0579 -0.0728
 4403TIP3    H134700   4.440   3.627   3.004 -0.7215  0.4017  1.0313
 4403TIP3    H234701   4.521   3.754   3.006 -0.9705  0.5572  1.2940
 4404TIP3   OH234702   2.949   3.698  14.068  0.1063 -0.0581  0.2196
 4404TIP3    H134703   2.995   3.742  14.140  2.0474  1.7248 -1.9516
 4404TIP3    H234704   2.959   3.605  14.087  3.2272  0.2828  0.8116
 4405TIP3   OH234705   2.994   4.303   4.492  0.4165  0.3020 -0.2728
 4405TIP3    H134706   2.943   4.340   4.421 -1.0145 -1.0272  0.0112
 4405TIP3    H234707   3.032   4.223   4.456 -1.5556 -1.2104  0.8061
 4406TIP3   OH234708   2.524   1.388  11.002  0.2742 -0.2815 -0.6983
 4406TIP3    H134709   2.438   1.368  10.966 -0.1491 -0.7463  0.5155
 4406TIP3    H234710   2.572   1.306  10.999 -0.7004 -1.0913  2.2087
 4407TIP3   OH234711   4.825   5.155   4.558 -0.3454 -0.0195 -0.3205
 4407TIP3    H134712   4.834   5.192   4.646 -0.6112 -2.3244  0.7518
 4407TIP3    H234713   4.739   5.113   4.559 -0.4729  0.1733 -1.8001
 4408TIP3   OH234714   6.520   5.543   2.544  0.2445  0.1305  0.1609
 4408TIP3    H134715   6.539   5.541   2.451  2.2558  0.4058  0.5399
 4408TIP3    H234716   6.498   5.452   2.565 -1.0828  0.2189 -0.7108
 4409TIP3   OH234717   4.933   2.890   4.482 -0.3110  0.2356 -0.5319
 4409TIP3    H134718   4.991   2.894   4.406 -0.7635  1.1568 -0.8451
 4409TIP3    H234719   4.899   2.801   4.482  1.6321 -0.5676  0.0751
 4410TIP3   OH234720   6.015   0.710   4.864 -0.3415 -0.4034 -0.1995
 4410TIP3    H134721   6.038   0.725   4.956  0.2545  0.1785 -0.4289
 4410TIP3    H234722   5.920   0.720   4.860 -0.5114 -1.5169  0.5425
 4411TIP3   OH234723   4.935   6.020   4.526 -0.0358  0.1125  0.0692
 4411TIP3    H134724   5.027   6.005   4.503  0.0001  0.3819  0.0413
 4411TIP3    H234725   4.899   6.067   4.451 -0.2260 -0.0891  0.0317
 4412TIP3   OH234726   4.763   1.742   2.413 -0.4304 -0.4398 -0.4246
 4412TIP3    H134727   4.731   1.701   2.493  0.4957 -1.4581 -0.5516
 4412TIP3    H234728   4.702   1.813   2.397 -0.1090  0.3894  1.6981
 4413TIP3   OH234729   1.763   3.362   4.550  0.6029 -0.4944 -0.4067
 4413TIP3    H134730   1.693   3.353   4.486 -0.4356 -0.0484  0.6176
 4413TIP3    H234731   1.821   3.287   4.534 -1.3404 -2.2163  0.1843
 4414TIP3   OH234732   2.849   5.432  16.880 -0.3190  0.9526  0.1686
 4414TIP3    H134733   2.850   5.422  16.785  0.4388  0.5702  0.2115
 4414TIP3    H234734   2.910   5.504  16.898  2.8281 -1.5966  0.6083
 4415TIP3   OH234735   3.945   1.223  13.323  0.1631  0.6647  0.0755
 4415TIP3    H134736   3.956   1.275  13.403 -0.8659  0.4986  0.3457
 4415TIP3    H234737   3.947   1.287  13.252 -1.5537  1.1819  0.4340
 4416TIP3   OH234738   1.887   0.448   1.676  0.0894 -0.3390  0.4266
 4416TIP3    H134739   1.841   0.429   1.758 -1.4163  0.6104 -0.1435
 4416TIP3    H234740   1.890   0.543   1.671  0.5651 -0.3883 -0.3948
 4417TIP3   OH234741   6.409   4.946   3.410  0.0131  0.2625  0.1056
 4417TIP3    H134742   6.490   4.993   3.430 -0.7470  0.5540  2.9958
 4417TIP3    H234743   6.424   4.857   3.442 -0.4242 -0.0013 -0.4083
 4418TIP3   OH234744   4.533   3.191  14.576  0.6049 -0.5407 -0.0827
 4418TIP3    H134745   4.528   3.099  14.600 -0.0802 -0.3593  0.5151
 4418TIP3    H234746   4.541   3.238  14.659 -4.1209  0.2643  0.2142
 4419TIP3   OH234747   6.315   2.817   2.911 -0.3022 -0.4789  0.1380
 4419TIP3    H134748   6.295   2.730   2.877 -1.0724  0.6324 -2.5889
 4419TIP3    H234749   6.365   2.859   2.840 -3.5947  2.6902 -0.6245
 4420TIP3   OH234750   4.723   3.111  12.994 -0.4733 -0.2614 -0.1075
 4420TIP3    H134751   4.703   3.117  13.088 -1.9076  2.1375 -0.4740
 4420TIP3    H234752   4.685   3.027  12.967 -1.3051 -0.3369  1.1931
 4421TIP3   OH234753   0.906   4.733   2.917  0.4224 -0.0018 -0.1058
 4421TIP3    H134754   0.926   4.813   2.870 -0.2227 -0.0744 -0.5177
 4421TIP3    H234755   0.941   4.663   2.861 -0.4027 -0.0919 -0.5251
 4422TIP3   OH234756   6.639   5.780   2.795 -0.1361 -0.4518  0.1485
 4422TIP3    H134757   6.640   5.834   2.716 -0.5492  0.4118  0.7153
 4422TIP3    H234758   6.551   5.743   2.798 -1.0970  1.7236  1.6117
 4423TIP3   OH234759   2.062   5.478   4.327 -0.5359 -0.9104  0.7710
 4423TIP3    H134760   2.012   5.436   4.257 -2.9275  0.2449  1.6819
 4423TIP3    H234761   2.035   5.432   4.406 -0.9225  0.3913  1.4090
 4424TIP3   OH234762   1.475   1.627  15.592 -0.3337  0.2789 -0.3190
 4424TIP3    H134763   1.494   1.702  15.536 -0.9035  0.8140  0.1866
 4424TIP3    H234764   1.560   1.599  15.624 -0.0908  0.5444 -0.7200
 4425TIP3   OH234765   4.395   1.948   3.617 -0.0295  0.0014  0.0532
 4425TIP3    H134766   4.430   1.868   3.578  1.5984 -0.1459  1.6975
 4425TIP3    H234767   4.339   1.917   3.687 -0.8214  0.3046 -0.4326
 4426TIP3   OH234768   1.955   3.333   5.879 -0.2285 -0.3376  0.2199
 4426TIP3    H134769   1.930   3.255   5.928 -0.7015 -0.2359  0.1442
 4426TIP3    H234770   1.884   3.395   5.895 -0.1407 -0.1273 -0.1906
 4427TIP3   OH234771   3.848   4.791  15.718  0.1298 -0.6231  0.5836
 4427TIP3    H134772   3.869   4.839  15.638 -1.0680 -1.3629 -0.1993
 4427TIP3    H234773   3.759   4.820  15.741 -1.1755 -3.3079 -0.6323
 4428TIP3   OH234774   2.068   1.548  11.050 -0.5544 -0.2127 -0.5391
 4428TIP3    H134775   2.003   1.568  11.117 -0.9292  1.1649 -1.2691
 4428TIP3    H234776   2.082   1.453  11.058  1.4858  0.2310  3.2622
 4429TIP3   OH234777   6.081   0.575  13.027  0.5151 -0.6494  0.6789
 4429TIP3    H134778   6.108   0.484  13.011  1.3024 -0.1575 -0.9924
 4429TIP3    H234779   6.161   0.626  13.016 -0.3899  0.4996 -0.9139
 4430TIP3   OH234780   6.542   1.772   4.380  0.2064  0.4987  0.6459
 4430TIP3    H134781   6.540   1.787   4.285 -2.2187  0.2872  0.6016
 4430TIP3    H234782   6.535   1.859   4.418 -0.5377  0.4659  0.5931
 4431TIP3   OH234783   1.910   2.733   1.962  0.7066 -0.4273 -0.2413
 4431TIP3    H134784   1.894   2.822   1.994 -0.4676 -0.5334 -0.4869
 4431TIP3    H234785   1.859   2.728   1.881 -0.0664 -1.6442  0.3005
 4432TIP3   OH234786   4.633   4.109  13.583  0.5359  0.4527  0.6757
 4432TIP3    H134787   4.629   4.106  13.678 -0.7486  0.2602  0.6463
 4432TIP3    H234788   4.646   4.201  13.562  1.4585  0.4102  1.0435
 4433TIP3   OH234789   5.338   4.508  11.396  0.3728  0.2257  0.1602
 4433TIP3    H134790   5.266   4.522  11.334  1.0540 -0.8921 -0.9136
 4433TIP3    H234791   5.331   4.416  11.421  1.7510 -0.0438 -0.3726
 4434TIP3   OH234792   0.547   5.880   0.585 -0.0458  0.3611 -0.9362
 4434TIP3    H134793   0.558   5.955   0.527 -2.1126  0.5907 -1.1042
 4434TIP3    H234794   0.581   5.911   0.670 -0.3750  1.3171 -1.1366
 4435TIP3   OH234795   2.248   5.404   3.183  0.1482  0.0945  0.2655
 4435TIP3    H134796   2.331   5.388   3.140 -0.0621 -1.2818  0.3172
 4435TIP3    H234797   2.262   5.484   3.234  0.8953  0.8259 -1.0468
 4436TIP3   OH234798   2.449   1.740   1.968  0.6120  0.1426 -0.1161
 4436TIP3    H134799   2.433   1.828   2.004  1.2282  0.2174 -0.0111
 4436TIP3    H234800   2.513   1.755   1.898 -0.0368 -0.0961 -0.7723
 4437TIP3   OH234801   0.631   0.035  12.399  0.0734  0.1474 -0.3745
 4437TIP3    H134802   0.715   0.015  12.359 -0.0250 -0.4084 -0.3144
 4437TIP3    H234803   0.567  -0.015  12.347  0.0093 -1.0946  0.8207
 4438TIP3   OH234804   1.431   6.171  13.456  0.0103 -0.6789 -0.3591
 4438TIP3    H134805   1.420   6.164  13.551  0.3429  0.9340 -0.1648
 4438TIP3    H234806   1.371   6.241  13.431 -1.4658 -2.3277 -1.6522
 4439TIP3   OH234807   4.092   2.543   1.369  0.5215 -0.1542  0.3888
 4439TIP3    H134808   4.029   2.610   1.343 -0.1822 -0.4414  1.3024
 4439TIP3    H234809   4.047   2.493   1.437  1.6194 -0.5646  0.8340
 4440TIP3   OH234810   0.976   5.302  13.127  0.1086 -0.1385 -0.9634
 4440TIP3    H134811   1.015   5.267  13.207 -2.4155 -1.6837 -0.2950
 4440TIP3    H234812   0.993   5.236  13.060 -1.7481 -1.1399 -0.5152
 4441TIP3   OH234813   1.255   2.194   1.110 -0.5220  0.7842  0.1675
 4441TIP3    H134814   1.291   2.225   1.027 -1.0881 -2.6008 -1.5020
 4441TIP3    H234815   1.168   2.234   1.115 -0.0627  1.8745 -0.2981
 4442TIP3   OH234816   0.942   2.540  16.584 -0.1506  0.7005  0.2229
 4442TIP3    H134817   1.003   2.518  16.654  1.4287 -0.9141 -1.5463
 4442TIP3    H234818   0.911   2.455  16.552 -0.9579  1.4066 -0.9380
 4443TIP3   OH234819   6.633   2.581   0.778  0.3744 -0.4235  0.3048
 4443TIP3    H134820   6.638   2.486   0.764  0.0980 -0.4189  0.1710
 4443TIP3    H234821   6.589   2.615   0.700  0.0909 -0.2347  0.5474
 4444TIP3   OH234822   0.048   3.364   2.123 -0.2185 -0.7128  0.0444
 4444TIP3    H134823   0.062   3.274   2.092  4.8180 -0.0416 -0.5100
 4444TIP3    H234824   0.045   3.356   2.218 -0.1184 -1.4902 -0.0045
 4445TIP3   OH234825   4.220   5.772  13.920 -0.0465 -0.3982 -0.4373
 4445TIP3    H134826   4.238   5.695  13.973  0.6207  0.0367 -0.0146
 4445TIP3    H234827   4.286   5.770  13.851 -0.0472 -0.2180 -0.4440
 4446TIP3   OH234828   5.396   6.528   2.545  0.0384 -0.4490 -0.1284
 4446TIP3    H134829   5.338   6.563   2.613 -0.3986 -1.5446  0.0828
 4446TIP3    H234830   5.465   6.483   2.594  0.4182 -0.1711 -0.4014
 4447TIP3   OH234831   2.179   5.987  11.213  0.6430 -0.2459  0.3972
 4447TIP3    H134832   2.133   6.052  11.161 -1.0323 -1.2551  0.5388
 4447TIP3    H234833   2.237   6.037  11.270 -0.9670  1.1566  0.8581
 4448TIP3   OH234834   0.144   5.739  11.062  0.6817  0.2229 -0.6241
 4448TIP3    H134835   0.106   5.800  10.999 -0.7816 -1.3224 -1.3051
 4448TIP3    H234836   0.176   5.666  11.009  2.0289  0.1706  0.2121
 4449TIP3   OH234837   2.474   6.240  16.303 -0.1322 -0.6731  0.1119
 4449TIP3    H134838   2.453   6.333  16.292 -0.3749 -0.7580 -0.1419
 4449TIP3    H234839   2.389   6.196  16.303  0.0358 -1.0309 -1.0610
 4450TIP3   OH234840   4.444   1.070  11.593  0.0266 -0.0155 -0.2916
 4450TIP3    H134841   4.497   1.045  11.668  0.0563 -1.0519 -0.6485
 4450TIP3    H234842   4.368   1.115  11.631 -1.1746 -2.5621  0.5754
 4451TIP3   OH234843   0.623   5.180  13.228 -0.2003  0.4387  0.0788
 4451TIP3    H134844   0.583   5.202  13.144  1.6790  1.1173 -0.6934
 4451TIP3    H234845   0.647   5.265  13.266 -1.1287  0.1496  1.3869
 4452TIP3   OH234846   4.479   5.005   3.126  0.3714 -0.8490 -0.2208
 4452TIP3    H134847   4.554   4.974   3.177 -0.2982 -1.4465  0.4156
 4452TIP3    H234848   4.488   5.100   3.126  2.5914 -0.9681 -2.4046
 4453TIP3   OH234849   0.540   4.670  14.926 -0.0161  0.2992 -0.1950
 4453TIP3    H134850   0.454   4.636  14.952  1.0649 -1.0365  1.9002
 4453TIP3    H234851   0.587   4.594  14.893  0.3965  1.0204 -1.3151
 4454TIP3   OH234852   5.801   1.631  16.614  0.2109 -0.2116 -0.1858
 4454TIP3    H134853   5.853   1.685  16.554 -0.5133  0.0450 -0.6108
 4454TIP3    H234854   5.723   1.685  16.631  0.4257 -0.2734  1.0184
 4455TIP3   OH234855   5.482   5.209  12.335 -0.7212 -0.9085  0.0244
 4455TIP3    H134856   5.523   5.200  12.248 -0.7717  0.2516 -0.1326
 4455TIP3    H234857   5.548   5.175  12.395  0.2361  0.3180 -0.2908
 4456TIP3   OH234858   6.798   3.349   1.394 -0.4789 -0.2659 -0.0870
 4456TIP3    H134859   6.766   3.387   1.312  0.5159 -0.8698 -0.7749
 4456TIP3    H234860   6.735   3.280   1.414 -1.6075  0.8831  0.5180
 4457TIP3   OH234861   4.224   3.544  13.292  0.4988  0.2779 -0.7376
 4457TIP3    H134862   4.138   3.510  13.269 -0.2145  1.2202  0.4441
 4457TIP3    H234863   4.210   3.638  13.303  1.2312  0.1816  1.4197
 4458TIP3   OH234864   0.098   0.123  15.026 -0.1503  0.1329 -0.3333
 4458TIP3    H134865   0.191   0.108  15.043  0.0057 -0.3718 -1.5124
 4458TIP3    H234866   0.052   0.064  15.086  0.3687 -1.6725 -1.6201
 4459TIP3   OH234867   3.995   2.853   3.490 -0.4593 -0.4368 -0.3389
 4459TIP3    H134868   3.937   2.929   3.485  0.0877  0.0416  0.3597
 4459TIP3    H234869   3.989   2.813   3.403 -2.0647 -0.5979 -0.1936
 4460TIP3   OH234870   2.763   3.697  13.404 -0.2103 -0.1054 -0.1877
 4460TIP3    H134871   2.754   3.636  13.477  1.2872 -2.2848 -1.6934
 4460TIP3    H234872   2.674   3.727  13.386 -0.5883  0.7788  2.6709
 4461TIP3   OH234873   0.846   6.525   6.083  0.2022 -0.1416 -0.7875
 4461TIP3    H134874   0.870   6.433   6.096 -1.0570 -0.8445 -3.0017
 4461TIP3    H234875   0.837   6.535   5.989 -0.5609  2.0582 -0.5489
 4462TIP3   OH234876   3.057   6.105   2.984 -0.3635  0.3643 -0.1638
 4462TIP3    H134877   2.989   6.042   2.960 -1.1979  0.5473  1.5302
 4462TIP3    H234878   3.013   6.166   3.043  1.3586  0.2868  1.2834
 4463TIP3   OH234879   6.238   1.747  11.728 -0.2743  0.1773  0.6976
 4463TIP3    H134880   6.206   1.804  11.659 -1.2108 -2.0939 -0.8470
 4463TIP3    H234881   6.184   1.669  11.722  1.1569 -1.0441  2.4969
 4464TIP3   OH234882   4.361   2.930   1.334  0.3998  0.0116 -0.3644
 4464TIP3    H134883   4.280   2.929   1.283  0.9815 -0.0289 -1.3142
 4464TIP3    H234884   4.349   2.863   1.400  0.7257 -1.9719 -2.2133
 4465TIP3   OH234885   5.324   6.700   3.903  0.0971  0.2901  0.7269
 4465TIP3    H134886   5.377   6.634   3.858 -2.1520 -1.0323 -0.1006
 4465TIP3    H234887   5.364   6.708   3.990  1.0679 -1.3276  0.4610
 4466TIP3   OH234888   2.075   0.447   2.334 -0.3587 -0.6343  0.6970
 4466TIP3    H134889   2.105   0.516   2.393  2.3251 -0.2632 -0.9177
 4466TIP3    H234890   1.984   0.469   2.315 -0.1656  1.3366  1.7922
 4467TIP3   OH234891   4.557   2.071   2.110 -0.4108 -0.2978  0.0680
 4467TIP3    H134892   4.588   2.160   2.096  3.2097 -0.6575  3.8935
 4467TIP3    H234893   4.578   2.025   2.029  4.2601  0.9015  0.3439
 4468TIP3   OH234894   1.873   1.904   3.523  0.9474 -0.1601 -0.6634
 4468TIP3    H134895   1.826   1.865   3.449  0.8086 -2.0605  0.3569
 4468TIP3    H234896   1.920   1.979   3.485 -1.1256  0.4786 -2.1338
 4469TIP3   OH234897   0.167   1.502   2.989  0.6956 -0.2744  0.3954
 4469TIP3    H134898   0.086   1.456   2.967 -0.3497  2.0451 -0.9111
 4469TIP3    H234899   0.177   1.490   3.083 -1.1420 -0.6450  0.5728
 4470TIP3   OH234900   6.369   3.621   3.895  0.2875  0.3280 -0.6373
 4470TIP3    H134901   6.389   3.567   3.818 -0.5989  1.9113 -2.0437
 4470TIP3    H234902   6.400   3.708   3.871 -1.1409  1.1229  0.2934
 4471TIP3   OH234903   6.572   4.340   2.989 -0.3170 -0.5454 -0.3253
 4471TIP3    H134904   6.566   4.435   2.978  0.5256 -0.1724  1.9502
 4471TIP3    H234905   6.515   4.321   3.064  1.6859 -1.3748  1.0796
 4472TIP3   OH234906   5.319   0.486   2.517 -0.4761 -0.5314 -0.4243
 4472TIP3    H134907   5.374   0.484   2.596  0.2592  1.0216 -0.8655
 4472TIP3    H234908   5.286   0.575   2.513 -1.2188 -0.8395 -1.4047
 4473TIP3   OH234909   4.685   1.766   4.833 -0.2606  0.3765  0.1776
 4473TIP3    H134910   4.757   1.825   4.858  0.5915  0.4190 -2.1633
 4473TIP3    H234911   4.656   1.799   4.748 -0.4562 -1.9469 -0.7050
 4474TIP3   OH234912   1.086   4.315  12.896  0.2639 -0.0267  0.0177
 4474TIP3    H134913   1.115   4.346  12.982  1.2049  2.2671 -1.0306
 4474TIP3    H234914   1.161   4.269  12.860  0.1023 -0.3891  0.1371
 4475TIP3   OH234915   5.435   5.421  16.153 -0.0677 -0.1576 -0.3321
 4475TIP3    H134916   5.501   5.378  16.100 -0.0247 -0.8882  0.3014
 4475TIP3    H234917   5.405   5.494  16.099  1.8633  0.7330 -0.2960
 4476TIP3   OH234918   4.973   6.607   1.883  0.4303 -0.0755 -0.2096
 4476TIP3    H134919   4.958   6.525   1.929 -3.0677  0.4757 -0.1213
 4476TIP3    H234920   5.010   6.665   1.949 -0.1103 -0.6577  0.6240
 4477TIP3   OH234921   5.520   0.854  13.260  0.0729 -0.2800 -0.6560
 4477TIP3    H134922   5.444   0.797  13.265 -1.6035  1.9046  2.3114
 4477TIP3    H234923   5.487   0.941  13.284  3.2766  1.0143 -0.3472
 4478TIP3   OH234924   2.304   4.054   2.314  0.5389  0.2078 -0.0109
 4478TIP3    H134925   2.271   3.965   2.298 -0.8681  1.0628 -2.5101
 4478TIP3    H234926   2.230   4.100   2.352  1.2028  0.3857  1.0876
 4479TIP3   OH234927   5.819   6.764   2.170 -0.2622 -0.2327  0.0183
 4479TIP3    H134928   5.799   6.670   2.174  1.8359 -0.8560 -2.0216
 4479TIP3    H234929   5.901   6.773   2.220 -0.0088  0.3594 -0.4995
 4480TIP3   OH234930   6.364   6.228  12.792  0.6089 -0.5739 -0.0911
 4480TIP3    H134931   6.370   6.208  12.698 -0.6643 -1.2697 -0.0551
 4480TIP3    H234932   6.407   6.312  12.802 -1.5537  0.8382 -1.7893
 4481TIP3   OH234933   4.290   1.651  13.077  0.1480 -0.0260  0.2217
 4481TIP3    H134934   4.266   1.565  13.045 -1.0009  1.5081 -3.5366
 4481TIP3    H234935   4.385   1.647  13.089 -0.0554 -2.1662  1.6650
 4482TIP3   OH234936   2.157   1.624  17.014 -0.2637 -0.5215 -0.1605
 4482TIP3    H134937   2.080   1.568  17.008 -0.3569 -0.3588 -0.4772
 4482TIP3    H234938   2.225   1.576  16.967 -0.5870  0.0451 -1.2445
 4483TIP3   OH234939   2.342   2.445   2.492  0.3594 -0.0126 -0.2540
 4483TIP3    H134940   2.363   2.359   2.529  0.2334  0.5310  1.1219
 4483TIP3    H234941   2.315   2.426   2.402 -1.7264 -1.6708  0.6368
 4484TIP3   OH234942   2.765   4.365   4.938 -0.2931  0.0320  0.3370
 4484TIP3    H134943   2.743   4.302   4.870  0.5691  1.6557 -1.5625
 4484TIP3    H234944   2.683   4.411   4.956 -0.3254  0.2572 -0.3585
 4485TIP3   OH234945   0.507   0.497   1.317 -1.0607  0.1158 -0.1226
 4485TIP3    H134946   0.598   0.514   1.344 -1.3217  1.1581  0.1436
 4485TIP3    H234947   0.515   0.444   1.237 -0.1778  1.4921 -0.9761
 4486TIP3   OH234948   2.732   2.743   2.409  0.7328  0.5509  0.0593
 4486TIP3    H134949   2.690   2.829   2.413 -1.0263 -0.2780  0.0806
 4486TIP3    H234950   2.744   2.718   2.500  1.7370  0.9830  0.0574
 4487TIP3   OH234951   3.176   1.547   0.129 -0.3435  0.3442  0.5603
 4487TIP3    H134952   3.250   1.498   0.093 -0.3446 -2.0805  3.5198
 4487TIP3    H234953   3.216   1.617   0.179 -0.1566  0.4678  0.2430
 4488TIP3   OH234954   1.008   3.678  15.195  0.5246  0.4069 -0.3479
 4488TIP3    H134955   1.100   3.691  15.172  0.6670  0.5986  0.3076
 4488TIP3    H234956   0.996   3.726  15.277  0.3731 -1.3343  0.7019
 4489TIP3   OH234957   3.165   1.988  14.558 -0.5808  0.3626  0.0907
 4489TIP3    H134958   3.161   2.002  14.464 -0.3540  1.3010  0.2055
 4489TIP3    H234959   3.077   1.958  14.581 -0.9151  1.0150 -0.2962
 4490TIP3   OH234960   5.822   1.551   3.275  0.2858 -0.3531 -0.2506
 4490TIP3    H134961   5.788   1.527   3.188 -2.4625  0.1779  0.5811
 4490TIP3    H234962   5.754   1.607   3.312  2.6539  1.7407  1.2087
 4491TIP3   OH234963   1.579   0.765   4.442 -0.5059 -0.0199 -0.1553
 4491TIP3    H134964   1.580   0.855   4.409  0.5215 -0.3339 -1.0130
 4491TIP3    H234965   1.584   0.775   4.538  3.9541  0.8562 -0.2625
 4492TIP3   OH234966   0.187   5.400  12.190 -0.1498 -0.3220 -0.1470
 4492TIP3    H134967   0.161   5.460  12.260  0.9279 -1.1079  0.9555
 4492TIP3    H234968   0.278   5.422  12.172 -0.0277 -1.0031 -0.3939
 4493TIP3   OH234969   2.632   2.748   3.009 -0.0347  0.2708  0.2972
 4493TIP3    H134970   2.548   2.778   3.043 -0.6183  0.7017 -1.4138
 4493TIP3    H234971   2.647   2.665   3.052 -0.9352  0.5802  1.2483
 4494TIP3   OH234972   0.912   4.002   2.998  0.3294 -0.0559 -0.4943
 4494TIP3    H134973   0.825   3.980   2.966 -0.5344  2.0859  0.2275
 4494TIP3    H234974   0.952   3.917   3.016 -1.9720 -1.0958  0.1375
 4495TIP3   OH234975   2.454   4.385   3.611  0.4759  0.3673 -0.0288
 4495TIP3    H134976   2.509   4.334   3.552  1.3436  0.3631  0.7555
 4495TIP3    H234977   2.513   4.410   3.682 -0.0508  2.0251 -0.1301
 4496TIP3   OH234978   4.644   5.228  14.753  0.2286  0.2616 -0.5323
 4496TIP3    H134979   4.657   5.322  14.741  1.0089  0.3893  1.0769
 4496TIP3    H234980   4.557   5.211  14.716  0.7788  1.2764 -2.4099
 4497TIP3   OH234981   4.800   4.133   5.983 -0.7384  0.2133 -0.0801
 4497TIP3    H134982   4.826   4.105   6.071 -1.6123  2.0961  0.8556
 4497TIP3    H234983   4.727   4.193   5.998 -0.4067  1.1950 -2.0441
 4498TIP3   OH234984   4.914   0.816  14.091  0.4311  0.1167 -0.1710
 4498TIP3    H134985   4.824   0.846  14.098  0.3810 -0.4073  3.3130
 4498TIP3    H234986   4.964   0.896  14.075 -0.6223  0.3345 -2.7501
 4499TIP3   OH234987   5.215   3.612   1.005 -0.3310 -0.2614  0.4531
 4499TIP3    H134988   5.226   3.593   0.912  0.0699 -0.0891  0.4642
 4499TIP3    H234989   5.123   3.637   1.013 -0.5080 -0.8043  0.1984
 4500TIP3   OH234990   6.628   4.069   1.039 -0.2311  0.4073  0.4188
 4500TIP3    H134991   6.611   3.975   1.036  0.8651  0.1533  1.5549
 4500TIP3    H234992   6.678   4.082   1.119 -0.3053  1.9604  0.2401
 4501TIP3   OH234993   6.740   4.840  16.808 -0.3046 -0.1790  0.2012
 4501TIP3    H134994   6.764   4.776  16.741  0.6701  0.5914 -0.1999
 4501TIP3    H234995   6.782   4.808  16.888  0.7454  0.3053 -0.1469
 4502TIP3   OH234996   3.373   1.324   0.002  0.4759 -0.2372  0.0889
 4502TIP3    H134997   3.344   1.329  -0.089 -1.1103  0.4211  0.5944
 4502TIP3    H234998   3.427   1.244   0.006  0.3732 -0.4054 -1.3510
 4503TIP3   OH234999   2.090   0.354   3.957 -0.5673 -0.3965 -0.2725
 4503TIP3    H135000   2.150   0.343   3.884 -1.7206 -0.2492 -1.2678
 4503TIP3    H235001   2.051   0.267   3.970 -1.3509 -0.1216 -0.7269
 4504TIP3   OH235002   6.760   5.979  12.229  0.2072 -0.2666  0.0398
 4504TIP3    H135003   6.806   6.042  12.174 -1.1278 -0.9389 -1.9775
 4504TIP3    H235004   6.828   5.941  12.284  1.3676  1.4800 -0.1145
 4505TIP3   OH235005   4.603   6.049   4.619  0.2207  0.1806  0.2280
 4505TIP3    H135006   4.609   5.981   4.686 -1.7311  0.6086  0.9270
 4505TIP3    H235007   4.560   6.123   4.664  1.8887  1.7357 -0.6129
 4506TIP3   OH235008   3.867   5.592   3.065 -0.5237  0.0781 -0.6783
 4506TIP3    H135009   3.901   5.548   3.143  0.0497  0.7837 -0.5181
 4506TIP3    H235010   3.863   5.684   3.090  1.6920  0.6578 -2.1257
 4507TIP3   OH235011   1.485   5.452  12.321 -0.1449  0.0164  0.3227
 4507TIP3    H135012   1.389   5.455  12.313 -0.1475  0.0739  0.3685
 4507TIP3    H235013   1.516   5.431  12.233 -0.3319 -3.4102  0.9560
 4508TIP3   OH235014   6.218   5.796   3.072  0.1152  0.3461 -0.4534
 4508TIP3    H135015   6.196   5.889   3.071 -2.7426 -0.2403 -1.6744
 4508TIP3    H235016   6.156   5.757   3.133  1.3360 -0.7705  0.1151
 4509TIP3   OH235017   0.092   3.089  14.970  0.0788  0.0992 -0.0560
 4509TIP3    H135018  -0.001   3.097  14.993 -0.1606 -1.7226 -0.2538
 4509TIP3    H235019   0.093   3.076  14.876  0.4097 -1.4043  0.1354
 4510TIP3   OH235020   0.494   0.439   3.361  0.1252 -0.6357  0.1265
 4510TIP3    H135021   0.402   0.440   3.332 -0.1389 -0.9590  0.9186
 4510TIP3    H235022   0.508   0.349   3.391  0.6067 -0.5063  0.2901
 4511TIP3   OH235023   2.638   4.264   3.037 -0.3127 -0.6625 -0.4173
 4511TIP3    H135024   2.560   4.317   3.023 -1.5951 -2.0317  1.1007
 4511TIP3    H235025   2.648   4.213   2.957 -0.4141  0.1834 -0.9771
 4512TIP3   OH235026   0.931   1.650   5.041  0.1934 -0.1406  0.1937
 4512TIP3    H135027   0.866   1.705   4.996  2.3521  2.0275 -0.4973
 4512TIP3    H235028   0.954   1.699   5.119 -0.9982 -2.2700  2.0045
 4513TIP3   OH235029   2.804   0.954  11.904  0.4045 -0.1781  0.3444
 4513TIP3    H135030   2.748   0.991  11.836  1.9270  2.7473  0.5169
 4513TIP3    H235031   2.863   0.896  11.857 -0.1947 -0.1837 -0.4292
 4514TIP3   OH235032   6.800   3.661   1.331 -0.6355 -0.3226 -0.4149
 4514TIP3    H135033   6.717   3.646   1.378 -1.0974 -0.7703 -1.3411
 4514TIP3    H235034   6.782   3.632   1.242  0.6093 -0.6582 -0.5727
 4515TIP3   OH235035   3.417   5.841   1.676  0.0620  0.0386 -0.5570
 4515TIP3    H135036   3.407   5.778   1.748  0.7013  0.6288  0.0699
 4515TIP3    H235037   3.438   5.787   1.600  2.2600 -0.4331  0.3029
 4516TIP3   OH235038   4.153   0.062  13.541  0.5890 -0.5619  0.5878
 4516TIP3    H135039   4.225   0.094  13.487  0.3631  2.9231  2.0718
 4516TIP3    H235040   4.181   0.078  13.631 -1.8793  0.8244  1.2283
 4517TIP3   OH235041   3.640   4.178   2.017 -0.4217 -0.3331 -0.0989
 4517TIP3    H135042   3.712   4.118   2.041 -0.2420 -0.5243 -1.0775
 4517TIP3    H235043   3.679   4.265   2.022  0.5372 -0.5364 -2.6681
 4518TIP3   OH235044   4.764   4.496   5.091 -0.2477 -0.0830  0.3971
 4518TIP3    H135045   4.713   4.501   5.010  0.7242  1.1252 -0.1731
 4518TIP3    H235046   4.826   4.424   5.076 -0.8010 -0.5928  0.5192
 4519TIP3   OH235047   5.510   4.579  15.201 -0.4290 -0.1666 -0.1115
 4519TIP3    H135048   5.489   4.501  15.149 -1.1583  0.2184 -0.4044
 4519TIP3    H235049   5.515   4.547  15.291 -1.3500 -0.4466 -0.1491
 4520TIP3   OH235050   5.583   6.677   0.713 -0.1497  0.4403  0.4963
 4520TIP3    H135051   5.622   6.628   0.641 -2.0919  0.2100 -0.4673
 4520TIP3    H235052   5.657   6.718   0.757  1.5250 -2.6700  0.8599
 4521TIP3   OH235053   0.790   4.411   0.733  0.2231  0.4302 -0.2071
 4521TIP3    H135054   0.771   4.318   0.728  0.6303  0.0848  2.6064
 4521TIP3    H235055   0.886   4.416   0.738  0.1484  0.7569  1.7786
 4522TIP3   OH235056   4.305   1.133   2.229 -0.2980  0.7533  0.0034
 4522TIP3    H135057   4.229   1.116   2.174 -0.1134  1.8816 -0.6220
 4522TIP3    H235058   4.376   1.153   2.168  1.1904 -2.5456  0.4296
 4523TIP3   OH235059   1.005   4.585   5.227  0.1643 -0.1870  0.5246
 4523TIP3    H135060   0.936   4.612   5.287 -0.0304 -0.5630  0.4671
 4523TIP3    H235061   1.046   4.668   5.199 -1.3347  0.1760 -0.7515
 4524TIP3   OH235062   3.705   1.723  16.387 -1.1172 -0.0297  0.0280
 4524TIP3    H135063   3.723   1.634  16.355 -0.9077 -0.3786  1.0758
 4524TIP3    H235064   3.669   1.769  16.311 -1.0126 -0.9427 -0.5906
 4525TIP3   OH235065   2.953   5.102   0.942  0.7263 -0.2365  0.3145
 4525TIP3    H135066   2.893   5.176   0.945 -0.0695 -0.8787  0.4891
 4525TIP3    H235067   3.017   5.126   0.875  0.8624  0.8896  0.8206
 4526TIP3   OH235068   3.265   5.109  11.573 -0.2975  0.4563  0.0805
 4526TIP3    H135069   3.268   5.082  11.665 -2.2671 -0.5450 -0.0943
 4526TIP3    H235070   3.180   5.152  11.564 -0.1136  0.5695 -1.2525
 4527TIP3   OH235071   1.662   0.196   4.246  0.4768  0.2553 -0.0475
 4527TIP3    H135072   1.731   0.189   4.180 -0.2007 -1.5166 -0.6156
 4527TIP3    H235073   1.585   0.159   4.204 -0.2060 -0.0518  1.4289
 4528TIP3   OH235074   1.852   4.404   3.690 -0.3258  0.4966  0.3290
 4528TIP3    H135075   1.870   4.345   3.617  0.2954  1.5426 -0.3931
 4528TIP3    H235076   1.888   4.488   3.662 -2.0278  1.4693  0.9188
 4529TIP3   OH235077   2.348   2.390  12.957 -0.9044  0.5284  0.0824
 4529TIP3    H135078   2.269   2.338  12.942 -1.3240  0.7433  1.4400
 4529TIP3    H235079   2.316   2.476  12.982 -0.3347 -0.0275  3.0245
 4530TIP3   OH235080   5.385   3.739   3.205 -0.2831 -0.2646 -0.5092
 4530TIP3    H135081   5.306   3.758   3.256  1.5328 -1.0933  2.9410
 4530TIP3    H235082   5.440   3.816   3.217  0.5015 -0.8087 -0.5561
 4531TIP3   OH235083   4.237   1.241   0.277 -0.3379  0.1997  0.4884
 4531TIP3    H135084   4.286   1.305   0.328 -1.0499  0.6491  0.6294
 4531TIP3    H235085   4.244   1.272   0.186  1.1513 -0.7452  0.2439
 4532TIP3   OH235086   5.478   1.976   1.938  0.1031 -0.6856 -0.4469
 4532TIP3    H135087   5.488   2.063   1.900 -0.6689 -0.7282 -0.7570
 4532TIP3    H235088   5.444   1.992   2.026  0.7854 -0.6413 -0.1845
 4533TIP3   OH235089   0.768   5.105   1.354  0.3682 -0.4104 -0.4390
 4533TIP3    H135090   0.692   5.047   1.352  0.6181 -0.7451 -0.3257
 4533TIP3    H235091   0.766   5.145   1.441 -0.9610  1.3210 -1.2088
 4534TIP3   OH235092   4.765   3.364   3.471 -0.3077  0.7343  1.0151
 4534TIP3    H135093   4.768   3.399   3.560 -0.8784  1.0665  0.9080
 4534TIP3    H235094   4.732   3.437   3.418  0.8027  0.8189  0.3899
 4535TIP3   OH235095   3.937   6.653  12.591 -0.2891  0.8273  0.0830
 4535TIP3    H135096   3.912   6.742  12.614 -0.7471  0.4462  1.1304
 4535TIP3    H235097   3.874   6.597  12.637  1.3110 -0.0965  1.3082
 4536TIP3   OH235098   2.339   3.327  10.364 -0.6121  0.6579  0.0822
 4536TIP3    H135099   2.397   3.356  10.435 -2.6581 -0.2811  2.2420
 4536TIP3    H235100   2.288   3.405  10.342 -0.9982  0.5790  0.6894
 4537TIP3   OH235101   1.685   6.047   0.859  0.0044  0.2021  0.6035
 4537TIP3    H135102   1.654   5.963   0.825 -0.2613  0.6135 -0.1722
 4537TIP3    H235103   1.724   6.091   0.784  1.7179  0.0605  1.3662
 4538TIP3   OH235104   4.206   6.781   5.690 -0.3330 -0.0025 -0.2262
 4538TIP3    H135105   4.254   6.726   5.751  0.3231  1.9118  1.0723
 4538TIP3    H235106   4.161   6.846   5.745 -0.7703  1.0007 -1.6906
 4539TIP3   OH235107   4.938   4.037  16.613 -0.3400 -0.4240 -0.2012
 4539TIP3    H135108   4.985   4.081  16.684 -1.8141 -0.5720  0.9062
 4539TIP3    H235109   4.903   4.109  16.560  0.3010 -0.3099 -0.4802
 4540TIP3   OH235110   6.705   6.516   3.538  0.3628  0.3650 -0.5317
 4540TIP3    H135111   6.790   6.472   3.528  0.3171 -0.1741  1.1199
 4540TIP3    H235112   6.645   6.465   3.484  0.2601 -1.8439  1.5419
 4541TIP3   OH235113   2.569   6.245  15.365  0.2785 -0.1903  0.3314
 4541TIP3    H135114   2.500   6.276  15.424  0.8839 -1.1970  1.5882
 4541TIP3    H235115   2.651   6.267  15.409  0.7690  0.0901 -0.6878
 4542TIP3   OH235116   5.450   1.307  16.211  0.0989 -0.5696 -0.3992
 4542TIP3    H135117   5.363   1.289  16.247 -0.5171  2.2161 -0.2303
 4542TIP3    H235118   5.433   1.348  16.127  0.9808  2.7299  0.8594
 4543TIP3   OH235119   5.163   4.037   3.405  0.1223 -0.0162  0.0304
 4543TIP3    H135120   5.115   3.977   3.348 -0.1214  0.4374 -0.2505
 4543TIP3    H235121   5.100   4.063   3.472 -0.2335  1.0456 -0.6808
 4544TIP3   OH235122   5.434   5.255  17.027  0.0054  0.5756  0.3873
 4544TIP3    H135123   5.398   5.340  17.054 -0.5504  0.9116 -1.3227
 4544TIP3    H235124   5.375   5.224  16.960  0.5547 -0.9060  0.5508
 4545TIP3   OH235125   4.889   4.578   4.134  0.3641  0.6586 -0.1496
 4545TIP3    H135126   4.873   4.572   4.040 -0.7185 -1.7914  0.1004
 4545TIP3    H235127   4.809   4.617   4.170  1.4558  3.2436 -0.3361
 4546TIP3   OH235128   3.164   5.063   2.959  0.0103 -0.5583  0.2141
 4546TIP3    H135129   3.075   5.089   2.938  0.6460  2.0731  0.3735
 4546TIP3    H235130   3.156   5.011   3.039 -1.3990 -0.7859 -0.0519
 4547TIP3   OH235131   0.428   4.582   4.472  0.2776  0.7412  0.5976
 4547TIP3    H135132   0.335   4.600   4.484 -0.0696  0.8850 -1.7456
 4547TIP3    H235133   0.440   4.493   4.507 -1.5527 -0.6596 -1.9625
 4548TIP3   OH235134   4.452   5.226  14.987  0.2197 -0.5394  0.6168
 4548TIP3    H135135   4.522   5.260  15.043 -0.8473 -2.4037  3.2840
 4548TIP3    H235136   4.427   5.143  15.029 -3.4770 -0.0259 -0.3070
 4549TIP3   OH235137   6.786   0.319   4.831  0.4230 -0.1019 -0.0364
 4549TIP3    H135138   6.692   0.335   4.842  0.2067 -1.6916  0.7578
 4549TIP3    H235139   6.798   0.311   4.737 -0.0853  0.8949 -0.2001
 4550TIP3   OH235140   5.586   3.900   3.908 -0.1967  0.0168  0.0212
 4550TIP3    H135141   5.523   3.901   3.981  0.6694  0.4515  0.7813
 4550TIP3    H235142   5.671   3.889   3.950  0.3506  0.6096 -0.9040
 4551TIP3   OH235143   5.127   0.954  15.035 -0.0689  1.0221 -0.5949
 4551TIP3    H135144   5.204   0.958  14.978 -0.7670  1.8038 -1.5468
 4551TIP3    H235145   5.134   1.033  15.089 -0.6474  1.5966 -1.3287
 4552TIP3   OH235146   2.113   6.202   2.804 -0.1424  0.0696  0.6191
 4552TIP3    H135147   2.089   6.132   2.864 -1.4756  0.5893  0.7355
 4552TIP3    H235148   2.118   6.281   2.858  1.9827  0.0052  0.6074
 4553TIP3   OH235149   4.432   6.507   1.828 -0.0099  0.0192  0.1697
 4553TIP3    H135150   4.420   6.427   1.777 -1.1374 -0.5321  1.2403
 4553TIP3    H235151   4.358   6.562   1.803  0.3954  0.4567 -0.0701
 4554TIP3   OH235152   0.649   4.856   5.628  0.4544  0.4471  0.0507
 4554TIP3    H135153   0.641   4.952   5.621 -0.9430  0.6828  3.0680
 4554TIP3    H235154   0.737   4.837   5.596  0.6266  2.6947 -1.0129
 4555TIP3   OH235155   3.521   5.318   3.349  0.4047 -0.6424  0.4697
 4555TIP3    H135156   3.531   5.407   3.314 -2.3286 -0.3058  0.3263
 4555TIP3    H235157   3.469   5.272   3.283 -2.9773 -0.6481  2.8552
 4556TIP3   OH235158   0.732   4.001  16.373  0.2036 -0.6503 -0.4117
 4556TIP3    H135159   0.700   4.042  16.453 -1.2944 -0.8891 -0.8577
 4556TIP3    H235160   0.708   3.909  16.382 -0.6841 -0.5369 -1.4618
 4557TIP3   OH235161   2.468   3.648   3.359  0.1726 -0.2314  0.1399
 4557TIP3    H135162   2.406   3.694   3.415 -1.7431 -3.0908  0.5951
 4557TIP3    H235163   2.454   3.686   3.272  0.1131  1.3418  0.8027
 4558TIP3   OH235164   4.414   5.474  11.467 -0.4329  0.6665 -0.1422
 4558TIP3    H135165   4.346   5.474  11.535 -0.9577 -1.3777 -0.5844
 4558TIP3    H235166   4.487   5.522  11.506 -0.9608  0.1272  1.6251
 4559TIP3   OH235167   4.967   1.327   4.807 -0.4104  0.0632  0.5877
 4559TIP3    H135168   4.966   1.326   4.903 -2.0597  1.6259  0.6261
 4559TIP3    H235169   4.926   1.410   4.783  2.0982  0.8422 -1.4923
 4560TIP3   OH235170   2.830   1.547  12.811 -0.4011 -0.4754  0.0078
 4560TIP3    H135171   2.765   1.526  12.744 -0.2967 -0.3214 -0.1404
 4560TIP3    H235172   2.780   1.545  12.893 -1.5791  3.6229 -0.3941
 4561TIP3   OH235173   1.277   0.420  13.604 -0.5861 -0.4193  0.0347
 4561TIP3    H135174   1.334   0.378  13.669 -1.1439 -0.1807  0.6926
 4561TIP3    H235175   1.188   0.402  13.636 -0.9762 -2.1036 -1.7681
 4562TIP3   OH235176   0.952   1.257  12.397 -0.5362  0.1242  0.0788
 4562TIP3    H135177   0.905   1.340  12.400 -1.4434 -0.3824  0.2437
 4562TIP3    H235178   1.028   1.271  12.453  0.4839  1.5103 -1.5596
 4563TIP3   OH235179   1.558   2.646  16.145 -0.5556 -0.0958  0.2515
 4563TIP3    H135180   1.488   2.706  16.171 -1.0125 -0.0796 -0.9912
 4563TIP3    H235181   1.537   2.622  16.055  0.7745 -0.4737  0.0277
 4564TIP3   OH235182   6.587   1.487  14.582  0.2049 -0.3228 -0.0697
 4564TIP3    H135183   6.663   1.431  14.565  1.6199  1.4437  0.0349
 4564TIP3    H235184   6.595   1.558  14.518 -0.1932  0.9677  1.2513
 4565TIP3   OH235185   1.185   5.697  11.618 -0.8453  0.0541 -0.0054
 4565TIP3    H135186   1.090   5.691  11.606 -0.9423  0.0437  0.7219
 4565TIP3    H235187   1.197   5.779  11.666 -0.5819 -0.4517  0.8087
 4566TIP3   OH235188   4.876   2.764   2.530 -0.1376  0.1988  0.0419
 4566TIP3    H135189   4.922   2.833   2.481  1.0285 -0.8516 -0.4007
 4566TIP3    H235190   4.788   2.761   2.491  0.2612  0.4721 -0.9093
 4567TIP3   OH235191   6.706   2.489  13.879 -0.0838  0.1295 -0.0288
 4567TIP3    H135192   6.646   2.563  13.871  0.5629  0.8909  1.7578
 4567TIP3    H235193   6.649   2.413  13.896 -0.6446  0.4942 -0.2459
 4568TIP3   OH235194   4.259   6.470  15.256  0.2543  0.2720 -0.1818
 4568TIP3    H135195   4.350   6.493  15.233 -0.0564  1.7632 -0.0715
 4568TIP3    H235196   4.209   6.549  15.235 -0.8627 -0.1834  0.6740
 4569TIP3   OH235197   5.364   5.579   5.495  0.1161 -0.3289 -0.0890
 4569TIP3    H135198   5.341   5.647   5.558  1.3861  0.1333 -0.1001
 4569TIP3    H235199   5.303   5.508   5.514  0.0201  0.0692  1.1930
 4570TIP3   OH235200   6.040   0.476   0.533  0.2544 -0.5240  0.0307
 4570TIP3    H135201   5.990   0.507   0.457  2.2797  0.0718 -1.1350
 4570TIP3    H235202   5.990   0.507   0.609 -1.2820 -0.2247 -1.0475
 4571TIP3   OH235203   3.929   5.013   1.557  0.1625  0.1931 -0.0600
 4571TIP3    H135204   3.834   5.007   1.564  0.0058  0.9865 -1.1384
 4571TIP3    H235205   3.949   5.103   1.581  0.6804 -0.0676  0.4886
 4572TIP3   OH235206   1.636   6.716   5.432  0.1909  0.1058 -0.4436
 4572TIP3    H135207   1.655   6.805   5.463  2.8989  0.2034 -2.0987
 4572TIP3    H235208   1.660   6.660   5.506  0.4576  0.6267 -0.1269
 4573TIP3   OH235209   5.779   2.764   4.209  0.1809  0.7381 -0.0143
 4573TIP3    H135210   5.835   2.765   4.286 -0.5669 -0.2175  0.5771
 4573TIP3    H235211   5.740   2.851   4.207  0.7153  0.9880  0.3101
 4574TIP3   OH235212   2.359   2.278   5.441 -1.0478  0.4028  0.2180
 4574TIP3    H135213   2.314   2.350   5.485 -1.7702  0.2136 -0.1981
 4574TIP3    H235214   2.292   2.238   5.384 -0.6207 -0.4929  0.3180
 4575TIP3   OH235215   4.074   0.756   1.647 -0.5884 -0.5468 -0.3287
 4575TIP3    H135216   4.039   0.698   1.714  0.8288 -0.3967  0.5800
 4575TIP3    H235217   4.165   0.728   1.636  0.5164  2.1173  0.9369
 4576TIP3   OH235218   4.429   5.915  14.721  0.1004  0.0231  0.4937
 4576TIP3    H135219   4.375   5.992  14.741 -0.3316  0.9972 -3.5076
 4576TIP3    H235220   4.366   5.844  14.709 -0.0298  0.3059 -0.6540
 4577TIP3   OH235221   2.664   4.090  16.458 -0.5272  0.1946  0.7611
 4577TIP3    H135222   2.634   4.011  16.413  0.9857 -1.4405  2.4468
 4577TIP3    H235223   2.699   4.146  16.388  0.1071 -1.4663 -0.3065
 4578TIP3   OH235224   0.290   1.174  16.177  0.4809  0.6906 -0.4347
 4578TIP3    H135225   0.208   1.173  16.226  0.0649  0.2220 -1.1174
 4578TIP3    H235226   0.286   1.095  16.123  1.1616  0.9229 -0.8320
 4579TIP3   OH235227   4.108   0.221  13.194  0.7614  0.2889 -0.2998
 4579TIP3    H135228   4.055   0.299  13.183  2.1575  1.1154 -1.5265
 4579TIP3    H235229   4.185   0.252  13.242  1.5785 -0.2042 -1.2713
 4580TIP3   OH235230   0.109   4.416   4.576 -0.2967 -0.4569 -0.2420
 4580TIP3    H135231   0.043   4.354   4.544 -2.3821  2.0145 -1.0865
 4580TIP3    H235232   0.067   4.458   4.652  1.2180 -0.3291  0.5649
 4581TIP3   OH235233   3.877   2.130   3.282 -0.7241  0.8563 -0.3105
 4581TIP3    H135234   3.922   2.121   3.198 -1.5425 -1.2914 -0.5901
 4581TIP3    H235235   3.908   2.214   3.317 -0.3233  1.8102 -2.7148
 4582TIP3   OH235236   4.075   6.187  16.825  0.0389  0.2135  0.5586
 4582TIP3    H135237   4.155   6.143  16.851 -0.3990 -0.2516  1.1370
 4582TIP3    H235238   4.032   6.127  16.764  0.0111  0.3641  0.4262
 4583TIP3   OH235239   0.024   3.850   5.747 -0.2606 -0.3192 -0.6165
 4583TIP3    H135240  -0.010   3.916   5.808  1.8215 -0.5261  0.8943
 4583TIP3    H235241  -0.018   3.870   5.664 -0.8494  1.9681  0.1615
 4584TIP3   OH235242   1.085   3.332   0.324 -0.3129 -0.0816 -0.0398
 4584TIP3    H135243   1.151   3.375   0.270  0.3514 -0.9679  0.0459
 4584TIP3    H235244   1.103   3.238   0.314 -0.0773 -0.2744  1.8032
 4585TIP3   OH235245   0.096   3.059  14.251 -0.0799  0.9769  1.0969
 4585TIP3    H135246   0.121   3.148  14.228 -1.5778  1.2475  0.4214
 4585TIP3    H235247   0.101   3.058  14.347  2.2939  1.0239  1.0414
 4586TIP3   OH235248   4.923   0.770   1.335 -0.1898 -0.0130  0.1539
 4586TIP3    H135249   4.950   0.681   1.357  0.5438  0.3591  0.8096
 4586TIP3    H235250   5.005   0.815   1.314 -0.2812  1.0768  1.9378
 4587TIP3   OH235251   3.278   4.539  13.179  0.1854 -0.1029 -0.2160
 4587TIP3    H135252   3.367   4.511  13.202  0.0737 -1.2455 -1.0465
 4587TIP3    H235253   3.238   4.461  13.141 -1.2340  0.3582  0.2830
 4588TIP3   OH235254   1.905   4.004   1.930  0.1164  0.5018  1.0327
 4588TIP3    H135255   1.979   3.955   1.894  1.0885  2.0568  0.8489
 4588TIP3    H235256   1.906   4.087   1.883 -1.4708  0.7424  1.3689
 4589TIP3   OH235257   6.810   3.930  14.900 -0.2676 -1.1356 -0.1015
 4589TIP3    H135258   6.768   4.010  14.931  0.8336 -0.6480  0.2007
 4589TIP3    H235259   6.756   3.901  14.827 -1.2949 -0.7195  0.4703
 4590TIP3   OH235260   3.059   0.632   3.029  0.0530 -0.1939 -0.6410
 4590TIP3    H135261   3.068   0.546   2.990  1.6537  0.1463 -1.0916
 4590TIP3    H235262   3.133   0.682   2.995 -0.1265  0.9826  0.6000
 4591TIP3   OH235263   1.084   3.801  11.702  0.1605 -0.1628 -0.2926
 4591TIP3    H135264   1.138   3.820  11.778  0.9406 -2.3009 -0.2678
 4591TIP3    H235265   1.121   3.855  11.632  0.9824 -0.0436  0.2243
 4592TIP3   OH235266   4.625   4.501   4.014 -0.4341  0.0774 -0.2331
 4592TIP3    H135267   4.547   4.490   4.068 -0.2099  1.3016  0.3779
 4592TIP3    H235268   4.688   4.438   4.048 -0.2459  0.9328  1.0674
 4593TIP3   OH235269   2.934   4.616  14.150 -0.1604  0.2371  0.0788
 4593TIP3    H135270   3.020   4.610  14.190  0.9955 -0.9293 -2.3396
 4593TIP3    H235271   2.943   4.684  14.083 -1.3152  0.5649  0.2320
 4594TIP3   OH235272   3.410   6.100  15.859 -0.2488 -0.1264 -0.1697
 4594TIP3    H135273   3.329   6.060  15.888 -0.1222 -0.9806 -0.9417
 4594TIP3    H235274   3.463   6.026  15.827  2.0441 -0.0324  3.0025
 4595TIP3   OH235275   0.255   5.761  16.307  0.0116  0.2354  0.1013
 4595TIP3    H135276   0.290   5.677  16.337  0.4792  1.0597  1.9996
 4595TIP3    H235277   0.278   5.823  16.376 -1.4967  1.6799 -0.6225
 4596TIP3   OH235278   4.691   4.957   3.469  0.1389  0.8192 -0.1775
 4596TIP3    H135279   4.743   5.033   3.497  0.3386  0.2749  1.0216
 4596TIP3    H235280   4.711   4.890   3.534 -1.7162  0.4393  0.0563
 4597TIP3   OH235281   0.406   1.447  15.393  0.1154  0.0277  0.3282
 4597TIP3    H135282   0.317   1.469  15.421  0.3823  0.6925  0.6935
 4597TIP3    H235283   0.461   1.474  15.467  0.7070  0.4898 -0.2640
 4598TIP3   OH235284   6.209   4.687   0.910  0.1602 -0.3487 -0.2306
 4598TIP3    H135285   6.205   4.770   0.958 -0.8687 -0.8253  0.5394
 4598TIP3    H235286   6.270   4.633   0.960  0.8990 -0.0538 -0.7810
 4599TIP3   OH235287   2.527   1.097  11.117  0.0990 -0.3062  0.0222
 4599TIP3    H135288   2.509   1.104  11.211  2.6867  1.1339  0.5272
 4599TIP3    H235289   2.482   1.018  11.090 -1.7555 -0.1074  2.1871
 4600TIP3   OH235290   2.716   0.893  16.342 -0.0399 -0.5782 -0.3759
 4600TIP3    H135291   2.643   0.947  16.372  0.2437 -0.9099  0.9953
 4600TIP3    H235292   2.777   0.892  16.416  0.4167 -1.9461 -0.7403
 4601TIP3   OH235293   1.187   3.366   5.102  0.2417  0.4387  0.6208
 4601TIP3    H135294   1.235   3.393   5.024 -1.1089 -0.2651 -0.4980
 4601TIP3    H235295   1.209   3.274   5.114  2.5643  1.1521  2.7334
 4602TIP3   OH235296   4.712   6.793   1.109 -0.3721 -0.0010  0.1590
 4602TIP3    H135297   4.652   6.720   1.122  0.3456 -0.4198  1.2594
 4602TIP3    H235298   4.785   6.755   1.060 -0.6799  0.3536 -0.5980
 4603TIP3   OH235299   0.036   2.725  13.715 -0.0819 -0.2641  0.1910
 4603TIP3    H135300  -0.014   2.720  13.796  0.0879 -0.1400  0.3053
 4603TIP3    H235301   0.116   2.772  13.739  0.8689 -1.9140  0.3969
 4604TIP3   OH235302   1.775   4.620   1.396 -0.3685 -0.0728 -0.4572
 4604TIP3    H135303   1.713   4.550   1.375  2.9317 -2.7897 -2.3534
 4604TIP3    H235304   1.753   4.691   1.336 -1.4328 -1.1101 -1.3522
 4605TIP3   OH235305   4.997   6.751  16.064 -0.2754  0.0600  0.6690
 4605TIP3    H135306   4.943   6.681  16.100 -0.6303  0.7353  1.4783
 4605TIP3    H235307   5.021   6.720  15.977 -2.5420  0.0325 -0.0141
 4606TIP3   OH235308   4.666   4.482   0.329  0.2286  0.3655 -0.0792
 4606TIP3    H135309   4.701   4.407   0.282 -0.1513  0.2320 -0.1530
 4606TIP3    H235310   4.742   4.520   0.373  0.1754 -0.9672  1.2310
 4607TIP3   OH235311   1.672   5.431   1.592  0.2117  0.5342 -0.2057
 4607TIP3    H135312   1.579   5.454   1.596 -1.1947 -4.2863  0.6331
 4607TIP3    H235313   1.690   5.422   1.499 -0.6664 -0.1138 -0.3264
 4608TIP3   OH235314   4.105   5.358   4.003 -0.0981 -0.4487  0.3215
 4608TIP3    H135315   4.092   5.273   3.961  2.2137 -0.6651 -0.0814
 4608TIP3    H235316   4.147   5.338   4.086 -0.4804  0.2507  0.6973
 4609TIP3   OH235317   0.128   4.151  14.537  0.7019 -0.0628 -0.2685
 4609TIP3    H135318   0.040   4.136  14.570  0.3804 -0.9639 -1.4458
 4609TIP3    H235319   0.185   4.105  14.599  0.1459 -1.4168 -0.7268
 4610TIP3   OH235320   3.713   5.901  11.110 -0.2938 -0.2817  0.1288
 4610TIP3    H135321   3.711   5.895  11.015  1.2211  0.1570  0.0429
 4610TIP3    H235322   3.674   5.819  11.140 -0.8199 -0.4061 -0.8612
 4611TIP3   OH235323   3.540   3.772  16.862 -0.1666  0.1040 -0.1428
 4611TIP3    H135324   3.554   3.743  16.772  3.5615 -1.1489  0.6472
 4611TIP3    H235325   3.628   3.782  16.897 -1.4552  2.7351  2.7653
 4612TIP3   OH235326   0.428   1.199   4.978  0.3883 -0.1981  0.1737
 4612TIP3    H135327   0.377   1.264   5.025 -0.2422 -1.3697  1.1815
 4612TIP3    H235328   0.389   1.197   4.890 -1.8802 -1.5903  1.1260
 4613TIP3   OH235329   3.039   0.723   5.163  0.2656  0.5431  0.0708
 4613TIP3    H135330   3.112   0.776   5.131  1.9590 -0.6799  1.6655
 4613TIP3    H235331   3.034   0.649   5.102 -0.0829  0.9646 -0.4152
 4614TIP3   OH235332   4.013   6.183   4.249  0.3078 -0.2423 -0.0887
 4614TIP3    H135333   3.980   6.191   4.338 -2.7980 -1.4550 -0.9944
 4614TIP3    H235334   4.104   6.210   4.254  0.1332  0.0603  3.3582
 4615TIP3   OH235335   0.625   3.574  12.646 -0.0668 -0.1938  0.3404
 4615TIP3    H135336   0.535   3.604  12.639 -0.2361 -0.7338  0.1972
 4615TIP3    H235337   0.662   3.586  12.558  0.4842  1.5243  0.7686
 4616TIP3   OH235338   4.320   1.242   4.512  0.0696  0.0898 -0.4967
 4616TIP3    H135339   4.265   1.164   4.501 -0.8576  0.7208 -0.5230
 4616TIP3    H235340   4.290   1.280   4.595  0.3462  0.5440 -0.6046
 4617TIP3   OH235341   2.347   4.582  14.765  0.3798  0.2539  0.4647
 4617TIP3    H135342   2.348   4.632  14.683  3.6864  0.4877  0.5121
 4617TIP3    H235343   2.274   4.619  14.815 -0.3116  1.6589 -1.4433
 4618TIP3   OH235344   2.105   0.667   0.623  0.3641 -0.0973 -0.1159
 4618TIP3    H135345   2.070   0.727   0.558 -1.4383 -0.4036  0.5218
 4618TIP3    H235346   2.091   0.580   0.586 -1.0587 -0.2998  0.7877
 4619TIP3   OH235347   0.943   1.969   2.435  0.3041 -0.5184 -0.1756
 4619TIP3    H135348   0.903   1.957   2.521 -0.9228 -2.9690 -0.9872
 4619TIP3    H235349   0.910   2.054   2.405  1.6443  0.9379  2.1322
 4620TIP3   OH235350   2.597   5.263  11.112  0.0661  0.0392 -0.6515
 4620TIP3    H135351   2.652   5.335  11.140  0.5582 -1.1407  1.6198
 4620TIP3    H235352   2.597   5.269  11.016  2.4657  1.2811 -0.6467
 4621TIP3   OH235353   1.840   2.069  13.700 -0.0724  0.2410 -0.2751
 4621TIP3    H135354   1.912   2.087  13.639  0.2250  0.9008  0.2586
 4621TIP3    H235355   1.875   2.090  13.786 -1.2196  1.6013 -0.1019
 4622TIP3   OH235356   0.868   1.601   0.928 -0.1165 -0.4260 -0.1208
 4622TIP3    H135357   0.861   1.643   0.842  0.8191  1.0041  0.4632
 4622TIP3    H235358   0.885   1.673   0.989  0.6455 -1.5569  1.0659
 4623TIP3   OH235359   6.679   2.947  17.141 -0.2299 -0.0720 -0.5364
 4623TIP3    H135360   6.763   2.928  17.100  0.9045 -1.1915  2.0481
 4623TIP3    H235361   6.684   2.903  17.226 -2.2179  2.3833  0.9732
 4624TIP3   OH235362   3.665   6.316  13.642  0.1959 -0.1526 -0.1072
 4624TIP3    H135363   3.756   6.330  13.669  0.4721 -1.8657 -0.0519
 4624TIP3    H235364   3.636   6.402  13.613  0.8175  1.1418  2.7748
 4625TIP3   OH235365   5.423   2.458  10.529  0.4247 -0.5170  0.1418
 4625TIP3    H135366   5.338   2.447  10.572  0.0529  1.1214 -0.1317
 4625TIP3    H235367   5.466   2.528  10.578  0.7023  0.1806 -1.0600
 4626TIP3   OH235368   2.819   3.865  12.076  0.0067 -0.0688 -0.3936
 4626TIP3    H135369   2.780   3.943  12.115  0.0059  0.9419 -2.2827
 4626TIP3    H235370   2.904   3.895  12.045  0.7063 -1.2756  0.2939
 4627TIP3   OH235371   5.489   1.096  13.399  0.2435 -0.4426 -0.3698
 4627TIP3    H135372   5.497   1.145  13.481 -0.6254 -0.4467 -0.2705
 4627TIP3    H235373   5.515   1.158  13.331  4.8042 -1.5266  0.0864
 4628TIP3   OH235374   5.337   4.084  14.611  0.7094  0.0544 -0.2922
 4628TIP3    H135375   5.289   4.005  14.587  1.1774 -0.1057 -0.7083
 4628TIP3    H235376   5.279   4.156  14.584 -0.4267 -0.1246  1.5141
 4629TIP3   OH235377   5.814   5.565   6.380  0.1592 -0.2866  0.4053
 4629TIP3    H135378   5.758   5.605   6.447  1.0944  1.7652  0.0252
 4629TIP3    H235379   5.895   5.616   6.382  2.0878 -3.0777  0.8924
 4630TIP3   OH235380   5.037   3.304   0.834 -0.1241 -0.5428  0.6299
 4630TIP3    H135381   5.074   3.217   0.819  0.4022 -0.1500 -0.4149
 4630TIP3    H235382   5.111   3.364   0.825 -0.9737  0.2804 -1.7509
 4631TIP3   OH235383   6.477   4.562  11.441 -0.9053 -0.1310  0.6032
 4631TIP3    H135384   6.459   4.646  11.398 -0.1125  0.2879  1.0657
 4631TIP3    H235385   6.505   4.504  11.369  0.4704  0.5826  0.5226
 4632TIP3   OH235386   4.520   6.036  11.297  0.6757  0.0670 -0.2021
 4632TIP3    H135387   4.514   6.070  11.208 -0.3829  0.8474  0.1459
 4632TIP3    H235388   4.429   6.034  11.329  0.9949 -0.5633  0.7200
 4633TIP3   OH235389   4.163   5.648  16.790 -0.1575 -0.3718  0.0282
 4633TIP3    H135390   4.243   5.699  16.801 -0.6996  0.5418 -0.1696
 4633TIP3    H235391   4.107   5.674  16.863 -0.0809 -1.4200  0.4893
 4634TIP3   OH235392   1.904   5.737  14.409  0.0243  0.6768 -0.2555
 4634TIP3    H135393   1.877   5.648  14.432  0.3471  0.8712  0.9365
 4634TIP3    H235394   1.826   5.778  14.373 -0.3126  0.1426 -0.1385
 4635TIP3   OH235395   5.369   3.492  16.737  0.5572  0.1652 -0.2494
 4635TIP3    H135396   5.317   3.559  16.693  0.2803  0.2680  0.2309
 4635TIP3    H235397   5.322   3.475  16.819  2.1022  1.3968  0.9496
 4636TIP3   OH235398   3.099   2.120   0.365  0.2645  0.0383  0.7127
 4636TIP3    H135399   3.147   2.058   0.420 -0.3006 -1.5740 -0.5460
 4636TIP3    H235400   3.007   2.103   0.385  0.0478 -0.6472 -0.7836
 4637TIP3   OH235401   2.740   2.315   5.113 -0.4205 -0.0760 -0.1101
 4637TIP3    H135402   2.817   2.286   5.063  0.6240  1.4919  0.5064
 4637TIP3    H235403   2.771   2.323   5.203 -1.2704  0.6795  0.1375
 4638TIP3   OH235404   5.923   5.094   0.955  0.5733  0.0006  0.2610
 4638TIP3    H135405   5.838   5.056   0.934  1.1566 -1.6206  0.6909
 4638TIP3    H235406   5.984   5.055   0.892  1.4609 -1.0561  1.7118
 4639TIP3   OH235407   5.607   6.786  12.435  0.0694  0.1323 -0.5205
 4639TIP3    H135408   5.636   6.713  12.489  0.0181 -0.7603 -1.6629
 4639TIP3    H235409   5.555   6.841  12.494 -1.3167 -1.6353 -0.0093
 4640TIP3   OH235410   3.135   0.405  12.235  0.1904 -0.3667  0.4861
 4640TIP3    H135411   3.164   0.314  12.240 -1.1436 -0.7697  1.3898
 4640TIP3    H235412   3.146   0.439  12.324  0.2894  0.2403  0.2502
 4641TIP3   OH235413   2.123   0.424   2.891 -0.1457 -0.2514  0.1112
 4641TIP3    H135414   2.174   0.417   2.810 -2.1585 -2.2664 -1.0870
 4641TIP3    H235415   2.065   0.499   2.877  0.6549  0.4438  0.4217
 4642TIP3   OH235416   0.253   4.338  13.577  0.5744 -0.5539  0.0222
 4642TIP3    H135417   0.225   4.286  13.652  3.2545 -3.1507 -0.6187
 4642TIP3    H235418   0.215   4.294  13.501 -0.5283  0.9430 -0.3598
 4643TIP3   OH235419   3.592   5.119   3.733 -0.1112 -0.1717 -0.4228
 4643TIP3    H135420   3.506   5.129   3.774  1.1692  0.0362  2.4601
 4643TIP3    H235421   3.593   5.029   3.701 -1.5607 -0.0297 -0.9206
 4644TIP3   OH235422   3.473   2.413   4.461  0.7686 -0.5754  0.2261
 4644TIP3    H135423   3.470   2.503   4.492  1.1098  0.1220 -1.6648
 4644TIP3    H235424   3.552   2.376   4.502  0.1798 -0.3116  1.6644
 4645TIP3   OH235425   6.719   0.300   2.893  0.0115  0.4159  0.0108
 4645TIP3    H135426   6.814   0.306   2.904  0.3475 -3.2915  0.5636
 4645TIP3    H235427   6.685   0.290   2.981 -0.4050 -1.9093 -0.3567
 4646TIP3   OH235428   4.522   2.591   3.564 -0.3227 -0.2659  0.0776
 4646TIP3    H135429   4.615   2.569   3.567 -0.2173  0.2461  0.8579
 4646TIP3    H235430   4.510   2.633   3.479 -0.0225 -1.0867 -0.3874
 4647TIP3   OH235431   6.382   1.643   6.316  0.0245 -1.0279 -0.1955
 4647TIP3    H135432   6.299   1.691   6.314  0.3633 -0.4512 -0.7036
 4647TIP3    H235433   6.356   1.551   6.319 -0.6329 -0.8354  0.4439
 4648TIP3   OH235434   1.291   6.257   4.408 -0.2033 -0.6348 -0.2618
 4648TIP3    H135435   1.256   6.277   4.495 -0.6372  0.5793 -0.6987
 4648TIP3    H235436   1.220   6.211   4.363 -0.1188 -0.9055 -0.1270
 4649TIP3   OH235437   5.225   2.927  11.747  0.3657  0.4047 -0.8692
 4649TIP3    H135438   5.179   2.853  11.706  0.6166  0.1199 -0.6434
 4649TIP3    H235439   5.168   3.002  11.732  0.0893  0.1569 -1.0716
 4650TIP3   OH235440   5.120   2.105   3.578 -0.0699 -0.1629 -0.2499
 4650TIP3    H135441   5.134   2.010   3.572 -0.9963 -0.3854  0.7764
 4650TIP3    H235442   5.107   2.133   3.487  0.1930 -1.0186 -0.5645
 4651TIP3   OH235443   5.553   1.175  14.728  0.1948 -0.5950  0.3605
 4651TIP3    H135444   5.571   1.137  14.814  1.2985 -0.0328  0.3971
 4651TIP3    H235445   5.560   1.102  14.668  2.4475 -0.4935  0.4141
 4652TIP3   OH235446   2.594   0.692   2.539 -0.0349 -0.5129 -0.0729
 4652TIP3    H135447   2.582   0.735   2.455 -0.3999 -0.5408 -0.0367
 4652TIP3    H235448   2.666   0.740   2.581 -1.4866  1.1308  0.6569
 4653TIP3   OH235449   2.160   3.992  15.480 -0.6202  0.6508 -0.2312
 4653TIP3    H135450   2.253   3.984  15.500 -0.7783 -3.1218 -0.4437
 4653TIP3    H235451   2.147   3.935  15.404 -3.4535 -0.7485  1.1726
 4654TIP3   OH235452   0.519   6.364  15.965  0.1493 -0.0348 -0.4448
 4654TIP3    H135453   0.513   6.439  16.025 -0.7948  0.6710 -1.3977
 4654TIP3    H235454   0.430   6.328  15.962  0.1120  0.1130 -1.6287
 4655TIP3   OH235455   5.532   5.055   0.511 -0.4367  0.0384 -0.1767
 4655TIP3    H135456   5.621   5.089   0.524  0.2295 -2.2175  1.7121
 4655TIP3    H235457   5.508   5.085   0.423  2.0799  0.9455 -0.6271
 4656TIP3   OH235458   5.473   2.662  15.582 -1.0546  0.0015  0.2766
 4656TIP3    H135459   5.557   2.645  15.624 -0.2922 -0.9463 -1.5176
 4656TIP3    H235460   5.415   2.595  15.617 -0.5398 -0.5447  0.0967
 4657TIP3   OH235461   1.078   0.142  10.945  0.3440  0.3091 -0.4347
 4657TIP3    H135462   1.019   0.152  11.019 -0.0680 -0.5733 -0.6353
 4657TIP3    H235463   1.153   0.093  10.980 -0.7071 -1.8318 -0.9995
 4658TIP3   OH235464   3.498   1.539   3.885  0.0428  0.1218 -0.0546
 4658TIP3    H135465   3.430   1.481   3.851 -0.4725  0.3874  0.5181
 4658TIP3    H235466   3.457   1.626   3.885  0.2302  0.2137  0.7044
 4659TIP3   OH235467   6.153   5.709   0.979 -0.0798 -0.2802  0.4273
 4659TIP3    H135468   6.172   5.777   1.043 -0.9587  0.5024 -0.1015
 4659TIP3    H235469   6.236   5.691   0.936  0.3038 -0.0780  1.0759
 4660TIP3   OH235470   0.497   2.900   6.640  0.1614  0.0040  0.5757
 4660TIP3    H135471   0.588   2.871   6.630 -0.2103 -1.5088  1.2513
 4660TIP3    H235472   0.504   2.988   6.677  1.3559 -0.6692  2.0603
 4661TIP3   OH235473   1.053   5.438  16.998  0.6291  0.2510 -0.1614
 4661TIP3    H135474   1.099   5.359  17.028  0.3892  0.8010  1.7583
 4661TIP3    H235475   1.117   5.508  17.011 -0.6416  1.0254  2.5210
 4662TIP3   OH235476   1.955   0.543   1.995  0.1482  0.0770  0.0027
 4662TIP3    H135477   1.874   0.555   1.946 -0.5581 -3.6354 -0.0215
 4662TIP3    H235478   2.023   0.579   1.938 -1.1329  0.2801 -1.4677
 4663TIP3   OH235479   6.331   0.600   3.821  0.7885  0.1423 -0.8771
 4663TIP3    H135480   6.339   0.606   3.726  2.5485 -1.0492 -0.8555
 4663TIP3    H235481   6.403   0.542   3.848  0.9930  1.2856  1.2847
 4664TIP3   OH235482   2.912   1.972   0.656 -0.0011 -0.7504  0.6021
 4664TIP3    H135483   2.863   1.984   0.738  1.8047  0.4060  1.5682
 4664TIP3    H235484   2.977   1.905   0.677  1.1794  0.3304  0.4667
 4665TIP3   OH235485   0.414   4.273  17.172  0.6234  0.9222  0.4293
 4665TIP3    H135486   0.414   4.359  17.130  1.4857  0.7792  0.1155
 4665TIP3    H235487   0.333   4.232  17.144  0.5075  1.3885  0.0708
 4666TIP3   OH235488   1.405   1.034   1.624  0.2564 -0.2753 -0.1718
 4666TIP3    H135489   1.364   1.088   1.557 -1.0341 -0.2495  0.5943
 4666TIP3    H235490   1.344   1.038   1.698  0.3145 -2.4467  0.0512
 4667TIP3   OH235491   0.598   0.641   3.186 -0.5575  0.1150  0.4484
 4667TIP3    H135492   0.566   0.588   3.258 -0.3870 -1.7469 -0.7831
 4667TIP3    H235493   0.652   0.582   3.134  1.8107  2.1517  0.3827
 4668TIP3   OH235494   3.834   3.737   2.172 -0.1877 -0.7591 -0.8733
 4668TIP3    H135495   3.865   3.747   2.262  0.7526  1.2915 -1.3663
 4668TIP3    H235496   3.740   3.754   2.177 -0.0075  0.1308 -0.3869
 4669TIP3   OH235497   1.284   4.775  11.155  0.0260  0.3950 -0.1633
 4669TIP3    H135498   1.327   4.822  11.084  1.0872  1.4358  1.1258
 4669TIP3    H235499   1.199   4.819  11.164  1.3589  2.8202  1.6420
 4670TIP3   OH235500   2.572   0.219  14.009 -0.1711  0.1744  0.7729
 4670TIP3    H135501   2.493   0.243  13.961  1.7344  0.3132 -2.5512
 4670TIP3    H235502   2.567   0.270  14.090 -2.9319  0.9693  0.2145
 4671TIP3   OH235503   3.076   5.165   3.692  0.3085 -0.2457 -0.1803
 4671TIP3    H135504   2.992   5.125   3.667  0.3351  0.0492 -0.7471
 4671TIP3    H235505   3.123   5.176   3.609 -0.0912  1.8604 -0.1796
 4672TIP3   OH235506   3.472   6.331  13.382 -0.3583 -0.0995  0.6838
 4672TIP3    H135507   3.491   6.414  13.425  1.4107 -1.2762  2.3295
 4672TIP3    H235508   3.509   6.340  13.294  1.8410  0.1262  1.5792
 4673TIP3   OH235509   4.153   2.202  16.877 -0.1422  0.3054 -0.0955
 4673TIP3    H135510   4.089   2.241  16.936 -0.7256 -2.2109  1.0891
 4673TIP3    H235511   4.160   2.264  16.805  0.2979  3.3483  2.3563
 4674TIP3   OH235512   5.313   2.272   4.089 -0.7758  0.7631  0.2085
 4674TIP3    H135513   5.312   2.193   4.142  0.3324  0.1560 -0.6390
 4674TIP3    H235514   5.279   2.245   4.004  1.9777  0.4985 -0.9226
 4675TIP3   OH235515   3.709   2.009  16.201  0.6648  0.5173  0.3159
 4675TIP3    H135516   3.657   1.955  16.141  2.4205  0.3232 -1.0966
 4675TIP3    H235517   3.671   1.992  16.287  0.0572 -1.6167 -0.3149
 4676TIP3   OH235518   4.143   6.551   3.328  0.6803  0.3178  0.0805
 4676TIP3    H135519   4.232   6.529   3.355  0.0835 -1.9725  0.4041
 4676TIP3    H235520   4.133   6.510   3.242 -0.3222 -0.1947  0.4320
 4677TIP3   OH235521   5.185   3.469   1.217  0.4301  0.1670 -0.2323
 4677TIP3    H135522   5.205   3.523   1.140  2.3360  0.0038  0.1216
 4677TIP3    H235523   5.190   3.530   1.290 -0.9991  0.2377 -0.1667
 4678TIP3   OH235524   5.312   0.314  16.786  0.1364 -0.0330  0.0481
 4678TIP3    H135525   5.234   0.364  16.809 -0.5249 -1.0133 -0.0271
 4678TIP3    H235526   5.284   0.223  16.786  0.9983 -0.3348 -1.0813
 4679TIP3   OH235527   6.078   1.805  14.566  0.1144  0.1099  0.2290
 4679TIP3    H135528   6.039   1.808  14.654 -2.4252 -2.4011 -0.6430
 4679TIP3    H235529   6.113   1.716  14.559 -1.7462 -0.5417 -1.9879
 4680TIP3   OH235530   6.552   5.452   4.637  0.3433  0.1389  0.2126
 4680TIP3    H135531   6.475   5.483   4.684  0.7683 -0.3425  1.2643
 4680TIP3    H235532   6.626   5.493   4.682  0.7255  0.3090 -0.5548
 4681TIP3   OH235533   1.803   0.119  16.897  0.2221 -0.3248 -0.1210
 4681TIP3    H135534   1.890   0.149  16.925 -0.3520  1.2496  0.0701
 4681TIP3    H235535   1.798   0.145  16.805 -0.5801  0.9191  0.2535
 4682TIP3   OH235536   2.749   3.284   2.908 -0.8143  0.4680  0.5442
 4682TIP3    H135537   2.783   3.203   2.869  0.9546  1.5877 -0.3695
 4682TIP3    H235538   2.683   3.315   2.846 -1.8881 -0.5273  1.1645
 4683TIP3   OH235539   5.073   0.432  14.841 -0.2657  0.0753  0.5526
 4683TIP3    H135540   5.097   0.366  14.777  0.1742  0.3976  0.3840
 4683TIP3    H235541   5.150   0.488  14.848 -0.1143 -0.2550  1.7442
 4684TIP3   OH235542   4.679   3.997   0.834  0.2462  0.3834  0.1908
 4684TIP3    H135543   4.758   3.949   0.812 -1.2211 -1.4830 -1.3648
 4684TIP3    H235544   4.644   3.951   0.910  0.3621  0.8753  0.5473
 4685TIP3   OH235545   5.013   1.754   4.657 -0.3670  0.0599  0.0068
 4685TIP3    H135546   4.955   1.679   4.668 -2.3776  1.2799 -1.5995
 4685TIP3    H235547   4.973   1.824   4.709  0.6027  0.4651  0.2279
 4686TIP3   OH235548   1.966   4.039  17.103 -0.0515  0.0233  0.5341
 4686TIP3    H135549   1.958   4.108  17.036  2.4505 -0.5613 -0.4673
 4686TIP3    H235550   1.921   3.963  17.064 -1.3632  0.5647  0.9316
 4687TIP3   OH235551   0.880   3.869   6.144 -0.3340  0.1107  0.2294
 4687TIP3    H135552   0.849   3.784   6.175 -0.3892  0.4882  1.2299
 4687TIP3    H235553   0.839   3.933   6.202  1.0497  0.7145  0.5910
 4688TIP3   OH235554   5.172   3.955  15.481 -0.5806  0.2924  0.2393
 4688TIP3    H135555   5.263   3.925  15.484 -0.4391  0.6902  0.0447
 4688TIP3    H235556   5.125   3.885  15.436  0.0115  0.9660 -1.5327
 4689TIP3   OH235557   3.018   1.447   3.528  0.3702 -0.4383 -0.2220
 4689TIP3    H135558   2.933   1.491   3.531  0.3703 -0.4737  0.3794
 4689TIP3    H235559   3.081   1.517   3.510  0.2625 -0.3488 -0.2515
 4690TIP3   OH235560   5.567   3.728  14.039  0.5290  0.5945 -0.2698
 4690TIP3    H135561   5.614   3.786  13.979  0.4925  0.8817 -0.0234
 4690TIP3    H235562   5.625   3.721  14.115  1.5190 -1.3859 -1.1434
 4691TIP3   OH235563   3.689   1.255   5.840  0.0078 -0.9339  0.8984
 4691TIP3    H135564   3.667   1.293   5.925 -0.6957 -0.2696  0.4319
 4691TIP3    H235565   3.722   1.168   5.860  0.5340 -0.5161  1.9052
 4692TIP3   OH235566   4.696   1.497  15.948  0.3055 -0.8201 -1.2636
 4692TIP3    H135567   4.785   1.468  15.972 -0.1974  0.0165  2.1723
 4692TIP3    H235568   4.650   1.416  15.926  0.6507 -2.0400  1.9232
 4693TIP3   OH235569   3.556   2.079   3.016  0.0826 -0.2784  0.5765
 4693TIP3    H135570   3.585   1.992   3.045 -2.3020 -1.0950  0.7004
 4693TIP3    H235571   3.518   2.119   3.095  0.6490  0.6632  0.3848
 4694TIP3   OH235572   1.068   4.754   2.184 -0.1618  0.0444 -0.1153
 4694TIP3    H135573   1.094   4.706   2.105 -1.0086 -0.7582  0.0628
 4694TIP3    H235574   0.991   4.804   2.157 -0.9958 -0.9184  0.3931
 4695TIP3   OH235575   4.838   4.108  12.080  0.3526 -0.0328 -0.0979
 4695TIP3    H135576   4.924   4.147  12.093  1.6402 -2.8377  0.6274
 4695TIP3    H235577   4.816   4.127  11.989  2.3674 -0.3409 -0.6908
 4696TIP3   OH235578   5.391   2.971   5.918  0.0863 -0.6406  0.2094
 4696TIP3    H135579   5.336   3.005   5.848 -1.0832 -1.2254  0.8097
 4696TIP3    H235580   5.361   3.018   5.997  1.7913  0.4558  0.2545
 4697TIP3   OH235581   2.357   5.635  15.204 -0.1809  0.3585 -0.0896
 4697TIP3    H135582   2.273   5.590  15.200 -0.4877  0.9199 -0.0785
 4697TIP3    H235583   2.422   5.565  15.197 -0.5839  0.1221 -3.5787
 4698TIP3   OH235584   6.654   0.698   4.058 -0.2823 -0.5716 -0.1956
 4698TIP3    H135585   6.650   0.612   4.015 -2.7543 -0.1233 -1.0051
 4698TIP3    H235586   6.745   0.725   4.048  0.7417 -3.3296  0.6111
 4699TIP3   OH235587   6.318   3.803  13.462 -0.1110  0.5699  0.0869
 4699TIP3    H135588   6.225   3.787  13.449 -0.0718  0.5336 -0.1461
 4699TIP3    H235589   6.362   3.735  13.412  0.0499  1.1855 -0.6328
 4700TIP3   OH235590   0.603   5.676  10.488 -0.3352 -0.7792  0.1881
 4700TIP3    H135591   0.532   5.739  10.502  1.4127  0.7188  3.0424
 4700TIP3    H235592   0.683   5.728  10.496  1.1527 -2.9665  0.2403
 4701TIP3   OH235593   4.707   3.057  16.557  0.0110  0.3124 -0.6702
 4701TIP3    H135594   4.649   3.013  16.619 -0.4134  1.6415 -0.0935
 4701TIP3    H235595   4.771   2.990  16.532 -0.5908 -0.6057  0.2085
 4702TIP3   OH235596   3.353   3.180   4.905  0.0268  0.5422 -0.1903
 4702TIP3    H135597   3.350   3.086   4.923 -1.3541  0.6404  0.2045
 4702TIP3    H235598   3.446   3.199   4.893  0.4443 -0.6544  0.9086
 4703TIP3   OH235599   2.969   6.693  17.185  0.8544  0.0246  0.5009
 4703TIP3    H135600   3.050   6.726  17.147 -0.0984  0.2348 -1.4402
 4703TIP3    H235601   2.925   6.646  17.114 -2.0725  2.3428  0.5664
 4704TIP3   OH235602   3.009   2.953  16.459 -0.4610 -0.4164  0.2051
 4704TIP3    H135603   3.042   2.866  16.437 -0.7985 -0.9493  1.6383
 4704TIP3    H235604   2.928   2.961  16.410 -0.6299 -1.0815  0.3604
 4705TIP3   OH235605   2.484   0.625   5.768  0.3752 -0.2947  0.2591
 4705TIP3    H135606   2.560   0.585   5.811 -0.2075 -0.9446  0.6911
 4705TIP3    H235607   2.421   0.639   5.838  0.1449  0.4005 -0.0721
 4706TIP3   OH235608   3.505   1.729  12.956 -0.2444  0.1713 -0.0116
 4706TIP3    H135609   3.425   1.770  12.923  0.0084  0.8830  0.2331
 4706TIP3    H235610   3.483   1.637  12.964 -0.9168  0.2949 -0.3241
 4707TIP3   OH235611   4.782   4.525   6.347 -0.4305 -0.1147  0.2166
 4707TIP3    H135612   4.807   4.593   6.285 -1.7423  0.6773  0.5206
 4707TIP3    H235613   4.705   4.484   6.308  1.2438 -2.5722 -0.7519
 4708TIP3   OH235614   0.574   6.762  14.115  0.4371 -0.5179 -0.0279
 4708TIP3    H135615   0.529   6.685  14.080 -0.1261 -0.1178 -0.2068
 4708TIP3    H235616   0.539   6.835  14.063  1.2019 -0.1786 -0.0842
 4709TIP3   OH235617   3.487   3.828   2.879 -0.0947 -0.1220  0.1860
 4709TIP3    H135618   3.407   3.874   2.853 -0.6498 -0.0969  1.8413
 4709TIP3    H235619   3.519   3.876   2.956  0.5971 -1.1144  0.5403
 4710TIP3   OH235620   2.795   5.345  13.695 -0.0346  0.3814  0.3005
 4710TIP3    H135621   2.799   5.332  13.601  2.3516  2.7782 -0.0460
 4710TIP3    H235622   2.703   5.327  13.718 -0.3578 -1.6656 -2.1751
 4711TIP3   OH235623   6.794   3.441   5.309 -0.5495  0.1630  0.2402
 4711TIP3    H135624   6.759   3.481   5.389  1.2948  2.5800 -0.0331
 4711TIP3    H235625   6.747   3.486   5.238 -0.2821 -0.0353 -0.0618
 4712TIP3   OH235626   0.176   5.011   3.423  0.1140  0.1862  0.2035
 4712TIP3    H135627   0.135   4.940   3.373  0.7714  0.9155 -1.4205
 4712TIP3    H235628   0.113   5.083   3.418 -0.3100 -0.0822  1.3945
 4713TIP3   OH235629   0.184   2.248   0.657  0.0123 -0.6539  0.0464
 4713TIP3    H135630   0.250   2.181   0.677  1.1796 -0.2441 -2.1735
 4713TIP3    H235631   0.126   2.207   0.593 -0.3179 -0.1196 -0.0010
 4714TIP3   OH235632   3.922   5.481   5.441 -0.1473  0.2116 -0.1451
 4714TIP3    H135633   3.918   5.471   5.346 -0.1447  0.0790 -0.1324
 4714TIP3    H235634   4.015   5.481   5.461 -0.0798  2.0938 -0.3268
 4715TIP3   OH235635   1.922   3.746   3.610 -0.0261 -0.2966 -0.0552
 4715TIP3    H135636   1.856   3.738   3.679  1.2016 -1.5050  1.0279
 4715TIP3    H235637   1.891   3.689   3.540 -1.3421  1.0290 -0.6289
 4716TIP3   OH235638   0.774   1.800   3.392 -0.3887  0.4977 -0.2613
 4716TIP3    H135639   0.688   1.842   3.391 -0.7266 -0.1772  0.2444
 4716TIP3    H235640   0.822   1.845   3.462  0.5544  2.5736 -2.1253
 4717TIP3   OH235641   0.720   4.518  13.709 -0.0643 -0.0226 -0.0013
 4717TIP3    H135642   0.677   4.573  13.774 -0.7788 -1.3205  0.6517
 4717TIP3    H235643   0.767   4.451  13.760  1.6403  0.5357 -0.7404
 4718TIP3   OH235644   0.725   3.639   0.123 -0.6032 -0.0624  0.1635
 4718TIP3    H135645   0.820   3.628   0.120 -0.6081 -0.6303  1.5480
 4718TIP3    H235646   0.712   3.732   0.103  0.1382 -0.2174 -1.1922
 4719TIP3   OH235647   4.415   5.987  16.181  0.4315 -0.7385 -0.3542
 4719TIP3    H135648   4.364   6.064  16.203  1.4641 -0.1686  0.1311
 4719TIP3    H235649   4.353   5.914  16.188 -0.6449  0.0709 -1.1888
 4720TIP3   OH235650   0.965   3.146   0.020  0.0661 -0.2125  0.1501
 4720TIP3    H135651   0.940   3.193  -0.060  1.3495 -0.0899 -0.1994
 4720TIP3    H235652   1.058   3.129   0.010 -0.4373 -3.4909 -0.0408
 4721TIP3   OH235653   5.631   1.403  16.603  0.1532  0.1891  0.0528
 4721TIP3    H135654   5.694   1.467  16.636  2.2640 -1.8951  0.3033
 4721TIP3    H235655   5.609   1.435  16.515  1.2226  1.2022  0.1273
 4722TIP3   OH235656   3.814   1.523  15.988 -0.1354  0.1768 -0.1451
 4722TIP3    H135657   3.719   1.519  15.991 -0.1649 -0.0985 -1.0569
 4722TIP3    H235658   3.840   1.446  15.937  0.6671 -0.5775  1.3122
 4723TIP3   OH235659   1.682   2.772  11.298 -0.2636  0.8077  0.0797
 4723TIP3    H135660   1.634   2.735  11.223  0.1772  0.6787 -0.1375
 4723TIP3    H235661   1.773   2.774  11.270  0.0949 -0.4489  1.1002
 4724TIP3   OH235662   1.624   6.524   2.038 -0.2514  0.0630  0.2839
 4724TIP3    H135663   1.668   6.604   2.007  0.1088 -0.3044 -0.1795
 4724TIP3    H235664   1.679   6.493   2.110  1.0607 -1.1296 -1.1491
 4725TIP3   OH235665   4.860   0.993  17.070  0.0469  0.0382  0.4557
 4725TIP3    H135666   4.926   0.934  17.035  0.6318 -0.6335  2.5302
 4725TIP3    H235667   4.902   1.078  17.073  0.4846 -0.1860  0.8240
 4726TIP3   OH235668   4.540   3.617   1.845 -0.4268  0.0486  0.3415
 4726TIP3    H135669   4.470   3.591   1.786 -0.6340  0.4351  0.4110
 4726TIP3    H235670   4.513   3.584   1.931  1.0489 -2.7138 -0.1456
 4727TIP3   OH235671   2.716   0.146   3.649  0.1422  0.0019  0.4356
 4727TIP3    H135672   2.693   0.227   3.603 -1.3281  0.6002  2.1097
 4727TIP3    H235673   2.648   0.084   3.623 -0.2635  0.1206  1.1883
 4728TIP3   OH235674   1.083   1.656  15.497 -0.0715  0.2000 -0.3567
 4728TIP3    H135675   0.988   1.660  15.483 -0.1330 -1.1469 -0.4578
 4728TIP3    H235676   1.094   1.597  15.572  0.7214 -0.3642 -0.8966
 4729TIP3   OH235677   5.017   0.236   4.932  0.0470  0.0575 -0.0172
 4729TIP3    H135678   5.111   0.231   4.919 -0.0196 -2.9770 -0.0745
 4729TIP3    H235679   5.004   0.312   4.990  2.6561 -0.2038  1.0189
 4730TIP3   OH235680   6.346   1.488   5.909  0.1870  0.4199  0.7175
 4730TIP3    H135681   6.277   1.548   5.935 -0.6883 -0.0662 -0.4061
 4730TIP3    H235682   6.416   1.544   5.877  0.2645  0.9090  1.7090
 4731TIP3   OH235683   5.242   4.433   5.909 -0.0979 -0.4591 -0.2642
 4731TIP3    H135684   5.205   4.346   5.921 -1.2917  0.3912  4.3185
 4731TIP3    H235685   5.336   4.422   5.928 -0.0737 -0.8797 -0.6157
 4732TIP3   OH235686   3.852   2.562   5.231 -0.3112 -0.2374 -0.5438
 4732TIP3    H135687   3.768   2.609   5.230  0.3548  0.9981 -0.2277
 4732TIP3    H235688   3.905   2.607   5.165 -0.0939 -1.4207 -1.2035
 4733TIP3   OH235689   5.147   5.783   2.823 -0.2346  0.1995 -0.0954
 4733TIP3    H135690   5.076   5.819   2.769 -0.9281 -0.7307  0.1630
 4733TIP3    H235691   5.110   5.778   2.911 -0.1958 -1.2136 -0.1437
 4734TIP3   OH235692   5.331   5.759  15.814 -0.6254 -0.2240 -0.1056
 4734TIP3    H135693   5.313   5.673  15.775  0.0024  0.2959 -1.6296
 4734TIP3    H235694   5.260   5.815  15.783  0.4148  0.4415 -1.4242
 4735TIP3   OH235695   6.437   2.379   1.151 -0.2925 -0.2037  0.3928
 4735TIP3    H135696   6.348   2.415   1.152  0.0383  0.6885 -0.5281
 4735TIP3    H235697   6.449   2.344   1.063  0.2095 -0.4657  0.5583
 4736TIP3   OH235698   1.242   1.903  15.562 -0.0744 -0.9085  0.4427
 4736TIP3    H135699   1.148   1.899  15.545 -0.0794 -0.5356  0.3751
 4736TIP3    H235700   1.260   1.828  15.618 -0.2186 -1.6486 -0.4870
 4737TIP3   OH235701   4.128   4.806  11.085  0.5367  0.0453 -0.3855
 4737TIP3    H135702   4.068   4.879  11.098  1.7904  1.2552 -1.0461
 4737TIP3    H235703   4.098   4.762  11.006  2.4567  2.8234 -2.8902
 4738TIP3   OH235704   4.150   2.673   3.956  0.0384  0.4102 -0.1364
 4738TIP3    H135705   4.216   2.607   3.974  0.9950  1.4953  0.4917
 4738TIP3    H235706   4.180   2.716   3.875 -0.6330  0.0168 -0.6033
 4739TIP3   OH235707   6.108   2.993  11.390 -0.2622 -0.3579 -0.2433
 4739TIP3    H135708   6.081   3.020  11.302  0.2398 -0.1598 -0.3400
 4739TIP3    H235709   6.148   3.072  11.428 -2.1287  0.1405  0.8589
 4740TIP3   OH235710   0.222   3.949   6.227  0.2506  0.2557 -0.7032
 4740TIP3    H135711   0.312   3.920   6.240  0.2538  0.9086  1.0186
 4740TIP3    H235712   0.176   3.925   6.308 -0.8613  0.8654 -1.1194
 4741TIP3   OH235713   2.515   0.390  16.229  0.1540  0.2143 -0.1749
 4741TIP3    H135714   2.430   0.370  16.190 -0.3596 -1.7548  1.7217
 4741TIP3    H235715   2.562   0.306  16.228  0.9227  0.5849  1.4120
 4742TIP3   OH235716   0.140   0.665   1.903  0.6056  0.1128  0.4902
 4742TIP3    H135717   0.218   0.677   1.958  0.5128  1.9946  0.2929
 4742TIP3    H235718   0.086   0.741   1.923 -1.0023 -0.9486  0.2951
 4743TIP3   OH235719   1.581   0.045   5.876  0.1629  0.2182 -0.0971
 4743TIP3    H135720   1.668   0.037   5.913  0.7034  0.2036 -1.3096
 4743TIP3    H235721   1.523   0.009   5.943  1.1330 -0.2153  0.5333
 4744TIP3   OH235722   2.873   5.005  15.874 -0.0208  0.0082  0.2625
 4744TIP3    H135723   2.883   4.953  15.794  0.0243  0.4549 -0.0229
 4744TIP3    H235724   2.826   5.083  15.847 -1.1326 -0.4028  0.9081
 4745TIP3   OH235725   5.886   2.782   5.013 -0.1953 -0.2177 -0.2219
 4745TIP3    H135726   5.965   2.745   4.974 -0.5516 -1.8955  0.5423
 4745TIP3    H235727   5.916   2.863   5.055  1.0907 -0.7212 -0.1026
 4746TIP3   OH235728   1.987   5.599  13.853  0.3321  0.0147  0.6680
 4746TIP3    H135729   2.015   5.530  13.793 -2.8513 -0.5038 -0.4137
 4746TIP3    H235730   1.982   5.678  13.798 -0.7036 -0.0238  0.6824
 4747TIP3   OH235731   5.143   5.578  12.496  0.0872 -0.6400  0.0144
 4747TIP3    H135732   5.211   5.601  12.560 -0.1660 -0.7662  0.3340
 4747TIP3    H235733   5.147   5.649  12.431 -0.1459 -0.1171  0.5610
 4748TIP3   OH235734   3.964   6.742   3.059 -0.1710 -0.1182 -0.2675
 4748TIP3    H135735   3.976   6.677   2.990 -0.9462  1.1473 -1.6451
 4748TIP3    H235736   4.043   6.796   3.055 -1.1599  1.3121 -1.7230
 4749TIP3   OH235737   3.047   3.002   0.731 -0.1263  0.0386  0.3860
 4749TIP3    H135738   3.125   3.046   0.698 -0.8718  2.3110  1.4230
 4749TIP3    H235739   3.022   2.941   0.662  0.8395  1.4800 -1.3153
 4750TIP3   OH235740   4.686   2.755   2.975 -0.1535  0.0118 -0.0555
 4750TIP3    H135741   4.640   2.788   2.898  1.9351 -0.1079 -1.4447
 4750TIP3    H235742   4.701   2.832   3.029 -0.6985  0.2862 -0.2874
 4751TIP3   OH235743   5.110   0.017  11.448 -0.2249  0.2274  0.2540
 4751TIP3    H135744   5.195   0.051  11.477  0.3216 -0.6046 -0.3397
 4751TIP3    H235745   5.060   0.009  11.529  1.3994 -2.3829  1.1022
 4752TIP3   OH235746   3.866   2.600   4.547  0.4549 -0.3969 -0.5510
 4752TIP3    H135747   3.935   2.631   4.488 -0.7100  2.6130 -0.5416
 4752TIP3    H235748   3.884   2.644   4.630 -0.7596 -0.5119 -0.2011
 4753TIP3   OH235749   3.903   0.770  14.596 -0.1353 -0.5978  0.3340
 4753TIP3    H135750   3.952   0.700  14.640  1.6506  1.2000  1.3717
 4753TIP3    H235751   3.969   0.820  14.549 -1.6238 -0.6138 -1.9188
 4754TIP3   OH235752   2.447   5.990  16.494  0.3197  0.2798  0.3695
 4754TIP3    H135753   2.357   5.964  16.475 -0.1303  0.6067  1.9076
 4754TIP3    H235754   2.487   6.000  16.408 -1.8013  2.5936 -0.4626
 4755TIP3   OH235755   4.603   2.654  10.807  1.0690  0.3557  0.3289
 4755TIP3    H135756   4.683   2.704  10.786  2.0629 -1.7443 -1.2521
 4755TIP3    H235757   4.631   2.592  10.874  0.8960 -0.6331 -0.4944
 4756TIP3   OH235758   2.724   5.078   2.418  0.6259 -0.0114  0.1767
 4756TIP3    H135759   2.778   5.057   2.342  2.9680 -0.7299  1.9459
 4756TIP3    H235760   2.675   4.998   2.436  1.1439 -0.3179  0.2494
 4757TIP3   OH235761   3.302   6.043  12.612  0.1894  0.0928  0.4728
 4757TIP3    H135762   3.390   6.012  12.632  0.9265  1.2223 -0.8029
 4757TIP3    H235763   3.306   6.138  12.625 -1.1004  0.0679  1.2426
 4758TIP3   OH235764   5.331   2.151  16.215 -0.4261 -1.1960  0.0771
 4758TIP3    H135765   5.236   2.137  16.205 -0.6442 -1.9263  2.4762
 4758TIP3    H235766   5.338   2.230  16.268  0.4236  0.0048 -1.7404
 4759TIP3   OH235767   2.180   3.129  12.009  0.2452  0.4524  0.0243
 4759TIP3    H135768   2.157   3.193  11.941 -0.6604 -0.6422 -0.7318
 4759TIP3    H235769   2.270   3.104  11.988  0.4280  1.0930  0.0225
 4760TIP3   OH235770   4.755   2.388   5.793 -0.6163 -0.3630  0.3385
 4760TIP3    H135771   4.756   2.408   5.887 -1.3669  1.7982 -0.0486
 4760TIP3    H235772   4.779   2.470   5.751 -1.0573 -1.0781 -1.3940
 4761TIP3   OH235773   2.525   5.883   0.734 -0.0790 -0.1961  0.5301
 4761TIP3    H135774   2.600   5.941   0.750 -1.9296  1.9970  1.7851
 4761TIP3    H235775   2.490   5.912   0.650 -0.9970  0.5559  1.1514
 4762TIP3   OH235776   4.677   6.543   4.531 -0.3505 -0.3801  0.0902
 4762TIP3    H135777   4.665   6.448   4.524  0.3133 -0.4851  0.3238
 4762TIP3    H235778   4.742   6.564   4.465 -1.1707  0.0645 -0.6051
 4763TIP3   OH235779   1.970   2.148   3.440  0.0021  0.0954  0.2123
 4763TIP3    H135780   2.031   2.184   3.504  1.5550 -0.9510 -0.6163
 4763TIP3    H235781   1.999   2.183   3.356 -0.3907 -0.5956 -0.2209
 4764TIP3   OH235782   4.290   3.413   1.712  0.0082  0.1887  0.0716
 4764TIP3    H135783   4.203   3.380   1.733 -0.8541  1.6757 -0.9309
 4764TIP3    H235784   4.301   3.394   1.619  0.2953  0.9726 -0.0609
 4765TIP3   OH235785   5.970   6.543   4.049 -0.3057 -0.2513 -0.5482
 4765TIP3    H135786   6.038   6.544   3.981 -0.8047  0.7028 -1.0444
 4765TIP3    H235787   5.906   6.607   4.020 -1.5699 -1.3276 -0.2106
 4766TIP3   OH235788   2.510   5.231  13.285  0.3158 -0.1796 -0.4225
 4766TIP3    H135789   2.573   5.240  13.357 -0.9993 -0.9617  0.8691
 4766TIP3    H235790   2.433   5.280  13.313  0.2955  0.7540 -1.9832
 4767TIP3   OH235791   5.295   3.872  12.845 -0.6855  0.2305  0.0524
 4767TIP3    H135792   5.253   3.839  12.766  1.0700 -0.4980 -0.6343
 4767TIP3    H235793   5.249   3.954  12.865 -0.9931  0.5794 -1.8884
 4768TIP3   OH235794   3.626   4.039  17.107  0.0541 -0.2924  0.5051
 4768TIP3    H135795   3.580   3.957  17.125  0.3574 -0.2203  1.7124
 4768TIP3    H235796   3.708   4.012  17.067 -0.5828 -0.4720 -0.7268
 4769TIP3   OH235797   2.411   2.516   3.805 -0.7119 -0.8053 -0.4842
 4769TIP3    H135798   2.395   2.565   3.724  1.1461  1.3538  0.3808
 4769TIP3    H235799   2.345   2.447   3.803 -2.9636  1.2074 -2.1835
 4770TIP3   OH235800   1.556   2.417  15.282 -0.2683 -0.1883 -0.5658
 4770TIP3    H135801   1.500   2.467  15.222 -0.2820  0.0294 -0.3753
 4770TIP3    H235802   1.577   2.337  15.234 -0.7840 -0.2939 -0.6202
 4771TIP3   OH235803   2.599   5.365   3.945 -0.0144  0.2799 -0.0986
 4771TIP3    H135804   2.641   5.444   3.981 -0.8214  1.4709 -1.6393
 4771TIP3    H235805   2.664   5.296   3.957  0.9100  1.2826  0.8707
 4772TIP3   OH235806   0.804   5.001  10.884  0.0939  0.0726  0.2528
 4772TIP3    H135807   0.724   4.949  10.889  1.1427 -1.9058 -1.5733
 4772TIP3    H235808   0.812   5.023  10.791  1.9002 -0.2001  0.3111
 4773TIP3   OH235809   6.004   1.679   5.390 -0.8613  0.3698 -0.6776
 4773TIP3    H135810   6.031   1.599   5.436 -0.9709  0.6892 -0.0384
 4773TIP3    H235811   6.079   1.738   5.399 -0.5724  0.1659 -1.6034
 4774TIP3   OH235812   3.605   3.844   2.232 -0.2228  0.0301  0.2421
 4774TIP3    H135813   3.550   3.870   2.159  0.8930  0.0029 -0.6341
 4774TIP3    H235814   3.622   3.926   2.279  2.3964  0.8348 -1.8960
 4775TIP3   OH235815   5.247   4.168  16.101 -0.2038  0.4082 -0.1619
 4775TIP3    H135816   5.308   4.129  16.164  0.4096 -0.5117 -1.2855
 4775TIP3    H235817   5.281   4.257  16.088 -1.3704  1.2772  2.0987
 4776TIP3   OH235818   4.610   1.891  12.687 -0.4827  0.1590 -0.5392
 4776TIP3    H135819   4.695   1.867  12.724 -1.1593 -0.6663  0.5434
 4776TIP3    H235820   4.559   1.921  12.762 -1.9045 -1.5738 -0.7357
 4777TIP3   OH235821   6.383   5.249  12.968  0.3586  0.0478 -0.2046
 4777TIP3    H135822   6.333   5.223  13.045  3.1159  3.7603  3.2671
 4777TIP3    H235823   6.332   5.321  12.930  0.5021  0.2879  0.0582
 4778TIP3   OH235824   6.465   5.911   1.686 -0.2733  0.3356  0.1180
 4778TIP3    H135825   6.401   5.866   1.631 -0.4884  1.0916 -0.2568
 4778TIP3    H235826   6.489   5.846   1.752 -0.8089 -0.2276 -0.2307
 4779TIP3   OH235827   6.437   3.780   0.211 -0.0673 -0.0428 -0.4285
 4779TIP3    H135828   6.377   3.819   0.274  0.7826  0.8403 -0.1376
 4779TIP3    H235829   6.415   3.687   0.212 -0.5927  0.0735  0.5990
 4780TIP3   OH235830   5.103   5.742   0.763  0.3770 -0.2307 -0.4153
 4780TIP3    H135831   5.148   5.745   0.678 -1.5464 -0.3875 -1.4991
 4780TIP3    H235832   5.066   5.830   0.774 -2.0581 -1.0408 -1.3477
 4781TIP3   OH235833   6.355   3.473   4.445 -0.0160  0.4977 -0.6829
 4781TIP3    H135834   6.385   3.472   4.354 -0.1419  0.1348 -0.7198
 4781TIP3    H235835   6.394   3.395   4.484 -0.0880  0.5701 -0.4652
 4782TIP3   OH235836   5.798   0.474   2.852 -0.5573  0.1337  0.2174
 4782TIP3    H135837   5.720   0.498   2.801 -0.4976  0.3831  0.2453
 4782TIP3    H235838   5.871   0.501   2.797 -0.4893 -0.0461  0.2188
 4783TIP3   OH235839   6.793   0.007   4.149 -0.2489 -0.0953  0.2460
 4783TIP3    H135840   6.775  -0.030   4.063 -1.2427  0.6240  0.1221
 4783TIP3    H235841   6.735  -0.040   4.209  0.6854 -0.8347  0.5989
 4784TIP3   OH235842   6.341   5.855   2.310 -0.0930 -0.4006 -0.2612
 4784TIP3    H135843   6.357   5.838   2.403 -1.3496  1.0340  0.2633
 4784TIP3    H235844   6.253   5.820   2.295  0.4651 -1.4647 -1.1721
 4785TIP3   OH235845   0.377   0.946  13.256 -0.3610 -0.0588 -0.0939
 4785TIP3    H135846   0.337   0.993  13.183 -0.0510 -0.5944 -0.6111
 4785TIP3    H235847   0.471   0.953  13.241 -0.3082 -0.6538 -0.0534
 4786TIP3   OH235848   0.734   6.327   5.267  0.0939  0.0306  0.0430
 4786TIP3    H135849   0.811   6.289   5.309  0.9156  0.9179 -0.6378
 4786TIP3    H235850   0.768   6.375   5.192 -1.1495  0.2352 -0.4143
 4787TIP3   OH235851   2.082   4.602   2.718  0.1954 -0.3293 -0.6020
 4787TIP3    H135852   2.073   4.631   2.627  1.5447  2.4357  0.0516
 4787TIP3    H235853   2.174   4.577   2.725 -0.0252 -1.0231 -0.0921
 4788TIP3   OH235854   2.427   3.001  16.424 -0.5508 -0.3569 -0.0563
 4788TIP3    H135855   2.399   3.070  16.364 -0.2388 -0.0353  0.1596
 4788TIP3    H235856   2.412   2.920  16.376  1.7851 -0.0405 -1.5172
 4789TIP3   OH235857   0.563   6.456  15.294 -0.0803 -0.0727  0.3999
 4789TIP3    H135858   0.658   6.445  15.288 -0.1203 -0.4916  0.4953
 4789TIP3    H235859   0.530   6.418  15.212 -0.0625  1.5191 -0.3955
 4790TIP3   OH235860   5.391   4.531   0.217 -0.5388 -0.1897  0.5256
 4790TIP3    H135861   5.471   4.481   0.230 -1.4400 -1.7031  0.5357
 4790TIP3    H235862   5.372   4.569   0.303  0.1153  0.1219  0.5365
 4791TIP3   OH235863   6.612   0.269  16.711  0.3742 -0.2253  0.1369
 4791TIP3    H135864   6.655   0.229  16.787 -0.3706 -1.1126  0.1051
 4791TIP3    H235865   6.610   0.199  16.645 -2.0516 -0.6006  0.5009
 4792TIP3   OH235866   5.770   0.885  13.618  0.3312  0.1610  0.0127
 4792TIP3    H135867   5.707   0.815  13.635  2.7965 -2.1352  0.2961
 4792TIP3    H235868   5.768   0.896  13.523  1.6044 -2.1269 -0.3605
 4793TIP3   OH235869   1.157   5.764  10.520 -0.7035  0.2794 -0.0812
 4793TIP3    H135870   1.097   5.691  10.528 -0.1191 -0.0172  1.9640
 4793TIP3    H235871   1.116   5.835  10.570 -0.3374  0.7355 -0.4143
 4794TIP3   OH235872   0.282   0.954  12.500  0.2334  0.0085 -0.1140
 4794TIP3    H135873   0.333   0.902  12.438  1.3125 -0.9521  1.4917
 4794TIP3    H235874   0.347   1.006  12.547 -0.6139  1.1192 -0.1203
 4795TIP3   OH235875   3.422   0.193   5.317 -0.0825  0.2582  0.0297
 4795TIP3    H135876   3.501   0.138   5.313  0.5461  1.0902  0.8059
 4795TIP3    H235877   3.423   0.230   5.405 -0.0519  2.1537 -0.7328
 4796TIP3   OH235878   2.371   2.975  14.786  0.1491  0.3197 -0.2590
 4796TIP3    H135879   2.444   3.024  14.749  2.8731 -1.1193  2.7389
 4796TIP3    H235880   2.372   2.892  14.738  0.3095  0.3908 -0.3799
 4797TIP3   OH235881   2.962   3.583   0.557  0.3837  0.3315  0.1015
 4797TIP3    H135882   2.943   3.550   0.469 -0.1259 -0.4726  0.5026
 4797TIP3    H235883   2.879   3.622   0.586  0.5330  0.5318  0.2618
 4798TIP3   OH235884   1.092   4.210   3.847 -0.2078 -1.4149  0.0049
 4798TIP3    H135885   1.178   4.228   3.884 -0.4901 -2.7966  1.4495
 4798TIP3    H235886   1.104   4.216   3.753  0.5882  2.0797  0.2131
 4799TIP3   OH235887   2.165   6.441   5.058 -0.2462  0.2950 -0.4617
 4799TIP3    H135888   2.072   6.459   5.067  0.0941  1.3722  1.3366
 4799TIP3    H235889   2.176   6.416   4.966 -2.4383 -0.8354 -0.4718
 4800TIP3   OH235890   0.205   3.339  16.383  0.2127  0.2190 -0.7127
 4800TIP3    H135891   0.253   3.295  16.454  0.1242 -0.1377 -0.8717
 4800TIP3    H235892   0.183   3.268  16.322  0.2693  0.5192 -1.0859
 4801TIP3   OH235893   2.933   1.405  15.674  0.3870  0.3778  0.2504
 4801TIP3    H135894   2.857   1.450  15.711 -0.8572  0.5376 -2.2202
 4801TIP3    H235895   2.897   1.324  15.638  1.5567  0.0147 -0.1435
 4802TIP3   OH235896   6.131   1.527   4.575 -0.2498  0.2363 -0.5905
 4802TIP3    H135897   6.043   1.516   4.539 -0.2438  2.3842 -1.4252
 4802TIP3    H235898   6.186   1.550   4.500  0.4689  1.4323  0.2514
 4803TIP3   OH235899   5.739   3.177  16.508 -0.5676  0.2076  0.1727
 4803TIP3    H135900   5.805   3.119  16.545  0.2510  0.0967 -1.4198
 4803TIP3    H235901   5.685   3.121  16.453  0.8695  1.0507 -2.2299
 4804TIP3   OH235902   3.436   2.808   2.877 -0.1840 -0.4236 -0.5975
 4804TIP3    H135903   3.361   2.868   2.879  0.1447 -0.0103  1.6021
 4804TIP3    H235904   3.511   2.863   2.856 -0.6079 -1.1827 -5.3336
 4805TIP3   OH235905   3.359   4.751   2.704 -0.3278  0.3383  0.0934
 4805TIP3    H135906   3.286   4.739   2.765  0.1071 -1.3377  0.3421
 4805TIP3    H235907   3.416   4.676   2.722  1.5360  1.6927  0.0100
 4806TIP3   OH235908   5.871   0.757  11.307  0.4024 -0.2654 -0.2968
 4806TIP3    H135909   5.787   0.735  11.347  0.8796 -1.1846  0.2331
 4806TIP3    H235910   5.847   0.809  11.229 -0.5250  1.9373  1.3518
 4807TIP3   OH235911   5.046   5.224  12.111 -0.1863  0.2898  0.1402
 4807TIP3    H135912   4.983   5.198  12.178 -0.4459  1.0125  0.1813
 4807TIP3    H235913   5.112   5.276  12.157  1.6391 -2.1740  0.5064
 4808TIP3   OH235914   0.039   3.391   2.399 -0.2382  0.0637 -0.2774
 4808TIP3    H135915  -0.041   3.384   2.452 -0.9431  0.5285 -1.2328
 4808TIP3    H235916   0.104   3.340   2.447  0.0724  2.8451  2.6481
 4809TIP3   OH235917   0.521   3.909   1.742 -0.5454  0.0097  0.7136
 4809TIP3    H135918   0.431   3.931   1.717 -0.8318 -2.0570 -0.2719
 4809TIP3    H235919   0.521   3.814   1.749  1.8033 -0.1279 -0.2814
 4810TIP3   OH235920   5.221   6.223  16.728 -0.3240 -0.6695 -0.0066
 4810TIP3    H135921   5.234   6.309  16.688 -1.8135 -0.4822 -0.1430
 4810TIP3    H235922   5.292   6.169  16.692  1.1771  0.7025  0.7685
 4811TIP3   OH235923   0.869   6.731   0.551 -0.1497 -0.3307  0.0886
 4811TIP3    H135924   0.865   6.809   0.495 -0.7307  0.7165  1.5251
 4811TIP3    H235925   0.819   6.665   0.504  1.2167 -0.2112 -1.6610
 4812TIP3   OH235926   1.943   3.936  15.214  0.0105 -0.6424  0.1046
 4812TIP3    H135927   1.986   3.916  15.297  2.4285 -1.0033 -1.1568
 4812TIP3    H235928   1.965   3.863  15.156  0.2339  0.6264 -1.4907
 4813TIP3   OH235929   0.808   3.572   5.875  0.0531 -0.2000  0.3017
 4813TIP3    H135930   0.877   3.512   5.904  0.6745 -0.1870 -1.0774
 4813TIP3    H235931   0.855   3.646   5.838 -0.7144  0.0635 -0.1657
 4814TIP3   OH235932   2.804   6.593  15.227 -0.0987 -0.4807 -0.6311
 4814TIP3    H135933   2.819   6.509  15.185  2.4577 -0.8569  0.8094
 4814TIP3    H235934   2.812   6.576  15.321  0.8565  1.3866 -0.3124
 4815TIP3   OH235935   3.257   4.454  12.055 -0.3585  0.5050 -0.0099
 4815TIP3    H135936   3.287   4.380  12.107 -1.0768 -1.1032 -1.7654
 4815TIP3    H235937   3.270   4.426  11.964 -3.1959  1.3706 -0.7776
 4816TIP3   OH235938   4.470   0.757   0.386 -0.1315  0.7684  0.2808
 4816TIP3    H135939   4.411   0.682   0.395 -0.7729  1.2203 -0.0904
 4816TIP3    H235940   4.421   0.820   0.334  1.3732  0.4455 -1.6108
 4817TIP3   OH235941   1.087   4.325  16.037  0.1955  0.1409  0.6261
 4817TIP3    H135942   1.068   4.283  15.953 -0.3922  0.4699  0.5956
 4817TIP3    H235943   1.078   4.419  16.020 -2.4039  0.1412  1.6421
 4818TIP3   OH235944   3.788   4.709  11.715  0.3810 -0.1089 -0.0790
 4818TIP3    H135945   3.820   4.683  11.629  0.6865  1.8049 -0.5744
 4818TIP3    H235946   3.866   4.715  11.770  0.1350 -1.8686  0.5264
 4819TIP3   OH235947   5.630   2.913  15.335  0.2161 -0.5430 -0.3261
 4819TIP3    H135948   5.543   2.874  15.343  1.1795 -2.6479  0.5841
 4819TIP3    H235949   5.677   2.855  15.275  1.3747 -0.1797  0.2001
 4820TIP3   OH235950   4.000   3.305   5.985 -0.0799 -0.1666 -0.0726
 4820TIP3    H135951   4.020   3.331   5.895  0.9733  2.1353  0.7634
 4820TIP3    H235952   4.019   3.211   5.986  2.2997  0.1954 -1.6667
 4821TIP3   OH235953   5.939   4.117  13.199  0.0442  0.1500 -0.0911
 4821TIP3    H135954   5.897   4.096  13.115 -0.3173 -0.6986  0.2907
 4821TIP3    H235955   6.003   4.046  13.212  0.4384  0.5405  0.1220
 4822TIP3   OH235956   4.493   2.562  14.038  0.6314  0.1889 -0.3733
 4822TIP3    H135957   4.446   2.606  14.109 -0.6023 -1.0293 -0.3852
 4822TIP3    H235958   4.446   2.589  13.959 -1.3782 -2.5185 -0.2283
 4823TIP3   OH235959   2.970   2.917   4.052  0.3599  0.6328 -0.2508
 4823TIP3    H135960   3.064   2.911   4.035  0.2766  0.4463 -0.6596
 4823TIP3    H235961   2.929   2.895   3.968 -0.0507  0.3377  0.0210
 4824TIP3   OH235962   6.203   2.411  14.584 -0.5619 -0.1320  0.0313
 4824TIP3    H135963   6.108   2.417  14.592 -0.4123  0.7170  1.6496
 4824TIP3    H235964   6.218   2.370  14.499 -2.3453  0.7807 -0.7754
 4825TIP3   OH235965   2.211   1.982   0.705 -0.4171 -0.0194 -0.1278
 4825TIP3    H135966   2.160   2.013   0.630 -1.7150  0.2488  0.8272
 4825TIP3    H235967   2.302   2.002   0.683 -0.4695 -1.9992 -2.6250
 4826TIP3   OH235968   0.848   2.029  12.219  0.3961 -0.3392 -0.3284
 4826TIP3    H135969   0.926   2.084  12.209  1.0133 -1.2973 -1.0481
 4826TIP3    H235970   0.777   2.082  12.182  0.4515  1.0215  1.4113
 4827TIP3   OH235971   6.652   5.800   5.631  0.0918  0.0985  0.1069
 4827TIP3    H135972   6.584   5.743   5.666 -0.3631 -0.0174 -0.9229
 4827TIP3    H235973   6.629   5.887   5.664 -1.0842  0.2136 -0.9205
 4828TIP3   OH235974   1.630   3.794  14.144 -0.0977  0.0568  0.1839
 4828TIP3    H135975   1.644   3.716  14.091  0.5566 -0.0880  0.5692
 4828TIP3    H235976   1.584   3.854  14.085  1.6840  0.3676 -0.9722
 4829TIP3   OH235977   1.608   2.370  16.207 -0.2192 -0.0029 -0.6647
 4829TIP3    H135978   1.555   2.292  16.193  0.1078  0.1291 -3.0185
 4829TIP3    H235979   1.546   2.443  16.200 -0.2015  0.0363 -0.4256
 4830TIP3   OH235980   2.118   3.067  15.730  0.3085 -0.5317  0.1704
 4830TIP3    H135981   2.189   3.120  15.765 -0.7574 -0.0595  1.7296
 4830TIP3    H235982   2.083   3.119  15.658  0.9556 -0.3478 -0.0197
 4831TIP3   OH235983   0.454   4.611  15.906 -0.5400 -0.2074 -0.0351
 4831TIP3    H135984   0.375   4.659  15.882 -0.0052  0.1779 -1.0660
 4831TIP3    H235985   0.498   4.667  15.970 -0.6162  0.0345 -0.1938
 4832TIP3   OH235986   1.461   2.715  14.971  0.0999  0.0947 -0.5341
 4832TIP3    H135987   1.551   2.705  14.939  0.6109  1.4990  0.3838
 4832TIP3    H235988   1.457   2.804  15.004 -1.7300  0.1366 -0.7867
 4833TIP3   OH235989   1.718   2.431  13.605  0.2687 -0.5343  0.5086
 4833TIP3    H135990   1.760   2.432  13.519  0.0359 -0.3804  0.3957
 4833TIP3    H235991   1.658   2.356  13.601 -2.6370  1.6288 -0.8816
 4834TIP3   OH235992   3.415   1.434   0.346  0.0439 -0.6593  0.0137
 4834TIP3    H135993   3.492   1.454   0.400 -0.0225 -4.2655  1.7907
 4834TIP3    H235994   3.449   1.374   0.279 -0.6988  0.3148 -1.2692
 4835TIP3   OH235995   3.369   5.006  14.011  0.7103 -0.0987 -0.7042
 4835TIP3    H135996   3.393   4.930  13.957  2.4872  0.1795 -0.3680
 4835TIP3    H235997   3.280   5.028  13.983  0.6932 -1.4307 -1.8104
 4836TIP3   OH235998   2.290   0.300   0.879 -0.2845 -0.0974  0.0033
 4836TIP3    H135999   2.252   0.239   0.816 -1.6293 -1.0625  1.6742
 4836TIP3    H236000   2.374   0.261   0.903 -1.2227 -1.4302  1.2083
 4837TIP3   OH236001   5.432   3.724  13.493 -0.1051  0.5084  0.3689
 4837TIP3    H136002   5.465   3.741  13.404 -0.2164 -1.8028 -0.2049
 4837TIP3    H236003   5.337   3.723  13.483 -0.2153  2.2126  0.9739
 4838TIP3   OH236004   3.736   6.356   2.400  0.0973 -0.2849  0.5253
 4838TIP3    H136005   3.821   6.344   2.357 -0.9479 -1.0586 -1.4804
 4838TIP3    H236006   3.697   6.430   2.355 -0.5372 -0.2970  1.0490
 4839TIP3   OH236007   4.194   0.944  15.002  0.5190 -0.1430 -0.2210
 4839TIP3    H136008   4.167   0.855  14.980 -1.2871  0.0845  0.8553
 4839TIP3    H236009   4.254   0.934  15.076 -0.1209 -0.4602  0.2681
 4840TIP3   OH236010   2.019   3.066  15.979  0.7521 -0.6017  0.0702
 4840TIP3    H136011   2.042   3.157  15.996  0.2389 -0.4445 -0.0420
 4840TIP3    H236012   2.025   3.057  15.884  0.5836 -0.6212  0.0611
 4841TIP3   OH236013   4.014   0.564   4.473 -0.4113  0.3580 -0.2759
 4841TIP3    H136014   4.093   0.520   4.504 -0.6784 -0.8495 -1.2447
 4841TIP3    H236015   3.979   0.608   4.550  0.1494 -0.7083  0.6084
 4842TIP3   OH236016   0.641   0.603   3.506 -0.0856 -0.1156  0.2148
 4842TIP3    H136017   0.587   0.536   3.465 -0.9890  0.7123  0.0029
 4842TIP3    H236018   0.731   0.574   3.493 -0.4688 -2.1246  1.5726
 4843TIP3   OH236019   3.293   0.725   2.193 -0.0070  0.4574 -0.1968
 4843TIP3    H136020   3.247   0.722   2.109  0.0699 -4.6957 -0.3793
 4843TIP3    H236021   3.241   0.785   2.246 -1.2067  2.3669 -3.2487
 4844TIP3   OH236022   4.677   1.645  13.271 -0.5578  0.0912  0.0254
 4844TIP3    H136023   4.684   1.658  13.365  1.1322 -1.3954  0.1651
 4844TIP3    H236024   4.617   1.571  13.261  0.5740 -0.8675  0.0780
 4845TIP3   OH236025   1.075   3.705   2.508  0.2176 -0.0109 -0.1879
 4845TIP3    H136026   0.992   3.725   2.550  0.4119  0.1849  0.1124
 4845TIP3    H236027   1.052   3.666   2.424 -0.1769 -0.5499  0.1672
 4846TIP3   OH236028   4.395   4.592   0.362  0.1065  0.0620 -0.8599
 4846TIP3    H136029   4.487   4.565   0.360 -0.3166 -1.5759 -0.4797
 4846TIP3    H236030   4.373   4.612   0.272  0.5982 -0.4862 -1.1088
 4847TIP3   OH236031   0.680   4.469  12.695 -0.0641 -0.6750  0.0175
 4847TIP3    H136032   0.738   4.435  12.626  0.5849 -0.9265  0.6797
 4847TIP3    H236033   0.733   4.467  12.774 -0.7393 -0.1820  0.4931
 4848TIP3   OH236034   0.864   2.563   2.326  1.0820 -0.0643 -0.5477
 4848TIP3    H136035   0.852   2.617   2.249  1.6703  2.3225  0.9474
 4848TIP3    H236036   0.939   2.601   2.371 -0.0074 -0.5530  1.8486
 4849TIP3   OH236037   6.686   0.070  10.602  0.7083 -0.2019  0.6682
 4849TIP3    H136038   6.598   0.038  10.583  0.7200  0.0516  0.1479
 4849TIP3    H236039   6.672   0.149  10.654  0.6712 -0.8642  1.6906
 4850TIP3   OH236040   4.907   3.540   0.906 -0.2195 -0.3612  0.2888
 4850TIP3    H136041   4.910   3.549   0.810 -0.1639  0.1550  0.3369
 4850TIP3    H236042   4.949   3.455   0.923  1.1641  0.2122 -0.0573
 4851TIP3   OH236043   2.410   0.002  13.529 -0.5731  0.5752  1.2042
 4851TIP3    H136044   2.483   0.037  13.581  2.4674 -2.6980 -0.4829
 4851TIP3    H236045   2.360  -0.052  13.591  0.7897 -0.2903  1.5834
 4852TIP3   OH236046   2.509   3.762  15.973 -0.2269  0.1338 -0.4810
 4852TIP3    H136047   2.432   3.759  16.030  0.3138 -3.2494  0.2893
 4852TIP3    H236048   2.580   3.791  16.030 -0.2227 -0.5219 -0.1422
 4853TIP3   OH236049   1.743   1.469   1.397 -0.4194  0.1944 -0.3087
 4853TIP3    H136050   1.808   1.539   1.398 -2.5452  2.3417 -0.9861
 4853TIP3    H236051   1.724   1.452   1.489  0.2686  0.3613 -0.1362
 4854TIP3   OH236052   0.288   2.558   2.073 -0.5549  0.1176 -0.0756
 4854TIP3    H136053   0.375   2.543   2.036 -0.9381  0.1601 -1.0314
 4854TIP3    H236054   0.302   2.619   2.145  0.0121  1.3878 -1.2265
 4855TIP3   OH236055   4.279   4.665   3.500 -0.5203 -0.1882 -0.4045
 4855TIP3    H136056   4.306   4.722   3.428 -2.1201  2.0549  0.6596
 4855TIP3    H236057   4.314   4.706   3.578  0.4848 -2.1382  0.2457
 4856TIP3   OH236058   3.451   3.853   0.047 -0.5920  0.4226 -0.4959
 4856TIP3    H136059   3.527   3.803   0.078  0.1642  1.2653 -0.9502
 4856TIP3    H236060   3.376   3.796   0.065  0.0521 -0.0796  0.7450
 4857TIP3   OH236061   1.290   2.434   2.341 -0.4032  1.0059  0.4118
 4857TIP3    H136062   1.324   2.521   2.320 -1.3435  1.8481  2.1655
 4857TIP3    H236063   1.342   2.404   2.415  0.4829 -0.3320 -0.7134
 4858TIP3   OH236064   4.152   4.516  17.177 -0.0382  0.1182 -0.4541
 4858TIP3    H136065   4.149   4.420  17.184 -2.2181  0.2328  1.5990
 4858TIP3    H236066   4.091   4.537  17.106  0.5187 -0.0185 -0.9743
 4859TIP3   OH236067   6.519   6.153  13.397  0.5755  0.2033  0.3239
 4859TIP3    H136068   6.453   6.212  13.362  1.2443  0.3264 -0.7833
 4859TIP3    H236069   6.547   6.101  13.322  1.4528 -0.1153  0.8573
 4860TIP3   OH236070   5.366   1.416   3.291 -0.2745  0.0202  0.2503
 4860TIP3    H136071   5.370   1.429   3.385 -1.3392  1.0681  0.1673
 4860TIP3    H236072   5.448   1.455   3.258 -0.3418  0.5040  0.6509
 4861TIP3   OH236073   4.213   2.964   6.227 -0.4576  0.6340 -0.2299
 4861TIP3    H136074   4.279   3.031   6.208  0.1439 -0.4452 -2.2646
 4861TIP3    H236075   4.262   2.892   6.265 -0.1907 -0.5564 -2.6260
 4862TIP3   OH236076   0.961   2.247  12.906 -0.6308 -0.1257  0.4687
 4862TIP3    H136077   0.879   2.208  12.874 -0.6222 -0.9094  1.3622
 4862TIP3    H236078   0.988   2.307  12.836 -1.3453 -0.7421 -0.3574
 4863TIP3   OH236079   5.455   0.708   6.091  0.4295  0.4101  0.3239
 4863TIP3    H136080   5.549   0.705   6.078  0.2204 -0.9231 -1.2961
 4863TIP3    H236081   5.418   0.687   6.005 -1.3003 -1.4661  1.4193
 4864TIP3   OH236082   2.166   2.680   2.452 -0.1309 -0.1405 -0.1378
 4864TIP3    H136083   2.138   2.605   2.504  2.3129 -1.1667 -0.1950
 4864TIP3    H236084   2.127   2.666   2.366 -1.5858 -0.0890  0.4899
 4865TIP3   OH236085   2.999   2.943  11.183 -0.3574  0.5922 -0.3556
 4865TIP3    H136086   2.936   2.877  11.211 -1.2992  1.7198  0.2913
 4865TIP3    H236087   2.972   2.964  11.093  0.7318 -0.7792 -1.0382
 4866TIP3   OH236088   5.085   4.453   5.171 -0.0144 -0.0128  0.1721
 4866TIP3    H136089   5.180   4.442   5.166  0.0809  0.5727  0.6444
 4866TIP3    H236090   5.061   4.423   5.259 -0.1883  0.3855  0.2631
 4867TIP3   OH236091   6.793   6.756   2.657  0.0199  0.3253 -0.2242
 4867TIP3    H136092   6.813   6.731   2.567 -1.4838  1.6728 -0.9818
 4867TIP3    H236093   6.878   6.771   2.698  0.8031 -1.7823 -0.9364
 4868TIP3   OH236094   6.228   2.638  16.618 -0.0858 -0.4023 -0.0431
 4868TIP3    H136095   6.172   2.634  16.540  0.3983 -1.8056 -0.3410
 4868TIP3    H236096   6.227   2.731  16.643 -2.1228 -0.2963 -0.3427
 4869TIP3   OH236097   4.368   2.643  17.001 -0.6302  0.3798  0.0339
 4869TIP3    H136098   4.338   2.656  16.911  1.0870  2.3219 -0.3264
 4869TIP3    H236099   4.305   2.692  17.054 -1.5347 -0.6078 -0.0908
 4870TIP3   OH236100   6.803   2.008  12.224 -0.0544  0.0898  0.0997
 4870TIP3    H136101   6.786   2.012  12.130 -1.0904  0.8223  0.2907
 4870TIP3    H236102   6.850   1.926  12.238  1.3000  0.6155 -1.2312
 4871TIP3   OH236103   0.072   2.651   0.839  0.3967 -0.3072 -0.4421
 4871TIP3    H136104   0.102   2.571   0.882  0.8561 -1.1337 -2.1905
 4871TIP3    H236105  -0.017   2.630   0.809 -0.1767  0.4893  0.6469
 4872TIP3   OH236106   4.057   1.332  13.967 -0.1432  0.0559 -0.0238
 4872TIP3    H136107   4.140   1.316  14.012 -0.5294  0.1974  0.7537
 4872TIP3    H236108   4.016   1.403  14.016 -1.6128 -1.3253  0.8404
 4873TIP3   OH236109   6.770   5.151   5.767  0.0096 -0.4767 -0.0014
 4873TIP3    H136110   6.805   5.234   5.800  2.2289 -0.2587 -2.5992
 4873TIP3    H236111   6.682   5.172   5.736  0.4102  0.8410 -0.2962
 4874TIP3   OH236112   0.543   5.062   4.009  0.9633  0.8543 -0.2280
 4874TIP3    H136113   0.525   4.970   4.029  2.0944  0.2505 -1.8043
 4874TIP3    H236114   0.567   5.100   4.094 -0.6298  0.0079  0.6598
 4875TIP3   OH236115   5.150   2.469   5.432 -0.2676  0.4029  0.1537
 4875TIP3    H136116   5.065   2.513   5.438 -0.0974  1.2987 -2.6705
 4875TIP3    H236117   5.144   2.417   5.352  1.7094  0.1592  0.1279
 4876TIP3   OH236118   3.337   4.250  13.374  0.0250 -0.2397  0.2360
 4876TIP3    H136119   3.407   4.313  13.388 -0.4089  0.1119  0.9120
 4876TIP3    H236120   3.307   4.227  13.463  1.3038 -2.7164  0.1016
 4877TIP3   OH236121   3.638   1.725  14.288  0.0557 -0.7763 -0.2765
 4877TIP3    H136122   3.570   1.681  14.339 -0.3816 -1.1860 -1.1734
 4877TIP3    H236123   3.589   1.773  14.221  0.5612  0.6087  0.3330
 4878TIP3   OH236124   0.515   0.003  13.082  0.3602 -0.0459  0.6300
 4878TIP3    H136125   0.550   0.092  13.087  2.0312 -0.7157  3.0464
 4878TIP3    H236126   0.551  -0.033  13.001  0.0533  1.2895 -0.1297
 4879TIP3   OH236127   3.715   0.753   4.641  0.3668 -0.5426 -0.3487
 4879TIP3    H136128   3.675   0.733   4.726 -0.3692  0.3948 -0.4631
 4879TIP3    H236129   3.716   0.669   4.595  0.2239 -0.9374  0.3534
 4880TIP3   OH236130   4.171   4.291   6.604  0.5026 -0.0509 -0.4339
 4880TIP3    H136131   4.195   4.377   6.637 -0.3863  1.3027 -3.0165
 4880TIP3    H236132   4.098   4.263   6.658  0.1989  1.2594 -0.1366
 4881TIP3   OH236133   4.665   1.014   2.552  0.5347 -0.4161  0.0732
 4881TIP3    H136134   4.648   1.078   2.483  1.4469 -0.3501 -0.1048
 4881TIP3    H236135   4.600   0.946   2.538 -1.2307  1.0047  0.9908
 4882TIP3   OH236136   4.443   5.132  12.014  0.1327  0.3230  0.0261
 4882TIP3    H136137   4.478   5.210  12.057 -1.3813  0.5535  0.9150
 4882TIP3    H236138   4.492   5.125  11.933  2.3973  0.4434  1.3189
 4883TIP3   OH236139   2.075   3.717   2.072 -0.0652 -0.2266  0.1752
 4883TIP3    H136140   2.158   3.745   2.113  0.4576  0.4551 -1.2644
 4883TIP3    H236141   2.043   3.648   2.129  1.4781 -0.4779  0.8115
 4884TIP3   OH236142   3.262   2.734  11.483 -0.2441  0.3454  0.0710
 4884TIP3    H136143   3.255   2.649  11.526 -1.7321  0.4230  0.0382
 4884TIP3    H236144   3.318   2.786  11.541 -0.3222 -0.2782  0.7098
 4885TIP3   OH236145   0.826   6.113  15.789  0.7857  0.2516 -0.3247
 4885TIP3    H136146   0.738   6.108  15.826  0.4444  3.1971 -0.5149
 4885TIP3    H236147   0.814   6.098  15.695  0.6479 -0.2432 -0.2335
 4886TIP3   OH236148   2.015   4.713  16.489 -0.3208 -0.1647  0.0218
 4886TIP3    H136149   2.004   4.808  16.479 -0.7318 -0.2075  0.0891
 4886TIP3    H236150   2.063   4.703  16.571 -0.8797 -0.0524  0.3613
 4887TIP3   OH236151   1.444   0.819  13.757 -0.0988  0.7558 -0.0028
 4887TIP3    H136152   1.497   0.746  13.725 -1.2807 -0.7322  1.2758
 4887TIP3    H236153   1.504   0.870  13.812  0.3551 -0.1431  0.3560
 4888TIP3   OH236154   5.957   0.614  12.213 -0.2332  0.6875  0.7411
 4888TIP3    H136155   5.942   0.553  12.141 -4.3034 -0.2792  2.1207
 4888TIP3    H236156   5.953   0.700  12.172 -0.3023  0.1431 -0.4531
 4889TIP3   OH236157   2.341   4.308  15.778  0.1969 -0.2473  0.5953
 4889TIP3    H136158   2.323   4.354  15.860 -2.1103 -0.0523  0.0505
 4889TIP3    H236159   2.259   4.264  15.757  0.4572  0.3564 -2.0046
 4890TIP3   OH236160   5.211   1.830  15.236 -0.0751 -0.4331 -0.2174
 4890TIP3    H136161   5.167   1.748  15.258  0.0798 -0.4847 -0.1041
 4890TIP3    H236162   5.304   1.808  15.234  0.0907  0.0477  1.2153
 4891TIP3   OH236163   1.045   5.860   6.683  0.1679  0.4164  0.1488
 4891TIP3    H136164   1.098   5.796   6.731 -2.0398 -1.6416 -0.0122
 4891TIP3    H236165   0.957   5.823   6.681 -0.4783  1.7992 -2.9791
 4892TIP3   OH236166   3.187   3.422  16.786 -0.1214  0.2950  0.4516
 4892TIP3    H136167   3.155   3.417  16.696 -0.1537 -0.1198  0.4832
 4892TIP3    H236168   3.129   3.364  16.835  0.1852  0.1562  0.6541
 4893TIP3   OH236169   6.266   3.435   2.677 -0.0426  0.1166  0.3662
 4893TIP3    H136170   6.335   3.373   2.697  0.1349  0.0037 -0.5772
 4893TIP3    H236171   6.259   3.489   2.756 -0.0675 -0.9600  1.1168
 4894TIP3   OH236172   3.081   4.901   4.607  0.6164 -0.3327 -0.1358
 4894TIP3    H136173   3.028   4.836   4.654  0.8097 -0.5038 -0.1541
 4894TIP3    H236174   3.142   4.935   4.672 -1.1286  1.6984  0.5727
 4895TIP3   OH236175   1.171   4.502  13.073 -0.3704 -0.4706  0.0620
 4895TIP3    H136176   1.129   4.550  13.001 -0.6758 -0.2885  0.3578
 4895TIP3    H236177   1.143   4.548  13.152  2.8431  1.6214  0.1555
 4896TIP3   OH236178   1.460   2.849   6.014  0.4707 -0.4292  0.6442
 4896TIP3    H136179   1.454   2.931   5.966  0.2987 -0.2865  0.9099
 4896TIP3    H236180   1.529   2.800   5.968 -0.7087 -0.9155 -0.6782
 4897TIP3   OH236181   4.579   0.550   0.102  0.3047 -0.0386 -0.3638
 4897TIP3    H136182   4.516   0.479   0.089  0.8113 -0.4092 -0.8066
 4897TIP3    H236183   4.606   0.542   0.193  0.8311 -0.8123 -0.5759
 4898TIP3   OH236184   0.196   2.613   0.215  0.1001  0.1787  0.6975
 4898TIP3    H136185   0.171   2.628   0.124 -0.7049 -2.6881  0.3509
 4898TIP3    H236186   0.291   2.622   0.216  0.1051  0.2922 -0.4058
 4899TIP3   OH236187   6.363   0.318   2.334  0.0016  0.1003 -0.0346
 4899TIP3    H136188   6.453   0.327   2.304  0.2969 -0.0004  0.7814
 4899TIP3    H236189   6.333   0.236   2.296  0.9831 -0.9778  1.3919
 4900TIP3   OH236190   2.559   2.790  16.762 -0.1028 -0.5504  0.0069
 4900TIP3    H136191   2.513   2.781  16.845  1.2664 -3.7956  0.5614
 4900TIP3    H236192   2.509   2.737  16.701 -0.4123  0.8291 -1.0036
 4901TIP3   OH236193   5.237   2.894   5.571  0.3022 -0.2809  0.6513
 4901TIP3    H136194   5.292   2.860   5.500  1.2776  2.5754 -0.1059
 4901TIP3    H236195   5.148   2.878   5.541  0.6765 -2.3163  0.4904
 4902TIP3   OH236196   5.504   6.572  15.177  0.3441  0.1612  0.1103
 4902TIP3    H136197   5.429   6.623  15.208 -0.2730  1.1054 -2.6286
 4902TIP3    H236198   5.524   6.513  15.249 -3.2794 -0.4057  0.8740
 4903TIP3   OH236199   6.411   5.560   1.898  0.1842  0.3135 -0.2741
 4903TIP3    H136200   6.350   5.633   1.903 -0.1168  0.3100 -2.7107
 4903TIP3    H236201   6.355   5.483   1.886  0.5830  0.0273 -0.3194
 4904TIP3   OH236202   1.186   5.562   6.354  0.5768 -0.2639  0.1850
 4904TIP3    H136203   1.236   5.582   6.433 -0.0575 -1.1216  0.8167
 4904TIP3    H236204   1.139   5.481   6.375 -0.2500 -0.0477 -0.7770
 4905TIP3   OH236205   5.278   1.669   3.734 -0.0316 -0.3900 -0.1877
 4905TIP3    H136206   5.195   1.628   3.757 -0.1961  0.0879  0.0790
 4905TIP3    H236207   5.254   1.738   3.672  0.4222 -1.8228 -2.0773
 4906TIP3   OH236208   6.353   4.320   3.812  0.7555  0.0088  0.4591
 4906TIP3    H136209   6.423   4.255   3.806  1.3558  0.6989 -0.3925
 4906TIP3    H236210   6.272   4.269   3.816  1.2966 -0.8161  1.7764
 4907TIP3   OH236211   2.798   4.425  17.052 -0.5843 -0.3293 -0.8144
 4907TIP3    H136212   2.767   4.408  17.141  0.8394  1.1937  0.0274
 4907TIP3    H236213   2.739   4.375  16.996 -2.3265 -0.3022  0.8979
 4908TIP3   OH236214   2.656   5.039  15.215 -0.3269 -0.0191  0.1955
 4908TIP3    H136215   2.613   5.037  15.300  2.3015 -2.5751  1.6164
 4908TIP3    H236216   2.659   4.947  15.187  1.1524  0.4601 -1.4114
 4909TIP3   OH236217   0.295   0.289  14.355 -0.0787  0.7829  0.5284
 4909TIP3    H136218   0.347   0.212  14.375 -0.7012 -0.0766 -0.9642
 4909TIP3    H236219   0.205   0.264  14.376 -0.3366  0.9425 -0.3388
 4910TIP3   OH236220   1.842   2.106   2.802  0.2637  0.3264 -0.4370
 4910TIP3    H136221   1.887   2.186   2.777 -1.2994  1.0621 -1.0444
 4910TIP3    H236222   1.800   2.128   2.886 -1.9953  0.9630 -1.6466
 4911TIP3   OH236223   2.215   1.891   5.273 -0.5191 -0.1930 -0.4625
 4911TIP3    H136224   2.304   1.896   5.308 -0.3812  0.3593 -0.8782
 4911TIP3    H236225   2.225   1.911   5.180 -0.9349 -1.2185 -0.7362
 4912TIP3   OH236226   4.026   4.687   4.448  0.1503  0.1133 -0.3747
 4912TIP3    H136227   4.062   4.640   4.523 -2.8750  0.3335  1.3589
 4912TIP3    H236228   4.074   4.770   4.447  1.7576 -0.7793 -0.0906
 4913TIP3   OH236229   0.840   5.649  11.405 -1.2141  0.7149 -0.3388
 4913TIP3    H136230   0.886   5.723  11.445 -0.9200 -0.2226  1.1180
 4913TIP3    H236231   0.909   5.585  11.387 -1.8411 -0.5830  1.5946
 4914TIP3   OH236232   1.953   5.915   0.617 -0.0561  0.5182 -0.7621
 4914TIP3    H136233   2.038   5.891   0.582  0.7848  1.8633  0.2816
 4914TIP3    H236234   1.944   6.008   0.596 -2.2043 -0.0165 -2.6689
 4915TIP3   OH236235   4.435   3.437  15.851 -0.0147 -0.6072  0.6151
 4915TIP3    H136236   4.373   3.372  15.818 -1.9801  0.5833  1.7597
 4915TIP3    H236237   4.477   3.393  15.925  0.1471 -1.2564  0.1521
 4916TIP3   OH236238   6.218   0.400   6.146  0.2791  0.1831 -0.3135
 4916TIP3    H136239   6.166   0.333   6.103  2.1330  0.0792 -2.6121
 4916TIP3    H236240   6.264   0.354   6.216 -2.3445  0.2312  1.5950
 4917TIP3   OH236241   2.208   1.497  12.678  0.5109  0.2295  0.6179
 4917TIP3    H136242   2.283   1.517  12.733  0.8346 -0.3555  0.3881
 4917TIP3    H236243   2.243   1.444  12.607 -0.3694 -1.4540  1.3717
 4918TIP3   OH236244   3.024   1.610   6.296 -0.0167  0.2626  0.0276
 4918TIP3    H136245   2.973   1.558   6.357 -0.3551  1.0071  0.3959
 4918TIP3    H236246   3.109   1.619   6.338 -0.0946  0.3606  0.1686
 4919TIP3   OH236247   2.115   2.263  16.771  0.0431 -0.7367 -0.0947
 4919TIP3    H136248   2.034   2.212  16.770  1.2142 -2.7604 -2.8911
 4919TIP3    H236249   2.089   2.350  16.739 -1.0681 -1.2607 -0.6540
 4920TIP3   OH236250   1.715   2.228  16.433 -0.5404 -0.1025 -0.1646
 4920TIP3    H136251   1.699   2.320  16.413  2.4327  0.5237 -0.1296
 4920TIP3    H236252   1.745   2.191  16.350 -0.0019 -0.5921  0.2456
 4921TIP3   OH236253   6.487   3.502  14.334 -0.0066 -0.3678 -0.0701
 4921TIP3    H136254   6.407   3.518  14.283 -0.5517  3.0228  1.5298
 4921TIP3    H236255   6.469   3.421  14.382 -0.9528 -1.6237 -2.3828
 4922TIP3   OH236256   1.315   4.983   4.001  0.2670 -0.2978  0.4580
 4922TIP3    H136257   1.229   5.006   4.035 -0.0987 -0.7405 -0.1361
 4922TIP3    H236258   1.341   5.059   3.949  0.2226 -0.1738  0.6164
 4923TIP3   OH236259   6.343   2.441   3.189  0.5109  0.1397  0.2413
 4923TIP3    H136260   6.300   2.357   3.207  0.9240 -0.2279 -0.4615
 4923TIP3    H236261   6.434   2.419   3.171  0.9206  0.8786  1.3347
 4924TIP3   OH236262   5.259   4.762  13.023  0.5384  0.5900 -0.0299
 4924TIP3    H136263   5.268   4.803  13.109  0.7780  1.5533 -0.4993
 4924TIP3    H236264   5.325   4.805  12.969  0.4566 -0.0744 -0.6722
 4925TIP3   OH236265   4.928   0.271   5.707 -0.3117  0.1703 -0.3009
 4925TIP3    H136266   4.918   0.177   5.720  0.4419  0.0002 -0.8520
 4925TIP3    H236267   4.950   0.280   5.614 -0.7347  0.9253 -0.3418
 4926TIP3   OH236268   2.479   5.844  12.162 -0.1219  0.4533 -0.3107
 4926TIP3    H136269   2.419   5.914  12.186 -1.0713 -0.8324  1.2769
 4926TIP3    H236270   2.423   5.766  12.154  1.2785 -0.8105  1.3350
 4927TIP3   OH236271   4.689   6.370   0.526  0.5131  0.5397 -0.0223
 4927TIP3    H136272   4.606   6.329   0.551  0.2855  0.1097 -1.4006
 4927TIP3    H236273   4.756   6.307   0.552  0.3078  0.2551 -0.1836
 4928TIP3   OH236274   5.669   3.574   3.600  0.4944  0.2217  0.4901
 4928TIP3    H136275   5.631   3.660   3.581  4.2096  1.7186 -1.3047
 4928TIP3    H236276   5.693   3.578   3.692  1.1727  1.4152  0.2844
 4929TIP3   OH236277   2.439   5.428  13.613 -0.3091 -0.1973  0.0626
 4929TIP3    H136278   2.440   5.520  13.639  1.2057 -0.3083  0.5070
 4929TIP3    H236279   2.482   5.382  13.685  0.4852 -1.0108 -0.9034
 4930TIP3   OH236280   0.072   3.702  11.619 -0.0250 -0.0312 -0.0720
 4930TIP3    H136281   0.148   3.666  11.666  0.1160 -1.7173 -1.4763
 4930TIP3    H236282   0.025   3.625  11.588 -1.7080  1.0103 -0.2183
 4931TIP3   OH236283   3.949   1.427  12.370  0.1011  0.1607 -0.0641
 4931TIP3    H136284   3.863   1.437  12.409 -0.4417 -0.0245 -1.1755
 4931TIP3    H236285   3.932   1.393  12.282  1.3349 -0.4787 -0.0798
 4932TIP3   OH236286   4.118   5.520   5.649  0.0669 -0.3124 -0.1595
 4932TIP3    H136287   4.135   5.581   5.722 -0.6346 -0.6156  0.2681
 4932TIP3    H236288   4.139   5.570   5.571  2.1001 -0.3874  0.2782
 4933TIP3   OH236289   3.542   4.327   0.209 -0.7022  0.1343 -0.7641
 4933TIP3    H136290   3.498   4.243   0.196 -0.3062  0.0194 -1.3828
 4933TIP3    H236291   3.488   4.372   0.274  0.1842 -1.4188  1.1510
 4934TIP3   OH236292   5.510   4.919  14.871 -0.6044  0.2869 -0.2895
 4934TIP3    H136293   5.452   4.892  14.941  0.7949 -0.9704  0.4457
 4934TIP3    H236294   5.553   4.838  14.842  1.3081  1.2299 -0.2960
 4935TIP3   OH236295   1.167   2.598   0.524  0.5511  0.3240 -0.8782
 4935TIP3    H136296   1.225   2.522   0.512 -0.2680 -0.1974 -1.6679
 4935TIP3    H236297   1.080   2.559   0.537  0.4233  1.0818  0.7124
 4936TIP3   OH236298   1.265   4.287   5.431 -0.6983  0.3859  0.3512
 4936TIP3    H136299   1.209   4.245   5.365 -0.8566  0.0649  0.6884
 4936TIP3    H236300   1.338   4.324   5.380 -0.0591 -1.1045  0.1364
 4937TIP3   OH236301   6.644   6.410  14.732  0.0347 -0.0458  0.3136
 4937TIP3    H136302   6.586   6.471  14.778  1.1756  1.0397  0.3789
 4937TIP3    H236303   6.669   6.457  14.652  3.5217  1.0914  1.8530
 4938TIP3   OH236304   5.996   5.272  17.068 -0.0183 -0.1365 -0.2677
 4938TIP3    H136305   5.908   5.303  17.088  0.3834  1.3151 -0.6199
 4938TIP3    H236306   6.025   5.327  16.996  1.5036  0.0039  0.4139
 4939TIP3   OH236307   0.560   4.052  11.859 -0.3950  0.0003  0.3484
 4939TIP3    H136308   0.575   3.958  11.847  0.1129 -0.2322  2.3925
 4939TIP3    H236309   0.623   4.094  11.801  1.2589 -0.9623  1.3582
 4940TIP3   OH236310   5.151   4.507  11.207  0.0562 -0.0096  0.7396
 4940TIP3    H136311   5.135   4.556  11.127  1.9005  1.3009  1.1045
 4940TIP3    H236312   5.071   4.457  11.222 -0.8497  0.8127 -1.1322
 4941TIP3   OH236313   5.877   6.590  13.893 -0.2087 -0.2959 -0.0835
 4941TIP3    H136314   5.970   6.570  13.889 -0.1510  0.1230 -1.5649
 4941TIP3    H236315   5.835   6.506  13.913  0.3891 -0.8057 -0.9150
 4942TIP3   OH236316   5.091   4.241  14.170  0.7579 -0.4335 -0.4438
 4942TIP3    H136317   5.068   4.182  14.242  0.5006 -0.9013 -0.8983
 4942TIP3    H236318   5.109   4.183  14.096 -0.7804  0.0700 -1.2699
 4943TIP3   OH236319   6.195   1.391  10.584 -0.4373 -0.4648 -0.2700
 4943TIP3    H136320   6.115   1.341  10.596 -0.5834 -0.1042  0.3182
 4943TIP3    H236321   6.166   1.476  10.551 -0.1801 -0.8071 -1.4062
 4944TIP3   OH236322   1.504   2.350  11.837  0.0502  0.2563 -0.7526
 4944TIP3    H136323   1.460   2.326  11.756  0.1908 -1.5392 -0.3315
 4944TIP3    H236324   1.534   2.440  11.822  0.8872 -0.3376 -3.0523
 4945TIP3   OH236325   2.554   2.714   5.531 -0.1357  0.4028 -0.1343
 4945TIP3    H136326   2.647   2.731   5.519 -0.0714  0.6787  0.6890
 4945TIP3    H236327   2.551   2.638   5.590 -0.4317  0.0179 -0.6400
 4946TIP3   OH236328   0.286   4.050   0.363  0.5326  0.2878  0.1911
 4946TIP3    H136329   0.276   3.960   0.395 -1.7670 -0.1611 -1.4666
 4946TIP3    H236330   0.280   4.105   0.442  1.7515 -0.9763  1.2046
 4947TIP3   OH236331   0.841   1.470  14.163  1.0951  0.1085 -0.2879
 4947TIP3    H136332   0.772   1.404  14.156 -0.5974  1.7160  0.4074
 4947TIP3    H236333   0.827   1.511  14.248  2.5216  0.9279 -0.4120
 4948TIP3   OH236334   0.955   4.039  15.065  0.1477 -0.2226  0.5432
 4948TIP3    H136335   0.882   4.049  15.126 -0.2629  0.2732 -0.0196
 4948TIP3    H236336   0.934   3.961  15.015 -0.3908  0.3530 -0.1430
 4949TIP3   OH236337   2.800   2.271  15.789  0.4540  0.4994 -0.2031
 4949TIP3    H136338   2.714   2.247  15.826  1.2102 -0.5946  0.9238
 4949TIP3    H236339   2.793   2.248  15.696  0.3411 -2.1098  0.3609
 4950TIP3   OH236340   5.263   0.763  13.076 -0.5402 -0.1726 -0.1897
 4950TIP3    H136341   5.333   0.698  13.068 -0.5599 -0.3278  0.8618
 4950TIP3    H236342   5.300   0.842  13.036 -0.5467 -0.8191 -1.5550
 4951TIP3   OH236343   6.474   6.665  15.290 -0.4712 -0.6636 -0.3350
 4951TIP3    H136344   6.424   6.589  15.264 -0.7125  0.0704 -2.2069
 4951TIP3    H236345   6.451   6.732  15.225  1.5586  0.2356 -0.2128
 4952TIP3   OH236346   1.356   3.489  14.095 -0.0221  0.3851  0.1228
 4952TIP3    H136347   1.274   3.479  14.144 -1.5279 -1.2005 -2.4379
 4952TIP3    H236348   1.342   3.567  14.041 -0.4192 -0.5358 -1.1741
 4953TIP3   OH236349   4.486   3.187  15.691 -0.1120 -0.2174  0.2773
 4953TIP3    H136350   4.495   3.093  15.677 -1.6716 -0.3447 -0.1592
 4953TIP3    H236351   4.554   3.209  15.754 -1.2201 -2.1091  2.2829
 4954TIP3   OH236352   2.973   4.617   4.017 -0.4700 -0.7481  0.4992
 4954TIP3    H136353   2.897   4.666   4.048 -1.2066 -1.0034 -0.8174
 4954TIP3    H236354   2.997   4.659   3.934  0.7893 -0.7244  0.8560
 4955TIP3   OH236355   0.173   0.534   5.331 -0.5036 -0.1631 -0.5300
 4955TIP3    H136356   0.092   0.483   5.332 -1.0606  0.6180 -2.0818
 4955TIP3    H236357   0.145   0.625   5.342  0.2619  0.0361 -0.1103
 4956TIP3   OH236358   5.055   5.642  13.174  0.5388 -0.3148 -0.1501
 4956TIP3    H136359   5.066   5.553  13.139  0.8110  0.4290 -2.0473
 4956TIP3    H236360   4.979   5.676  13.129  2.5356  1.6806 -2.2937
 4957TIP3   OH236361   5.420   1.935  12.841 -0.3639  0.3863  0.1137
 4957TIP3    H136362   5.334   1.976  12.836 -0.7769 -0.0752  2.4098
 4957TIP3    H236363   5.408   1.859  12.898  1.3213 -0.4029 -0.5030
 4958TIP3   OH236364   5.355   6.682  12.904  0.3786  0.0802  0.3499
 4958TIP3    H136365   5.380   6.604  12.952  0.6137  0.7210  1.3010
 4958TIP3    H236366   5.276   6.657  12.856 -0.1916 -0.4203  1.5183
 4959TIP3   OH236367   4.539   1.910  13.320  0.0648  0.0195  0.4313
 4959TIP3    H136368   4.589   1.832  13.296 -0.0133  0.0897  0.0206
 4959TIP3    H236369   4.461   1.876  13.365 -1.6241 -0.4036 -2.5207
 4960TIP3   OH236370   5.819   4.078   2.822  0.1017 -0.3844 -0.2087
 4960TIP3    H136371   5.859   4.150   2.871  0.0026 -0.4240 -0.0675
 4960TIP3    H236372   5.858   4.083   2.735  0.9810 -0.8849  0.1413
 4961TIP3   OH236373   6.458   1.387   1.963 -0.1327  0.4511 -0.1225
 4961TIP3    H136374   6.451   1.414   2.054  1.8674 -0.1449  0.2432
 4961TIP3    H236375   6.477   1.467   1.915 -0.4600  0.6483  0.0739
 4962TIP3   OH236376   2.664   4.855   1.863 -0.0834 -0.0253  0.1065
 4962TIP3    H136377   2.706   4.932   1.825 -0.3868 -0.1196 -0.4256
 4962TIP3    H236378   2.714   4.837   1.943  0.4570  0.2669 -0.1659
 4963TIP3   OH236379   0.225   2.362  15.831  0.2029 -0.2052 -0.3872
 4963TIP3    H136380   0.204   2.351  15.738 -0.6829 -2.4524  0.0161
 4963TIP3    H236381   0.226   2.456  15.844  0.7585  0.1817 -2.7619
 4964TIP3   OH236382   4.953   0.308  12.554  0.6889  0.1961 -0.6120
 4964TIP3    H136383   4.862   0.285  12.572  0.6765  0.9719  0.4093
 4964TIP3    H236384   4.970   0.273  12.467 -0.4455 -0.3634 -0.6239
 4965TIP3   OH236385   6.712   3.056   1.815  0.5284  0.0828  0.5400
 4965TIP3    H136386   6.631   3.006   1.802  1.7277 -2.2646  1.5239
 4965TIP3    H236387   6.684   3.148   1.812 -1.7558 -0.5798 -1.5920
 4966TIP3   OH236388   0.246   1.378  14.021 -0.2207 -0.1411 -0.5288
 4966TIP3    H136389   0.328   1.329  14.008 -0.6038 -1.0579  0.3421
 4966TIP3    H236390   0.192   1.355  13.945 -0.9980 -2.4100  0.6072
 4967TIP3   OH236391   0.477   5.458   3.790 -0.0454 -0.4372 -0.1657
 4967TIP3    H136392   0.456   5.496   3.875 -0.2418  0.4159 -0.5768
 4967TIP3    H236393   0.532   5.524   3.748  1.6443 -1.6609  0.0189
 4968TIP3   OH236394   0.007   0.109  11.835 -0.5900 -0.0677  0.6116
 4968TIP3    H136395  -0.080   0.071  11.829 -0.0130 -1.5664  1.0509
 4968TIP3    H236396  -0.004   0.189  11.886 -1.9419  0.6518 -0.7589
 4969TIP3   OH236397   0.978   3.525  12.194  0.1013  0.3242  0.1189
 4969TIP3    H136398   0.947   3.496  12.280  0.7096 -0.6679  0.0202
 4969TIP3    H236399   1.008   3.615  12.209  0.4104  0.0874  1.0072
 4970TIP3   OH236400   6.255   1.461   2.635  0.1195  0.0322 -0.0244
 4970TIP3    H136401   6.163   1.481   2.616  0.1589 -0.7033 -1.1170
 4970TIP3    H236402   6.304   1.508   2.568  0.4198 -0.9009 -0.4816
 4971TIP3   OH236403   4.560   2.026  14.416  0.0955 -0.3741  0.6455
 4971TIP3    H136404   4.566   1.952  14.477  0.2131 -1.4116 -0.5948
 4971TIP3    H236405   4.644   2.027  14.371 -0.4979 -0.5254 -0.4980
 4972TIP3   OH236406   5.774   3.127   5.664  0.0985  0.4138 -0.1876
 4972TIP3    H136407   5.855   3.103   5.709  0.4236 -1.2947 -1.5510
 4972TIP3    H236408   5.718   3.050   5.674 -0.9569  1.1674 -0.1807
 4973TIP3   OH236409   3.433   4.938   4.279  0.1815 -0.9309 -0.2006
 4973TIP3    H136410   3.343   4.906   4.266 -0.0788 -1.1242  1.6754
 4973TIP3    H236411   3.475   4.870   4.332  0.6690  0.2255  0.9747
 4974TIP3   OH236412   5.984   3.185  15.339 -0.2853 -0.1887  0.1627
 4974TIP3    H136413   5.991   3.276  15.368  0.1477  0.1303 -0.9103
 4974TIP3    H236414   6.071   3.148  15.356 -0.3911 -0.3395  0.3825
 4975TIP3   OH236415   2.551   1.556  17.017 -0.4159 -0.4135  0.4694
 4975TIP3    H136416   2.553   1.651  17.004  0.4664 -0.5605 -0.6846
 4975TIP3    H236417   2.489   1.525  16.951  0.5255 -0.7684 -0.2690
 4976TIP3   OH236418   6.761   4.626   4.398  0.0674  0.1652  0.5132
 4976TIP3    H136419   6.821   4.696   4.372  0.9677 -1.3353 -1.7648
 4976TIP3    H236420   6.744   4.578   4.318 -1.3162 -1.6527  1.8135
 4977TIP3   OH236421   2.877   5.622   5.585  0.2559 -0.2832  0.7148
 4977TIP3    H136422   2.804   5.598   5.641 -0.2659  0.1128  0.2174
 4977TIP3    H236423   2.884   5.717   5.595  0.2610 -0.2299  0.2398
 4978TIP3   OH236424   4.275   2.583   5.572 -0.1111  0.4346  0.2379
 4978TIP3    H136425   4.340   2.537   5.625 -1.8317 -1.0118  1.2244
 4978TIP3    H236426   4.213   2.515   5.546 -0.8918  1.6462 -1.2148
 4979TIP3   OH236427   1.406   2.450   0.909 -0.2771  0.6050 -0.2809
 4979TIP3    H136428   1.326   2.498   0.890 -0.6534 -0.4863 -1.6100
 4979TIP3    H236429   1.404   2.375   0.850 -0.0706 -1.4660  2.1588
 4980TIP3   OH236430   6.633   3.975   2.197 -0.3658  0.2781  0.2472
 4980TIP3    H136431   6.603   3.929   2.118  2.2206 -1.2199  0.0147
 4980TIP3    H236432   6.615   4.067   2.179  0.3195  0.0022 -2.2401
 4981TIP3   OH236433   1.077   2.306  12.647 -0.1662 -0.4891  0.2842
 4981TIP3    H136434   1.038   2.226  12.612 -0.0873 -0.5525  0.3414
 4981TIP3    H236435   1.168   2.283  12.663 -0.2433 -0.5091  0.6903
 4982TIP3   OH236436   1.970   1.472  13.593  0.2444  0.4750  0.0506
 4982TIP3    H136437   2.065   1.469  13.588  0.2066 -2.2048 -0.3259
 4982TIP3    H236438   1.941   1.499  13.506  0.6283 -0.9958 -0.5451
 4983TIP3   OH236439   0.356   2.231  14.542 -0.0016 -0.0691 -0.6897
 4983TIP3    H136440   0.395   2.306  14.499  0.0005  1.3838  1.6495
 4983TIP3    H236441   0.263   2.253  14.549  0.1355  0.1640  0.7568
 4984TIP3   OH236442   5.094   1.210  12.023 -0.0157  0.1964 -0.3559
 4984TIP3    H136443   5.165   1.184  12.081  0.0817 -2.3685 -1.5323
 4984TIP3    H236444   5.029   1.141  12.031 -1.1550  1.0957 -1.3883
 4985TIP3   OH236445   3.350   0.283  14.500  0.0134  0.4976 -0.5466
 4985TIP3    H136446   3.323   0.314  14.586 -0.7992 -1.8372  0.1264
 4985TIP3    H236447   3.286   0.321  14.440 -1.9455 -1.0232  0.4375
 4986TIP3   OH236448   2.681   2.132  12.300 -0.5793 -0.2910 -0.3355
 4986TIP3    H136449   2.747   2.065  12.280  1.5674  1.4109  0.5312
 4986TIP3    H236450   2.682   2.189  12.223 -0.4234  0.2115  0.0409
 4987TIP3   OH236451   4.684   5.737   0.250 -0.1577  0.9756 -0.1110
 4987TIP3    H136452   4.663   5.823   0.212 -2.5148  0.7971  0.6072
 4987TIP3    H236453   4.732   5.757   0.330  1.1686  1.5027 -0.9990
 4988TIP3   OH236454   2.842   1.770  13.914 -0.2733 -0.0648  0.4944
 4988TIP3    H136455   2.786   1.741  13.987  1.0887 -1.5845  0.9879
 4988TIP3    H236456   2.914   1.817  13.956  0.2876 -0.5570  0.0971
 4989TIP3   OH236457   0.067   2.330   1.693  0.0208 -0.5498  0.4958
 4989TIP3    H136458   0.064   2.356   1.601  0.1368  0.0749  0.6613
 4989TIP3    H236459  -0.003   2.265   1.703 -1.5650  1.0665  0.4781
 4990TIP3   OH236460   4.541   4.390   2.693 -0.2957 -0.2056 -0.1194
 4990TIP3    H136461   4.634   4.391   2.717 -0.0643  1.2364 -0.9784
 4990TIP3    H236462   4.540   4.376   2.599 -0.8385  1.6151 -0.4232
 4991TIP3   OH236463   2.302   2.467   6.311  0.1152 -0.7331  0.6767
 4991TIP3    H136464   2.267   2.486   6.223  0.2719 -0.9733  0.5638
 4991TIP3    H236465   2.362   2.539   6.328  2.0081 -1.9604 -0.4551
 4992TIP3   OH236466   0.253   1.661  13.038  0.1945 -0.4587 -0.0852
 4992TIP3    H136467   0.322   1.643  13.103 -0.6700 -0.0819  0.9634
 4992TIP3    H236468   0.293   1.724  12.978  0.7988 -0.3138  0.4490
 4993TIP3   OH236469   1.383   2.955  15.338 -0.2944  0.2822  0.1492
 4993TIP3    H136470   1.411   2.890  15.403  0.3640 -0.6323 -1.0091
 4993TIP3    H236471   1.438   3.031  15.355  1.1414 -0.5755 -0.4341
 4994TIP3   OH236472   1.582   0.087  14.459  0.1812 -0.5114  0.0847
 4994TIP3    H136473   1.489   0.076  14.479 -0.6067  4.5961  0.5481
 4994TIP3    H236474   1.586   0.084  14.364 -0.5031 -0.3707  0.0439
 4995TIP3   OH236475   2.688   2.283  11.700  0.2405  0.1908  0.2175
 4995TIP3    H136476   2.593   2.272  11.700  0.2997 -0.3721  0.6205
 4995TIP3    H236477   2.719   2.225  11.630  0.2906  0.3903  0.0719
 4996TIP3   OH236478   1.243   0.208  16.059  0.2954 -0.3370  0.0854
 4996TIP3    H136479   1.210   0.181  16.145 -0.2595 -0.1419 -0.0605
 4996TIP3    H236480   1.174   0.265  16.024  1.1265  0.6867  0.0902
 4997TIP3   OH236481   6.356   6.485  16.500 -0.0051 -0.0832 -0.2798
 4997TIP3    H136482   6.312   6.464  16.417  0.4510 -1.5830 -0.1605
 4997TIP3    H236483   6.321   6.421  16.563 -0.9785  1.5532  0.9333
 4998TIP3   OH236484   0.020   5.659  14.102 -0.2983  0.2532  0.2377
 4998TIP3    H136485   0.051   5.614  14.181  0.8917  1.0424  0.2557
 4998TIP3    H236486   0.027   5.752  14.123  1.7180  0.5458 -1.3424
 4999TIP3   OH236487   6.400   1.911   3.478  0.1835 -0.4564 -0.6567
 4999TIP3    H136488   6.362   1.873   3.398 -0.2860 -1.2005 -0.0894
 4999TIP3    H236489   6.455   1.982   3.446 -1.2438  0.2993 -1.5534
 5000TIP3   OH236490   4.218   5.086  11.199 -1.1016  0.2357 -0.2527
 5000TIP3    H136491   4.165   5.150  11.150  0.2303 -0.8065 -3.2534
 5000TIP3    H236492   4.285   5.139  11.241 -2.7580  1.2564  1.2475
 5001TIP3   OH236493   6.659   2.138   2.394 -0.0485  0.0443  0.2926
 5001TIP3    H136494   6.639   2.231   2.390 -1.1243 -0.1503  0.7092
 5001TIP3    H236495   6.600   2.104   2.462  2.6964 -0.3539  2.6245
 5002TIP3   OH236496   2.767   4.551  13.148 -0.0848 -0.4509 -0.6235
 5002TIP3    H136497   2.773   4.503  13.065 -0.7402 -1.0806 -0.3180
 5002TIP3    H236498   2.858   4.570  13.171  0.0680  0.5515 -1.9468
 5003TIP3   OH236499   6.677   0.886  13.731  0.0351  0.6191  0.0330
 5003TIP3    H136500   6.724   0.811  13.694 -0.7049  1.1681 -2.1972
 5003TIP3    H236501   6.597   0.892  13.678 -0.9928  1.6544  1.6245
 5004TIP3   OH236502   1.456   6.020  14.628 -0.6876 -0.4601 -0.1248
 5004TIP3    H136503   1.431   5.963  14.556 -0.3768 -0.6473 -0.0856
 5004TIP3    H236504   1.415   5.981  14.705  1.2185 -1.8536  0.2620
 5005TIP3   OH236505   5.065   3.452   4.222 -0.3362  0.1239 -0.1641
 5005TIP3    H136506   5.135   3.516   4.237 -0.1273 -0.1127 -0.1181
 5005TIP3    H236507   5.054   3.450   4.127  0.4863 -0.6395 -0.2625
 5006TIP3   OH236508   1.367   5.854  12.400 -0.2177 -0.4958 -0.0429
 5006TIP3    H136509   1.311   5.930  12.384 -1.3174 -0.7442  2.3305
 5006TIP3    H236510   1.443   5.891  12.445  0.1595 -0.5812 -0.5913
 5007TIP3   OH236511   0.325   6.773  16.057 -0.0175  0.0843  0.5348
 5007TIP3    H136512   0.332   6.869  16.064  0.8427  0.0967 -0.3424
 5007TIP3    H236513   0.298   6.757  15.967  1.4962 -0.5437  0.1563
 5008TIP3   OH236514   5.547   2.563   4.288 -0.4909  0.1284  0.5236
 5008TIP3    H136515   5.636   2.597   4.277 -0.3111 -0.9196 -1.8251
 5008TIP3    H236516   5.492   2.626   4.241 -0.9188  0.3747  1.3373
 5009TIP3   OH236517   1.487   0.749   3.132  0.1973 -0.0978  0.0195
 5009TIP3    H136518   1.505   0.757   3.038 -2.5451  1.1480 -0.4971
 5009TIP3    H236519   1.475   0.655   3.145  0.4932 -0.2780 -0.8884
 5010TIP3   OH236520   5.439   6.599  10.990 -0.3317  0.5148 -0.3454
 5010TIP3    H136521   5.392   6.680  11.009 -3.0344 -1.2357  1.0827
 5010TIP3    H236522   5.443   6.553  11.074 -0.6704 -1.6918 -1.4502
 5011TIP3   OH236523   5.107   6.688   2.135 -0.2259 -0.4168  0.3939
 5011TIP3    H136524   5.114   6.774   2.093 -1.9989  1.3927  3.4483
 5011TIP3    H236525   5.193   6.673   2.173  0.1597 -0.1009 -0.3372
 5012TIP3   OH236526   0.864   3.373   6.463  0.3224  0.2748  0.3844
 5012TIP3    H136527   0.921   3.450   6.461 -0.4440  0.8642 -1.5431
 5012TIP3    H236528   0.884   3.326   6.382 -1.7991  0.4582 -0.3151
 5013TIP3   OH236529   4.060   6.109  15.690  0.2652 -0.8089  0.9332
 5013TIP3    H136530   3.981   6.125  15.638  0.6392 -0.4923  0.4535
 5013TIP3    H236531   4.030   6.111  15.781 -0.5221 -2.1155  0.7180
 5014TIP3   OH236532   1.763   4.133   2.257  0.5319  0.4377  0.0622
 5014TIP3    H136533   1.837   4.074   2.269  1.1872  0.7712 -1.9871
 5014TIP3    H236534   1.779   4.175   2.173 -2.7535 -0.6190 -1.2760
 5015TIP3   OH236535   4.079   5.837   1.528  0.0916  0.3060  0.0339
 5015TIP3    H136536   4.059   5.925   1.559 -2.1833  0.1105 -0.7357
 5015TIP3    H236537   3.999   5.787   1.542  0.6594 -1.1129 -1.4222
 5016TIP3   OH236538   1.281   3.416  14.655  0.8478 -0.3008 -0.5233
 5016TIP3    H136539   1.278   3.429  14.750  0.5492  1.1326 -0.7055
 5016TIP3    H236540   1.372   3.435  14.631  0.2168  2.7955 -0.9109
 5017TIP3   OH236541   4.061   2.552   0.962 -0.3015 -0.2431 -0.4052
 5017TIP3    H136542   4.007   2.473   0.959  0.8989 -1.0705 -1.7430
 5017TIP3    H236543   4.145   2.523   0.999  0.7029 -0.0317 -2.3506
 5018TIP3   OH236544   3.713   1.460   0.025 -0.3632  0.0179  0.1898
 5018TIP3    H136545   3.806   1.444   0.007 -0.9504 -1.2442 -2.0672
 5018TIP3    H236546   3.701   1.553   0.007  0.5783  0.3484  1.1713
 5019TIP3   OH236547   0.713   5.990   1.110 -0.2463  0.0574 -0.2342
 5019TIP3    H136548   0.640   5.965   1.054 -0.0026 -1.6091  0.1481
 5019TIP3    H236549   0.685   5.969   1.199  0.7924 -0.9787 -0.1114
 5020TIP3   OH236550   5.982   6.525  16.424  0.1290  0.8237  0.5883
 5020TIP3    H136551   6.052   6.541  16.360  1.1800  3.1430  2.1739
 5020TIP3    H236552   5.935   6.609  16.428 -0.0722  0.6485  2.6323
 5021TIP3   OH236553   4.466   3.435  11.317 -0.0245 -0.0398  0.2084
 5021TIP3    H136554   4.379   3.402  11.294  0.7930 -1.8585 -0.5103
 5021TIP3    H236555   4.449   3.508  11.376 -2.0658  0.4866 -0.9193
 5022TIP3   OH236556   0.188   4.622   2.029 -0.5321  0.5307 -0.6254
 5022TIP3    H136557   0.279   4.593   2.016  0.1169  2.6687 -1.2814
 5022TIP3    H236558   0.168   4.599   2.119  0.5825 -0.1827 -0.5446
 5023TIP3   OH236559   3.010   1.305   2.327 -0.3146  1.1434 -0.6588
 5023TIP3    H136560   3.102   1.308   2.299 -0.5120 -0.0372 -1.5450
 5023TIP3    H236561   2.963   1.350   2.257 -0.7810 -1.5650 -2.2406
 5024TIP3   OH236562   3.682   0.037  13.188  0.3475 -1.4571  0.6104
 5024TIP3    H136563   3.763   0.012  13.233  0.3800 -0.8544  0.8948
 5024TIP3    H236564   3.709   0.056  13.098  0.8903  0.6422  1.1552
 5025TIP3   OH236565   0.160   1.531  15.487 -0.7490  0.3453  0.4083
 5025TIP3    H136566   0.079   1.493  15.454 -1.2411  2.5591 -1.1892
 5025TIP3    H236567   0.130   1.602  15.545 -0.0786  2.2664 -1.4773
 5026TIP3   OH236568   1.432   1.343  12.685  0.3930  0.2394  0.1731
 5026TIP3    H136569   1.441   1.402  12.760  2.2304 -0.3606  0.4742
 5026TIP3    H236570   1.505   1.366  12.627 -1.0026  0.7053 -1.4812
 5027TIP3   OH236571   0.630   1.573  16.613 -0.1182 -0.0906 -0.4030
 5027TIP3    H136572   0.650   1.560  16.706  2.4826 -0.3590 -0.9189
 5027TIP3    H236573   0.636   1.485  16.574  1.0827  0.3061 -1.1673
 5028TIP3   OH236574   0.363   5.220   5.425  0.0709  0.0738 -0.1226
 5028TIP3    H136575   0.411   5.299   5.452  1.2301 -0.6108 -0.0953
 5028TIP3    H236576   0.271   5.241   5.440  0.2881  1.7368 -0.9558
 5029TIP3   OH236577   6.403   5.101  16.758  0.2197 -0.6440 -0.0026
 5029TIP3    H136578   6.368   5.174  16.706  1.2758 -0.5972 -0.6650
 5029TIP3    H236579   6.335   5.085  16.824  0.6401  1.9981  1.2000
 5030TIP3   OH236580   2.609   6.712  11.826 -0.5819  0.8829  0.2376
 5030TIP3    H136581   2.670   6.774  11.865  0.7098  0.2201 -0.6527
 5030TIP3    H236582   2.530   6.763  11.810  0.2082  2.1164  0.1492
 5031TIP3   OH236583   1.229   3.355  12.178  0.3565 -0.3685  0.1734
 5031TIP3    H136584   1.205   3.269  12.214 -1.2995  0.3953  1.0365
 5031TIP3    H236585   1.236   3.411  12.255  1.5478  0.2645 -0.3757
 5032TIP3   OH236586   3.189   1.014  12.923  0.1446  0.0379 -0.6912
 5032TIP3    H136587   3.125   1.072  12.966 -2.7618 -2.3331 -1.4852
 5032TIP3    H236588   3.220   0.957  12.993  0.8156  0.6972 -0.4468
 5033TIP3   OH236589   4.753   4.314  15.425  0.6626  0.0027  0.3677
 5033TIP3    H136590   4.696   4.237  15.423  1.9340 -1.0403  1.5469
 5033TIP3    H236591   4.838   4.279  15.452  1.3702  1.7809  0.5531
 5034TIP3   OH236592   1.748   0.851  16.528  0.2459 -0.1128 -0.0035
 5034TIP3    H136593   1.785   0.934  16.557  0.8735 -0.4388  0.1420
 5034TIP3    H236594   1.775   0.844  16.436 -0.0040 -0.0481 -0.0823
 5035TIP3   OH236595   5.318   4.431  16.069 -0.1107 -0.5342 -0.0185
 5035TIP3    H136596   5.248   4.496  16.071 -1.7360 -2.1749 -0.4967
 5035TIP3    H236597   5.352   4.434  15.979  1.8821  1.6310  0.7123
 5036TIP3   OH236598   5.968   6.403  15.513 -0.1117 -0.5700  0.0418
 5036TIP3    H136599   6.048   6.422  15.562 -0.4447 -0.2928  0.4837
 5036TIP3    H236600   5.898   6.446  15.563 -0.4152  0.0044 -0.8567
 5037TIP3   OH236601   1.027   6.482  15.988 -0.2764 -0.2608  0.0820
 5037TIP3    H136602   0.968   6.443  15.924 -1.6747  2.4675 -0.4276
 5037TIP3    H236603   0.970   6.529  16.048  1.1842 -0.6845  1.8666
 5038TIP3   OH236604   5.650   1.619  14.190  0.5071  0.7954  0.2903
 5038TIP3    H136605   5.592   1.571  14.131  0.4440  1.3769 -0.1351
 5038TIP3    H236606   5.719   1.653  14.132  1.6838 -0.4912  0.8819
 5039TIP3   OH236607   3.691   6.315  16.642 -0.3726  0.0860 -0.2016
 5039TIP3    H136608   3.722   6.283  16.558 -1.8089  0.3693 -0.8653
 5039TIP3    H236609   3.732   6.257  16.707 -0.5099 -1.1449 -1.1850
 5040TIP3   OH236610   3.595   5.981   4.539  0.0487  0.1117  0.1634
 5040TIP3    H136611   3.533   5.910   4.520  0.8624 -0.6560  0.3166
 5040TIP3    H236612   3.571   6.050   4.478 -0.1416 -0.6744 -0.6788
 5041TIP3   OH236613   4.620   2.268   0.313 -0.6307 -0.3301  0.0559
 5041TIP3    H136614   4.600   2.318   0.234 -0.1719  0.7834  0.6098
 5041TIP3    H236615   4.588   2.323   0.385  0.2108 -0.6513  0.7033
 5042TIP3   OH236616   3.558   0.447   4.038 -0.0946 -0.5625 -0.0690
 5042TIP3    H136617   3.636   0.498   4.018  0.8957 -1.9220  0.1438
 5042TIP3    H236618   3.529   0.413   3.953  0.1678 -0.9099 -0.0203
 5043TIP3   OH236619   4.865   3.299  16.631 -0.2441  0.2759  0.4739
 5043TIP3    H136620   4.873   3.291  16.726 -1.5971  0.9035  0.6656
 5043TIP3    H236621   4.820   3.220  16.603  0.9947 -0.3588  0.2105
 5044TIP3   OH236622   3.365   5.491  14.946  0.4617  0.5623 -0.5699
 5044TIP3    H136623   3.395   5.579  14.970  1.3339  1.0890 -3.2386
 5044TIP3    H236624   3.275   5.503  14.917  0.5332  0.5712 -0.7948
 5045TIP3   OH236625   5.447   2.354   1.586 -0.1189 -0.4767  0.3954
 5045TIP3    H136626   5.528   2.352   1.638 -1.0996 -1.2080  1.9795
 5045TIP3    H236627   5.421   2.262   1.579 -1.9110 -0.1232  1.7509
 5046TIP3   OH236628   3.625   3.647   5.861  0.6140 -0.0028 -0.1323
 5046TIP3    H136629   3.700   3.644   5.920  0.6715 -0.6951 -0.2308
 5046TIP3    H236630   3.555   3.602   5.908  0.0576  1.2237  0.2322
 5047TIP3   OH236631   5.633   6.709   4.522  0.0851  0.3514  0.0858
 5047TIP3    H136632   5.702   6.774   4.516 -0.0603  0.3752 -2.6392
 5047TIP3    H236633   5.552   6.760   4.528  0.1157  0.3884  0.1770
 5048TIP3   OH236634   5.060   0.569   5.876  0.3101  0.3656  0.4232
 5048TIP3    H136635   4.969   0.539   5.874  0.0995  1.0053 -0.0872
 5048TIP3    H236636   5.094   0.539   5.960 -1.0635  2.0858  1.6737
 5049TIP3   OH236637   2.063   5.161   2.586  0.2770  0.6119  0.0255
 5049TIP3    H136638   2.135   5.144   2.647  0.9740  1.2015 -0.6207
 5049TIP3    H236639   2.054   5.079   2.537  1.6434  1.0666 -1.0402
 5050TIP3   OH236640   4.396   3.849   3.258  0.8098 -0.0614 -0.5729
 5050TIP3    H136641   4.487   3.851   3.227  0.5133  0.2652 -1.4599
 5050TIP3    H236642   4.344   3.876   3.182 -0.1613 -1.7406 -0.5489
 5051TIP3   OH236643   0.921   0.810  13.161 -0.0673 -0.0299  0.5339
 5051TIP3    H136644   0.958   0.885  13.115  0.0318 -0.3148  0.1329
 5051TIP3    H236645   0.996   0.770  13.205  0.3211 -1.1457 -1.0357
 5052TIP3   OH236646   0.642   3.738   6.376 -0.2494 -0.3447 -0.3533
 5052TIP3    H136647   0.554   3.704   6.365 -0.0569 -1.1865  0.6005
 5052TIP3    H236648   0.630   3.830   6.399 -0.8434 -0.2515 -1.0265
 5053TIP3   OH236649   4.373   4.189  15.869  0.4555  0.4926 -0.2809
 5053TIP3    H136650   4.338   4.128  15.934  0.1086  0.8487 -0.1298
 5053TIP3    H236651   4.419   4.133  15.806  0.7698  0.1457  0.2543
 5054TIP3   OH236652   1.758   0.315   0.310  0.2828  0.1513 -0.0422
 5054TIP3    H136653   1.765   0.355   0.223 -4.2913 -0.0436 -0.7362
 5054TIP3    H236654   1.797   0.228   0.299 -1.8867 -0.6483 -2.6397
 5055TIP3   OH236655   4.325   4.838  11.365 -0.3177 -0.0547  0.2986
 5055TIP3    H136656   4.231   4.853  11.351 -0.3753  0.2683  1.0319
 5055TIP3    H236657   4.329   4.778  11.439  0.0452 -0.3865  0.0124
 5056TIP3   OH236658   2.174   4.063  14.723  0.0432  0.1892 -0.0207
 5056TIP3    H136659   2.088   4.047  14.762 -0.2695  1.7843  0.0085
 5056TIP3    H236660   2.223   3.983  14.739  0.1129  0.8344  4.1612
 5057TIP3   OH236661   3.250   4.413  11.581 -0.3829  0.3926  0.0460
 5057TIP3    H136662   3.284   4.454  11.502  0.5449  2.2667  1.3265
 5057TIP3    H236663   3.225   4.487  11.637 -1.4990 -0.8710  1.3068
 5058TIP3   OH236664   5.210   1.008   3.433  0.3032  0.3724 -0.4518
 5058TIP3    H136665   5.139   0.945   3.444  0.1916  0.3738 -1.1046
 5058TIP3    H236666   5.274   0.961   3.379  1.6284 -0.2795  1.5742
 5059TIP3   OH236667   2.681   6.231   0.581  0.1382 -0.4355 -0.0477
 5059TIP3    H136668   2.665   6.168   0.651 -0.4997  0.2273  0.4094
 5059TIP3    H236669   2.705   6.312   0.626  2.6871 -0.7850 -0.6648
 5060TIP3   OH236670   5.487   0.330   3.917 -0.8350 -0.2197 -0.3653
 5060TIP3    H136671   5.484   0.408   3.972 -0.4030 -0.6695  0.3076
 5060TIP3    H236672   5.421   0.346   3.849 -1.8803  0.0405  0.6799
 5061TIP3   OH236673   4.387   6.100   3.028 -0.0288  0.0222  0.2884
 5061TIP3    H136674   4.441   6.178   3.022 -1.0237  0.6844 -0.4629
 5061TIP3    H236675   4.304   6.131   3.066  0.0872 -0.9658  1.4346
 5062TIP3   OH236676   1.903   2.160   2.516  0.3117 -0.3067 -0.2032
 5062TIP3    H136677   1.909   2.116   2.600 -0.8124  1.2318  0.7564
 5062TIP3    H236678   1.809   2.165   2.498  0.5366 -0.7477 -1.6413
 5063TIP3   OH236679   6.398   0.143  12.422 -0.2842  0.4651  0.3159
 5063TIP3    H136680   6.406   0.136  12.327  1.9085 -0.1441  0.5102
 5063TIP3    H236681   6.323   0.088  12.444 -0.2450 -0.1241 -0.9639
 5064TIP3   OH236682   6.252   3.253  16.703 -0.2846  0.1108 -0.0129
 5064TIP3    H136683   6.208   3.336  16.723 -0.3071  0.0676  0.1254
 5064TIP3    H236684   6.180   3.189  16.701 -0.1130 -0.1679  1.3825
 5065TIP3   OH236685   5.996   4.241  15.773 -0.0772  0.0319  0.8018
 5065TIP3    H136686   5.911   4.223  15.733  0.9727 -1.4989 -0.8415
 5065TIP3    H236687   6.000   4.181  15.847  0.0826 -0.8044  0.1246
 5066TIP3   OH236688   2.501   0.488  13.063 -0.3143 -0.3718  0.4913
 5066TIP3    H136689   2.422   0.526  13.024 -0.9031 -0.5288  1.4857
 5066TIP3    H236690   2.503   0.525  13.152  0.8153 -0.2634  0.4283
 5067TIP3   OH236691   4.009   1.336   4.456 -0.0831  0.5683  0.0065
 5067TIP3    H136692   4.015   1.290   4.372 -0.6848 -1.0178  0.8013
 5067TIP3    H236693   4.022   1.428   4.433 -1.4558  0.3374 -2.0241
 5068TIP3   OH236694   5.800   6.652  11.405 -0.6264  0.3905  0.3285
 5068TIP3    H136695   5.878   6.661  11.458  0.3293 -1.2220 -0.7408
 5068TIP3    H236696   5.775   6.560  11.413 -0.9827  0.3224 -1.2463
 5069TIP3   OH236697   4.560   0.047  16.765 -0.3155  0.2719 -0.8416
 5069TIP3    H136698   4.570  -0.042  16.732  0.4325  0.1023 -0.1957
 5069TIP3    H236699   4.476   0.077  16.730 -1.2183 -1.1649  0.0342
 5070TIP3   OH236700   5.039   0.145   3.875  0.0358  0.4931  0.2081
 5070TIP3    H136701   4.982   0.213   3.838 -0.5468 -1.1511 -2.1215
 5070TIP3    H236702   4.995   0.063   3.853  0.2928 -0.7123  3.6269
 5071TIP3   OH236703   2.948   4.987  11.355 -0.7558  0.2534  0.0985
 5071TIP3    H136704   2.853   4.986  11.347 -0.7546 -0.3407  0.1433
 5071TIP3    H236705   2.981   4.982  11.265 -0.7457  3.4990 -0.2065
 5072TIP3   OH236706   1.560   6.812  11.324  0.5344  0.4023  1.0216
 5072TIP3    H136707   1.620   6.755  11.277  1.3502  1.0388  1.2734
 5072TIP3    H236708   1.538   6.763  11.404  2.3171  0.9651  1.9117
 5073TIP3   OH236709   3.174   6.265   5.126 -0.6525  0.4794  0.8964
 5073TIP3    H136710   3.129   6.335   5.174 -0.8299  1.6249 -0.8374
 5073TIP3    H236711   3.267   6.283   5.140 -0.6958  1.1638  0.3362
 5074TIP3   OH236712   3.347   3.476   2.275 -0.0867  0.3577 -0.0367
 5074TIP3    H136713   3.437   3.487   2.245  0.4612 -1.7821  0.6613
 5074TIP3    H236714   3.353   3.411   2.345 -1.9067  1.8414  1.6198
 5075TIP3   OH236715   5.697   5.300   6.453 -0.1185  0.3983  0.0406
 5075TIP3    H136716   5.623   5.357   6.472 -1.2983 -0.2817 -2.2131
 5075TIP3    H236717   5.718   5.259   6.537 -3.1066 -0.3384  0.5260
 5076TIP3   OH236718   1.782   0.284   5.145  0.2498 -0.4079 -0.2142
 5076TIP3    H136719   1.690   0.276   5.121 -0.2608 -1.0274  1.7349
 5076TIP3    H236720   1.808   0.371   5.115 -1.3106  0.2212  0.1682
 5077TIP3   OH236721   5.077   0.453   1.477  0.1610 -0.2055 -0.3318
 5077TIP3    H136722   5.115   0.366   1.470 -1.7109 -0.9443 -2.3592
 5077TIP3    H236723   4.997   0.449   1.424  0.5964  3.0493 -1.4789
 5078TIP3   OH236724   1.587   4.568  16.129  0.4539 -0.7197  0.4863
 5078TIP3    H136725   1.675   4.593  16.100 -0.0939 -0.1855 -0.7846
 5078TIP3    H236726   1.573   4.481  16.093  0.6796 -1.0587  1.1991
 5079TIP3   OH236727   2.128   6.574  13.074 -0.6553  0.1322  0.6145
 5079TIP3    H136728   2.071   6.500  13.052  0.3712 -0.1408 -1.3848
 5079TIP3    H236729   2.083   6.651  13.039 -1.0288  0.2716  1.3887
 5080TIP3   OH236730   1.698   0.391  14.520  0.2395 -0.4519  0.0011
 5080TIP3    H136731   1.688   0.309  14.472  0.0332  0.6037 -1.8909
 5080TIP3    H236732   1.723   0.365  14.608 -1.0648 -2.5795 -0.1885
 5081TIP3   OH236733   0.062   3.364  16.649 -0.1601  0.1235 -0.0075
 5081TIP3    H136734   0.119   3.310  16.594 -1.7125 -0.0201 -1.5657
 5081TIP3    H236735   0.099   3.452  16.643 -0.0135  0.0094 -0.8848
 5082TIP3   OH236736   4.900   2.138  15.467 -0.0410  0.5557 -0.1670
 5082TIP3    H136737   4.900   2.109  15.559  0.6437  0.7498 -0.1042
 5082TIP3    H236738   4.956   2.215  15.466 -2.8993  2.8367 -0.0657
 5083TIP3   OH236739   2.488   5.145   6.230 -0.7639 -0.3747 -0.0837
 5083TIP3    H136740   2.410   5.162   6.176 -2.0402  1.2513  2.0678
 5083TIP3    H236741   2.482   5.210   6.300 -0.1581 -3.3527  3.0001
 5084TIP3   OH236742   0.151   0.081   1.280  0.7306  0.0637  0.1270
 5084TIP3    H136743   0.061   0.053   1.267  0.1669  1.2580  1.2258
 5084TIP3    H236744   0.160   0.089   1.375  1.6372  1.0367 -0.0223
 5085TIP3   OH236745   0.229   1.422  12.887 -0.4469  0.8114  0.0297
 5085TIP3    H136746   0.233   1.449  12.978 -0.3806 -1.1507  0.6540
 5085TIP3    H236747   0.320   1.405  12.863 -0.6409 -0.5612  0.2231
 5086TIP3   OH236748   6.715   1.005   0.081  0.4217  0.1135  0.6504
 5086TIP3    H136749   6.743   1.089   0.047  1.2671 -0.2110  0.4991
 5086TIP3    H236750   6.785   0.980   0.143  0.0450 -0.3425  0.9049
 5087TIP3   OH236751   1.521   0.791  16.684  0.3660  0.7246  0.0692
 5087TIP3    H136752   1.610   0.824  16.668  0.8660 -0.6786 -0.1483
 5087TIP3    H236753   1.465   0.846  16.629  1.2719  0.6753 -0.9348
 5088TIP3   OH236754   5.704   6.440  13.122 -0.1206  0.8987  0.0375
 5088TIP3    H136755   5.752   6.519  13.099 -0.9431  1.7953  1.3104
 5088TIP3    H236756   5.763   6.368  13.098  1.5474  1.9465  0.8912
 5089TIP3   OH236757   1.709   4.533  14.846 -0.3973 -0.0797 -0.5778
 5089TIP3    H136758   1.652   4.476  14.897 -0.8447 -0.5916 -1.6295
 5089TIP3    H236759   1.797   4.497  14.860 -0.1159  1.3469  1.9054
 5090TIP3   OH236760   2.683   0.343   5.221  0.0466  0.8383 -0.3835
 5090TIP3    H136761   2.597   0.369   5.190  0.6979  1.7580 -1.4688
 5090TIP3    H236762   2.686   0.373   5.312 -1.4642 -0.9116  0.3095
 5091TIP3   OH236763   0.987   1.721   4.604  0.2242 -0.5991 -0.6043
 5091TIP3    H136764   1.024   1.802   4.568 -0.2813 -1.2543 -2.7697
 5091TIP3    H236765   1.038   1.651   4.562  1.9447 -1.4920  2.6395
 5092TIP3   OH236766   4.751   6.394   4.959 -0.1968  0.3050 -0.1856
 5092TIP3    H136767   4.761   6.318   5.017  0.7270 -0.6175 -1.5092
 5092TIP3    H236768   4.664   6.429   4.981 -1.5610 -2.3501 -0.9431
 5093TIP3   OH236769   6.394   0.907   1.499  0.3444  0.6368  0.0941
 5093TIP3    H136770   6.338   0.908   1.576  0.7495  1.0317  0.3854
 5093TIP3    H236771   6.379   0.992   1.457  0.4825  0.6141 -0.0033
 5094TIP3   OH236772   5.275   0.273  13.368 -0.7249  0.4257 -0.6038
 5094TIP3    H136773   5.195   0.318  13.397 -0.6532  1.2299 -1.5751
 5094TIP3    H236774   5.311   0.235  13.448 -1.2236  1.4345  0.1280
 5095TIP3   OH236775   1.114   2.396   3.355  0.4301  0.0441  0.1460
 5095TIP3    H136776   1.106   2.399   3.450 -0.5754  0.7314  0.0574
 5095TIP3    H236777   1.069   2.475   3.325  0.0391 -0.5678 -0.9274
 5096TIP3   OH236778   6.212   4.652  16.014  0.9242  0.1930  0.0360
 5096TIP3    H136779   6.294   4.682  16.052  0.7658  2.9368 -1.5055
 5096TIP3    H236780   6.236   4.627  15.924  0.1260  0.9420 -0.3984
 5097TIP3   OH236781   0.796   4.584  15.208 -0.1598 -0.9038  0.1671
 5097TIP3    H136782   0.796   4.659  15.148 -2.3224 -1.1758 -0.2548
 5097TIP3    H236783   0.753   4.514  15.158  1.9843 -2.5468  0.4712
 5098TIP3   OH236784   6.452   0.138  12.761 -0.5880  0.2105 -0.5922
 5098TIP3    H136785   6.510   0.135  12.686 -0.3189  0.0281 -0.3792
 5098TIP3    H236786   6.473   0.220  12.806  1.9012 -1.3427  1.3602
 5099TIP3   OH236787   3.446   4.878   1.135 -0.0948 -0.6530 -0.1805
 5099TIP3    H136788   3.472   4.786   1.141 -0.6620 -1.0151 -2.4753
 5099TIP3    H236789   3.359   4.880   1.176 -0.3698 -1.2824 -0.7117
 5100TIP3   OH236790   1.715   1.665   5.842 -0.5945 -0.5189  0.0894
 5100TIP3    H136791   1.753   1.653   5.929 -1.5475  0.6272  0.6971
 5100TIP3    H236792   1.651   1.594   5.834 -1.2382 -0.0406  0.7738
 5101TIP3   OH236793   4.769   5.534  12.057  0.2948  0.5995  0.3265
 5101TIP3    H136794   4.698   5.510  12.116  2.0604 -1.2708  1.8372
 5101TIP3    H236795   4.811   5.451  12.035  1.6519  1.5810 -0.9973
 5102TIP3   OH236796   4.608   4.544   2.146  0.9386  0.3814  0.0412
 5102TIP3    H136797   4.541   4.564   2.081  1.8793  1.5118 -0.6396
 5102TIP3    H236798   4.621   4.449   2.139 -0.5621  0.1408  0.1996
 5103TIP3   OH236799   1.239   6.522  17.051 -0.3187  0.6683 -0.0973
 5103TIP3    H136800   1.152   6.544  17.084 -0.3859  0.8929 -0.4212
 5103TIP3    H236801   1.274   6.606  17.020 -0.6670  0.2980 -1.5715
 5104TIP3   OH236802   4.708   6.127  13.780  0.1761  0.4051 -0.5831
 5104TIP3    H136803   4.718   6.037  13.811  1.1320  0.3833 -0.9126
 5104TIP3    H236804   4.643   6.166  13.838  0.6945 -0.1267  0.3702
 5105TIP3   OH236805   1.644   6.202  12.821  0.8846 -0.5480  0.2485
 5105TIP3    H136806   1.577   6.134  12.830  1.7467 -1.5195 -0.4039
 5105TIP3    H236807   1.612   6.275  12.874 -1.1099 -0.6409 -0.7485
 5106TIP3   OH236808   0.955   3.086  16.695  0.0114  0.1328 -0.2645
 5106TIP3    H136809   0.932   2.995  16.677 -0.1340  0.3101 -0.9868
 5106TIP3    H236810   0.874   3.127  16.723  0.3366 -0.2647  1.3641
 5107TIP3   OH236811   4.038   5.492  13.812 -0.0309 -0.7355  0.5559
 5107TIP3    H136812   3.952   5.489  13.855  0.4057 -0.7345  1.4601
 5107TIP3    H236813   4.024   5.451  13.727 -0.3933 -3.0375  1.6518
 5108TIP3   OH236814   0.157   1.560   6.147 -0.2330 -0.1493  0.4761
 5108TIP3    H136815   0.122   1.515   6.224 -0.3019 -0.4098  0.2934
 5108TIP3    H236816   0.173   1.649   6.177 -2.0835  0.2848  0.2581
 5109TIP3   OH236817   4.478   3.948  13.418  0.1524 -0.0264  0.7055
 5109TIP3    H136818   4.431   3.996  13.350 -0.5361  0.1713  1.3018
 5109TIP3    H236819   4.540   4.013  13.453  1.4736 -0.5156 -0.6150
 5110TIP3   OH236820   2.742   2.112  11.486  0.3035  0.3929  0.5879
 5110TIP3    H136821   2.725   2.057  11.409 -0.3420  1.5121 -0.1123
 5110TIP3    H236822   2.679   2.184  11.477  2.1542  2.0901  0.6147
 5111TIP3   OH236823   0.934   1.399   3.832  0.5159  0.0386  0.6465
 5111TIP3    H136824   1.013   1.393   3.886  1.2760 -0.6025 -0.4951
 5111TIP3    H236825   0.966   1.398   3.742 -0.8265 -0.8978  0.1455
 5112TIP3   OH236826   4.365   6.083   4.966 -0.1937 -0.0321 -0.3436
 5112TIP3    H136827   4.324   6.159   5.006  1.6091 -0.1340  1.8997
 5112TIP3    H236828   4.389   6.112   4.878 -2.3369  0.9211 -0.6786
 5113TIP3   OH236829   1.442   1.652  12.065  0.2723 -0.1075  0.3542
 5113TIP3    H136830   1.371   1.634  12.126 -1.0362  2.6798 -0.2157
 5113TIP3    H236831   1.511   1.690  12.119  0.1918 -0.1322  0.4753
 5114TIP3   OH236832   5.952   3.045  11.669 -0.9339  0.2560 -0.1432
 5114TIP3    H136833   5.970   2.955  11.642 -1.9799  0.7889 -2.9921
 5114TIP3    H236834   6.027   3.096  11.638 -1.7053  0.7467 -1.3036
 5115TIP3   OH236835   1.763   1.673  14.644 -0.1470  0.1391  0.3015
 5115TIP3    H136836   1.712   1.724  14.581  0.1994  0.5851  0.3799
 5115TIP3    H236837   1.844   1.723  14.655 -0.6671  0.6856  1.9711
 5116TIP3   OH236838   2.798   6.009   6.127  0.0493 -0.5419  0.0758
 5116TIP3    H136839   2.831   5.934   6.077  0.7916  1.6285 -3.0247
 5116TIP3    H236840   2.713   5.980   6.159  0.0226 -2.5287 -1.5407
 5117TIP3   OH236841   2.715   5.024  14.137 -0.1644  0.2348  0.0026
 5117TIP3    H136842   2.746   4.956  14.077  2.4385 -0.1091  1.5876
 5117TIP3    H236843   2.665   4.976  14.203  2.8252 -0.5385  1.9109
 5118TIP3   OH236844   2.073   2.843  16.184 -0.7279 -0.6295  0.5281
 5118TIP3    H136845   2.072   2.911  16.116 -0.8102 -0.5321  0.6273
 5118TIP3    H236846   2.042   2.887  16.263 -1.4371 -0.9513  0.4360
 5119TIP3   OH236847   1.806   5.132  14.065  0.2216  0.9429 -0.3152
 5119TIP3    H136848   1.829   5.099  13.978 -2.1491 -0.5340 -0.4843
 5119TIP3    H236849   1.827   5.059  14.124  0.0243  1.1987  0.0732
 5120TIP3   OH236850   1.978   2.943  13.830  0.5397 -0.4548 -0.0184
 5120TIP3    H136851   1.947   2.872  13.773  1.2660 -0.9281  0.1616
 5120TIP3    H236852   1.937   3.022  13.795 -0.5082 -0.9926 -0.0595
 5121TIP3   OH236853   1.083   6.053  15.654 -0.6881  0.4402 -0.5165
 5121TIP3    H136854   1.002   6.008  15.632 -0.2234 -0.5901 -0.2106
 5121TIP3    H236855   1.078   6.137  15.608 -2.0638  0.5408 -0.2347
 5122TIP3   OH236856   0.663   4.207   2.026  0.3666 -0.1972 -0.4219
 5122TIP3    H136857   0.580   4.254   2.032  1.2724  1.2863  1.7369
 5122TIP3    H236858   0.659   4.142   2.096  1.6852  1.1442  0.9869
 5123TIP3   OH236859   0.403   5.059  14.197  0.3102  0.1231 -0.1442
 5123TIP3    H136860   0.381   5.108  14.276 -0.5435  0.7044 -0.7260
 5123TIP3    H236861   0.386   4.967  14.221  0.5352  0.2457  0.4980
 5124TIP3   OH236862   2.848   4.644   5.879 -0.1478 -0.1092 -0.1790
 5124TIP3    H136863   2.837   4.596   5.797  0.4376 -1.4241  0.4881
 5124TIP3    H236864   2.774   4.619   5.933  0.6503 -1.0350  0.5243
 5125TIP3   OH236865   5.377   0.549  14.039  0.3689 -0.1645  0.0870
 5125TIP3    H136866   5.384   0.643  14.053  0.8142 -0.0497 -0.8613
 5125TIP3    H236867   5.306   0.521  14.098 -0.3083  0.8934 -0.2057
 5126TIP3   OH236868   2.549   4.482   5.031  0.0968  0.4312 -0.3799
 5126TIP3    H136869   2.502   4.523   5.103 -0.6127 -0.2894 -0.4170
 5126TIP3    H236870   2.487   4.485   4.957  0.7700  1.0568 -0.9303
 5127TIP3   OH236871   3.961   5.544   0.829 -0.0248 -0.0115  1.6079
 5127TIP3    H136872   3.995   5.521   0.915  2.1573  0.1724  0.8562
 5127TIP3    H236873   3.905   5.470   0.805 -1.9777  0.6500  3.7900
 5128TIP3   OH236874   4.963   4.223  11.029  0.7622 -0.2245 -0.2123
 5128TIP3    H136875   4.875   4.204  11.061  0.3821  1.4523 -0.2067
 5128TIP3    H236876   4.951   4.248  10.938  1.4808 -1.8458 -0.7856
 5129TIP3   OH236877   6.378   3.956   0.669  0.0493  0.0031  0.1981
 5129TIP3    H136878   6.356   4.019   0.600 -0.5408  0.5380  0.8489
 5129TIP3    H236879   6.324   3.879   0.650 -0.3567  0.2741  0.2371
 5130TIP3   OH236880   6.360   0.073  11.056  0.0822 -0.1286 -1.2138
 5130TIP3    H136881   6.309   0.079  10.975  0.7678  0.9379 -1.5794
 5130TIP3    H236882   6.303   0.109  11.123  0.4396  1.4096 -1.6843
 5131TIP3   OH236883   1.283   4.956   2.812  0.4961  0.2665  0.9167
 5131TIP3    H136884   1.208   4.935   2.756  0.9219  0.6241  0.1911
 5131TIP3    H236885   1.318   5.038   2.776  0.8459  0.4504  1.6477
 5132TIP3   OH236886   3.001   4.619  14.882 -0.3001 -0.4424 -0.1682
 5132TIP3    H136887   3.087   4.656  14.902 -0.0001 -1.1053 -0.2115
 5132TIP3    H236888   3.020   4.544  14.826 -1.0094  0.2979 -1.4534
 5133TIP3   OH236889   0.807   1.097   5.885 -0.4334  0.0470 -0.1039
 5133TIP3    H136890   0.827   1.087   5.978 -0.6368 -0.9608 -0.1565
 5133TIP3    H236891   0.769   1.013   5.859 -1.0888  0.5740 -0.9235
 5134TIP3   OH236892   0.760   4.281  14.234 -0.0883 -0.5150 -0.3821
 5134TIP3    H136893   0.828   4.215  14.235 -0.0903 -0.5179  0.1827
 5134TIP3    H236894   0.711   4.267  14.316  1.1895  1.4940  0.8212
 5135TIP3   OH236895   4.885   2.908   3.967 -0.0986 -0.6012  0.5078
 5135TIP3    H136896   4.961   2.887   4.021  1.9447  0.6738 -1.6756
 5135TIP3    H236897   4.861   2.824   3.927  0.1296 -1.0243  1.2411
 5136TIP3   OH236898   4.226   0.767   6.040  0.0315 -0.4346 -0.0141
 5136TIP3    H136899   4.157   0.716   5.996  0.6020 -1.0822 -0.1650
 5136TIP3    H236900   4.234   0.846   5.987  0.8516 -1.2942 -1.2220
 5137TIP3   OH236901   5.490   6.085  15.848  0.7653  0.2308  0.1763
 5137TIP3    H136902   5.398   6.059  15.840  1.5707 -2.9089 -0.3856
 5137TIP3    H236903   5.490   6.156  15.913 -2.1142  1.0996 -0.6456
 5138TIP3   OH236904   5.000   5.681   4.908  0.1592 -0.5933 -0.3554
 5138TIP3    H136905   5.049   5.703   4.987 -1.3798 -1.3639  0.8466
 5138TIP3    H236906   4.985   5.765   4.865 -1.2385  0.1909  1.5403
 5139TIP3   OH236907   2.196   5.400  15.242  0.5114  0.9666 -0.0196
 5139TIP3    H136908   2.115   5.360  15.275  0.4831  1.1979  0.2011
 5139TIP3    H236909   2.253   5.326  15.222  0.8001  0.8097  1.2460
 5140TIP3   OH236910   5.477   6.185  15.233  0.3803  0.2805 -0.0771
 5140TIP3    H136911   5.553   6.153  15.282  1.3501 -0.4751 -1.9693
 5140TIP3    H236912   5.511   6.206  15.147 -1.1607  2.0924 -0.3133
 5141TIP3   OH236913   4.288   6.237  15.809 -0.2212  0.3476  0.7923
 5141TIP3    H136914   4.326   6.149  15.808 -0.1447  0.3815  0.7746
 5141TIP3    H236915   4.194   6.221  15.793 -0.3531  0.2034  1.6759
 5142TIP3   OH236916   2.421   6.228   2.741  0.6681 -0.1079 -0.4326
 5142TIP3    H136917   2.344   6.205   2.793  0.5078  1.7805  0.2326
 5142TIP3    H236918   2.487   6.252   2.806  1.2046  0.0901 -1.0425
 5143TIP3   OH236919   4.044   5.329   2.191  0.1029 -0.0246 -0.2119
 5143TIP3    H136920   4.094   5.282   2.124  0.5642 -1.4889  1.1325
 5143TIP3    H236921   3.978   5.267   2.221  0.0915  0.5065  0.9124
 5144TIP3   OH236922   6.485   0.502  13.779  0.1616 -0.0849 -0.1202
 5144TIP3    H136923   6.542   0.451  13.721  1.1644 -1.3936  1.8932
 5144TIP3    H236924   6.402   0.455  13.779  0.3212 -0.3686 -0.1161
 5145TIP3   OH236925   6.555   2.483  11.490 -1.1265 -0.0711  0.0981
 5145TIP3    H136926   6.575   2.392  11.515 -1.2857 -0.3262 -0.6815
 5145TIP3    H236927   6.593   2.492  11.403  0.3581  1.1289  0.8149
 5146TIP3   OH236928   3.320   3.334   5.738 -0.4720  0.3059  0.7494
 5146TIP3    H136929   3.279   3.370   5.817 -0.2226  1.9694  0.1478
 5146TIP3    H236930   3.255   3.348   5.669 -0.0580  0.2660  0.3512
 5147TIP3   OH236931   5.078   1.718  16.570  0.6382 -0.0926 -0.6556
 5147TIP3    H136932   5.090   1.775  16.494 -2.8836 -0.2257 -1.4583
 5147TIP3    H236933   5.054   1.778  16.641  2.1389 -0.1602 -0.0391
 5148TIP3   OH236934   2.707   4.359  11.907 -0.1108 -0.2613 -0.0065
 5148TIP3    H136935   2.742   4.448  11.908 -0.1329 -0.1130 -3.0324
 5148TIP3    H236936   2.694   4.337  11.999 -0.8567  3.1643  0.8427
 5149TIP3   OH236937   4.160   1.022   6.188 -0.6433  0.7133 -0.1323
 5149TIP3    H136938   4.160   0.931   6.217 -2.0564  0.9782  0.7931
 5149TIP3    H236939   4.175   1.017   6.094 -3.2768 -0.6979 -0.5735
 5150TIP3   OH236940   3.335   1.854   1.390 -0.1897 -0.5840 -0.1087
 5150TIP3    H136941   3.313   1.842   1.298 -2.0789  1.1716  0.0524
 5150TIP3    H236942   3.389   1.933   1.392 -2.1789  0.8308  0.4622
 5151TIP3   OH236943   5.131   0.047   5.686 -0.0665 -0.2817  0.5623
 5151TIP3    H136944   5.153  -0.015   5.616  0.7249 -0.0147  0.5668
 5151TIP3    H236945   5.141  -0.005   5.766  1.0184 -0.0615  0.5954
 5152TIP3   OH236946   1.986   1.702  13.142  0.4654 -0.1299  0.0247
 5152TIP3    H136947   2.003   1.617  13.101 -1.3345 -0.5777  0.1339
 5152TIP3    H236948   2.024   1.766  13.081 -1.0229 -0.8532 -1.7670
 5153TIP3   OH236949   5.050   1.758  14.805  0.2875  0.3396  0.5985
 5153TIP3    H136950   5.003   1.841  14.812 -1.7162 -0.6268 -0.2966
 5153TIP3    H236951   5.118   1.762  14.872  0.1479  2.6169  0.6608
 5154TIP3   OH236952   5.126   6.641  11.280 -0.4243  0.6359 -0.3230
 5154TIP3    H136953   5.039   6.605  11.261  0.2433 -1.9808  1.0617
 5154TIP3    H236954   5.110   6.707  11.348 -1.1825 -1.9356  2.2202
 5155TIP3   OH236955   2.057   4.399   4.212  0.1311 -0.0027  0.7071
 5155TIP3    H136956   2.037   4.373   4.122  0.8769 -1.4397  0.9219
 5155TIP3    H236957   2.103   4.483   4.203  0.1817 -0.1239 -0.2483
 5156TIP3   OH236958   1.552   3.496   4.297 -0.2622 -0.4368 -0.5033
 5156TIP3    H136959   1.582   3.410   4.267  0.0639 -1.3044  2.0205
 5156TIP3    H236960   1.622   3.556   4.272 -1.4820 -0.3584 -4.3329
 5157TIP3   OH236961   0.247   6.617  16.694  0.3109  1.1003 -0.0015
 5157TIP3    H136962   0.233   6.653  16.606  1.3823 -0.0445 -0.6692
 5157TIP3    H236963   0.280   6.529  16.678 -2.6604 -0.4249  1.5574
 5158TIP3   OH236964   0.704   2.734   4.507  0.5778  0.2598  0.3944
 5158TIP3    H136965   0.714   2.684   4.426  0.1405 -2.1893  1.7508
 5158TIP3    H236966   0.620   2.704   4.543  0.5397  1.6444  1.5420
 5159TIP3   OH236967   3.088   3.696  11.566  0.0694  0.4634  0.2546
 5159TIP3    H136968   3.084   3.650  11.650 -2.0974  1.0855  0.5641
 5159TIP3    H236969   3.009   3.750  11.564  0.9822  1.8583 -1.4217
 5160TIP3   OH236970   5.738   4.440  14.570 -0.3446  0.3911 -1.2879
 5160TIP3    H136971   5.788   4.522  14.574  1.4118 -0.6688 -0.5491
 5160TIP3    H236972   5.803   4.371  14.580 -2.0674 -1.0617  0.7656
 5161TIP3   OH236973   6.594   3.736  11.305 -0.0862  0.1369 -0.0261
 5161TIP3    H136974   6.575   3.657  11.254 -0.4538  0.5365 -0.5085
 5161TIP3    H236975   6.525   3.739  11.371  0.2321 -0.2276  0.3366
 5162TIP3   OH236976   3.617   2.121  12.817 -0.5843 -0.1954 -0.1171
 5162TIP3    H136977   3.705   2.083  12.825 -0.8080 -0.6210  0.3814
 5162TIP3    H236978   3.628   2.212  12.845 -0.2200 -0.1262 -0.4671
 5163TIP3   OH236979   6.679   1.197  12.512  0.0473 -0.0606  0.4106
 5163TIP3    H136980   6.721   1.163  12.591  0.6836 -0.0218  0.1013
 5163TIP3    H236981   6.633   1.275  12.541  0.8003  0.3103  0.6380
 5164TIP3   OH236982   0.566   6.747   3.085  0.2004 -0.0317  0.1535
 5164TIP3    H136983   0.654   6.711   3.096  0.1328 -0.8987 -1.6801
 5164TIP3    H236984   0.578   6.841   3.089  1.2783 -0.1266 -0.3653
 5165TIP3   OH236985   2.158   4.459  11.734 -1.0045 -0.0831 -0.6698
 5165TIP3    H136986   2.176   4.553  11.733  0.7209 -0.3766 -0.2885
 5165TIP3    H236987   2.120   4.444  11.821  0.0027  0.0747 -0.1798
 5166TIP3   OH236988   0.071   3.600   5.545 -0.2186  0.2666  0.0223
 5166TIP3    H136989   0.067   3.530   5.609  0.3176  0.7715  0.6158
 5166TIP3    H236990   0.063   3.680   5.597 -0.6028  0.6551 -0.6225
 5167TIP3   OH236991   5.270   0.393   3.134 -0.1968 -0.3764 -0.1979
 5167TIP3    H136992   5.245   0.434   3.051 -0.3038 -0.2408 -0.1012
 5167TIP3    H236993   5.188   0.357   3.168 -0.1102 -0.6394 -0.2631
 5168TIP3   OH236994   1.259   1.168  13.631 -0.1670 -0.2391  0.0962
 5168TIP3    H136995   1.332   1.113  13.602 -1.4644 -1.4401 -1.0623
 5168TIP3    H236996   1.259   1.159  13.726  1.4890  0.2068  0.1690
 5169TIP3   OH236997   4.412   1.405   2.680  0.7102  0.9321  0.5755
 5169TIP3    H136998   4.366   1.364   2.607  2.1607  2.5146 -1.3598
 5169TIP3    H236999   4.445   1.331   2.732  1.1425 -0.3398 -1.3851
 5170TIP3   OH237000   5.751   2.156   2.285  0.3744 -0.1347  0.0969
 5170TIP3    H137001   5.780   2.247   2.284 -0.9478  0.4072  2.6968
 5170TIP3    H237002   5.797   2.117   2.359  0.4123 -1.4547 -0.5841
 5171TIP3   OH237003   0.731   3.008   4.355  0.0491 -0.0065  0.1553
 5171TIP3    H137004   0.763   2.956   4.429  0.1719 -0.7013 -0.3689
 5171TIP3    H237005   0.762   2.961   4.278  1.1902  1.4902 -0.3548
 5172TIP3   OH237006   4.187   3.581  14.465 -0.7206  0.1020  0.2384
 5172TIP3    H137007   4.215   3.489  14.471 -0.4435  0.0501 -1.2931
 5172TIP3    H237008   4.108   3.579  14.412 -1.7317  0.6049  1.6713
 5173TIP3   OH237009   2.649   3.623   1.613 -0.1400  0.3244  0.0116
 5173TIP3    H137010   2.580   3.689   1.601 -1.0726 -0.6336 -0.0404
 5173TIP3    H237011   2.610   3.542   1.581  1.4626 -0.0125 -1.2022
 5174TIP3   OH237012   1.779   5.516  12.994  0.2613  0.2246 -0.5004
 5174TIP3    H137013   1.869   5.512  13.027  0.0188  0.2176  0.1899
 5174TIP3    H237014   1.783   5.473  12.909  0.9524  0.4180 -0.5775
 5175TIP3   OH237015   1.171   4.209  13.227 -0.3095 -0.4161  0.0694
 5175TIP3    H137016   1.116   4.264  13.282 -0.4969 -1.1697  0.6552
 5175TIP3    H237017   1.240   4.267  13.196 -0.8095  0.2696  0.2338
 5176TIP3   OH237018   0.198   0.856  10.206 -0.0246 -0.7060  0.2952
 5176TIP3    H137019   0.204   0.830  10.298 -0.3910 -1.2165  0.1758
 5176TIP3    H237020   0.266   0.804  10.162  0.0491 -0.5733  0.2515
 5177TIP3   OH237021   4.574   4.557  16.244 -0.1333  0.6023  0.6858
 5177TIP3    H137022   4.636   4.623  16.214  0.9600 -0.8688 -0.5055
 5177TIP3    H237023   4.490   4.584  16.207  0.2358  1.4423  0.4376
 5178TIP3   OH237024   4.227   1.554   1.554  0.7176 -0.1352 -0.2666
 5178TIP3    H137025   4.201   1.474   1.509  1.0856 -1.4074  1.6565
 5178TIP3    H237026   4.168   1.560   1.629  1.9234  0.3234  0.6828
 5179TIP3   OH237027   5.687   3.198   0.639  0.7211 -0.0695  0.0564
 5179TIP3    H137028   5.616   3.240   0.592  0.8496 -0.1149 -0.1827
 5179TIP3    H237029   5.719   3.131   0.578  1.3557  0.3462 -0.0764
 5180TIP3   OH237030   2.731   3.357  11.695  0.2727  0.4422  0.6919
 5180TIP3    H137031   2.785   3.391  11.766  0.6135 -0.1469  0.7203
 5180TIP3    H237032   2.755   3.265  11.688 -0.1428  0.3659  0.1635
 5181TIP3   OH237033   3.740   1.430  13.925  0.2977  0.2493  0.7120
 5181TIP3    H137034   3.758   1.336  13.916  0.5256  0.3521  0.0529
 5181TIP3    H237035   3.743   1.446  14.019  3.2285  0.1712  0.7336
 5182TIP3   OH237036   6.663   4.249   3.320 -0.1825 -0.5091 -0.0080
 5182TIP3    H137037   6.664   4.340   3.292  0.1344 -0.2451  0.8275
 5182TIP3    H237038   6.684   4.252   3.413  1.2089 -1.5248 -0.2542
 5183TIP3   OH237039   5.672   1.584  17.033 -0.4082 -0.1071 -0.0182
 5183TIP3    H137040   5.676   1.576  16.938 -0.9906  0.1544 -0.0709
 5183TIP3    H237041   5.581   1.610  17.051  0.0623  1.2486  0.5035
 5184TIP3   OH237042   5.957   2.909  13.801  0.5729 -0.2692 -0.3561
 5184TIP3    H137043   5.908   2.933  13.723 -0.8050  1.8308  1.0469
 5184TIP3    H237044   6.048   2.926  13.779  0.3108 -0.7259 -1.8384
 5185TIP3   OH237045   2.794   1.389   4.698  0.4340  0.1301  0.1187
 5185TIP3    H137046   2.871   1.361   4.746  1.0779 -2.4196 -2.1318
 5185TIP3    H237047   2.722   1.339   4.737  0.1637  1.3020  1.1681
 5186TIP3   OH237048   3.042   3.017   4.316 -0.1585 -0.7128 -0.2920
 5186TIP3    H137049   2.964   3.003   4.369 -0.4086  3.0620  0.6586
 5186TIP3    H237050   3.017   2.989   4.228 -2.2447 -0.5449  0.2105
 5187TIP3   OH237051   3.920   2.359  16.986  0.1313  0.2777 -0.1158
 5187TIP3    H137052   3.858   2.399  16.924 -1.1416  0.2551  1.1056
 5187TIP3    H237053   3.908   2.408  17.067  0.5329 -0.8091  0.6173
 5188TIP3   OH237054   3.390   3.081  13.320 -0.4822  0.2152  0.0392
 5188TIP3    H137055   3.302   3.048  13.337 -0.3654  0.0993  0.4423
 5188TIP3    H237056   3.445   3.038  13.386  0.3118 -1.6723 -1.7099
 5189TIP3   OH237057   4.597   4.993  16.737  0.2934  0.6809 -0.4821
 5189TIP3    H137058   4.521   5.039  16.770 -0.2944  0.7609 -1.8716
 5189TIP3    H237059   4.570   4.901  16.733  0.9220  0.4170  0.7684
 5190TIP3   OH237060   3.157   3.958   1.235 -0.0779  0.1043 -0.4542
 5190TIP3    H137061   3.134   3.957   1.143 -0.1406  0.0618 -0.4380
 5190TIP3    H237062   3.114   4.036   1.270 -1.1626 -0.5995 -0.1750
 5191TIP3   OH237063   4.638   5.870   2.012  0.4363  0.1507  0.2896
 5191TIP3    H137064   4.589   5.808   2.066  1.3475 -0.7123  0.1541
 5191TIP3    H237065   4.689   5.815   1.953  2.4161  0.9539  1.1465
 5192TIP3   OH237066   0.310   1.588  15.830 -0.0543  0.3158  0.4398
 5192TIP3    H137067   0.404   1.570  15.839 -0.0769 -0.0132  0.0759
 5192TIP3    H237068   0.298   1.675  15.868  0.7768  1.3327 -1.4687
 5193TIP3   OH237069   0.188   3.780  17.087 -0.5193  0.4955  0.4229
 5193TIP3    H137070   0.148   3.742  17.166  0.8915 -0.9964  0.4851
 5193TIP3    H237071   0.238   3.707  17.049 -0.7416  1.3265 -1.5819
 5194TIP3   OH237072   4.040   0.881   3.752 -0.2365  0.0638 -0.7071
 5194TIP3    H137073   4.066   0.854   3.664 -0.7168 -0.7757 -0.6012
 5194TIP3    H237074   4.057   0.975   3.754 -0.6734  0.1780 -1.8588
 5195TIP3   OH237075   0.308   2.055  13.041  0.0573 -0.1341  0.0974
 5195TIP3    H137076   0.367   1.986  13.070  1.4153  0.0606 -1.9602
 5195TIP3    H237077   0.281   2.027  12.953  0.1655  1.6392 -0.5344
 5196TIP3   OH237078   1.131   4.274  12.079  0.1559  0.0352  0.0845
 5196TIP3    H137079   1.088   4.191  12.059 -1.3717  1.0784 -1.1382
 5196TIP3    H237080   1.195   4.252  12.147  2.1671 -2.7777 -2.4336
 5197TIP3   OH237081   0.497   2.020   3.624 -0.0600 -0.4951 -0.2460
 5197TIP3    H137082   0.534   2.013   3.535  0.7281 -3.2711  0.2101
 5197TIP3    H237083   0.403   2.013   3.612 -0.0658  0.5495 -0.9460
 5198TIP3   OH237084   3.425   0.799   0.112  0.0741  0.2162 -0.2019
 5198TIP3    H137085   3.354   0.838   0.162 -0.8438 -0.7541 -0.7072
 5198TIP3    H237086   3.463   0.734   0.171 -0.4200 -0.2908 -0.4331
 5199TIP3   OH237087   6.562   1.613  11.125 -0.0453 -0.2629 -0.8132
 5199TIP3    H137088   6.475   1.573  11.123 -0.4882  0.5144  1.0934
 5199TIP3    H237089   6.590   1.611  11.034 -1.2318 -2.2797 -1.2173
 5200TIP3   OH237090   5.685   0.625   1.871  0.2265 -0.3382 -0.6101
 5200TIP3    H137091   5.731   0.695   1.918 -0.4722 -0.0996 -0.2667
 5200TIP3    H237092   5.611   0.603   1.928 -0.1515 -0.6321 -1.2126
 5201TIP3   OH237093   0.305   5.184   3.186 -0.0091 -0.9102  0.4893
 5201TIP3    H137094   0.233   5.177   3.123  1.0683 -1.0574 -0.7658
 5201TIP3    H237095   0.341   5.272   3.172  0.9672 -1.3686  0.0813
 5202TIP3   OH237096   4.901   3.926  13.131 -0.1141  0.1510 -0.1466
 5202TIP3    H137097   4.846   3.894  13.202 -1.6173  1.1390 -0.8304
 5202TIP3    H237098   4.853   3.999  13.094  0.6689 -0.2760 -2.1290
 5203TIP3   OH237099   0.626   4.933  16.392 -0.1862 -0.2944  0.6383
 5203TIP3    H137100   0.592   5.014  16.430 -1.3582 -2.1889  3.9955
 5203TIP3    H237101   0.721   4.938  16.405 -0.3089  0.2975  1.3671
 5204TIP3   OH237102   3.171   3.377  15.531  0.2013 -0.2528 -0.7171
 5204TIP3    H137103   3.098   3.321  15.504 -0.2366 -0.0647  0.0441
 5204TIP3    H237104   3.208   3.332  15.607  1.5275 -0.8669 -1.6808
 5205TIP3   OH237105   2.241   0.698   4.629  0.2523 -0.0692  0.2882
 5205TIP3    H137106   2.178   0.750   4.579  2.4271  0.9578 -1.5863
 5205TIP3    H237107   2.290   0.650   4.563  2.1647  0.0347  1.5462
 5206TIP3   OH237108   1.809   6.735   3.545 -0.0509  0.0597  0.1043
 5206TIP3    H137109   1.809   6.639   3.553 -2.8359  0.1421  2.7769
 5206TIP3    H237110   1.736   6.753   3.485  1.5074  0.5328 -1.7219
 5207TIP3   OH237111   4.750   3.084   1.551 -0.7497 -0.7104 -0.3564
 5207TIP3    H137112   4.734   3.098   1.458 -1.5479 -0.6797 -0.2219
 5207TIP3    H237113   4.825   3.024   1.553 -0.0952  0.0648 -0.9913
 5208TIP3   OH237114   5.940   5.159   5.722 -0.4476  0.1284  0.0356
 5208TIP3    H137115   5.968   5.187   5.809 -4.0263  2.3860  0.6690
 5208TIP3    H237116   6.017   5.171   5.666  1.0364  1.7659  2.2761
 5209TIP3   OH237117   0.693   3.107  15.460  0.1310 -0.5660 -0.4985
 5209TIP3    H137118   0.660   3.176  15.403 -1.3414 -1.8684 -1.2949
 5209TIP3    H237119   0.723   3.038  15.400 -1.1336 -1.8221  0.2465
 5210TIP3   OH237120   6.680   4.664  12.382 -0.1930  0.3950 -0.0149
 5210TIP3    H137121   6.744   4.734  12.398  0.6656 -0.2797 -0.4619
 5210TIP3    H237122   6.600   4.711  12.359 -0.0924  1.2709  1.2919
 5211TIP3   OH237123   4.859   6.425   6.455  0.0578 -0.1979 -0.1975
 5211TIP3    H137124   4.828   6.512   6.431 -1.5529 -1.4700 -3.2233
 5211TIP3    H237125   4.784   6.384   6.498  0.9523 -0.0380  1.6264
 5212TIP3   OH237126   2.300   0.221  16.779  0.4323 -0.4017  0.1456
 5212TIP3    H137127   2.350   0.251  16.703 -1.0067 -0.7677 -0.9925
 5212TIP3    H237128   2.225   0.175  16.742  0.0732 -1.2441  1.8089
 5213TIP3   OH237129   2.842   5.442  16.585  0.1380 -0.0816 -0.0375
 5213TIP3    H137130   2.823   5.531  16.612  1.3158  0.5579 -1.2185
 5213TIP3    H237131   2.853   5.447  16.490 -1.6544 -1.8455 -0.4117
 5214TIP3   OH237132   1.399   5.819  14.086  0.0475 -0.0531  0.2900
 5214TIP3    H137133   1.328   5.828  14.149 -0.9824 -0.2403 -0.7970
 5214TIP3    H237134   1.376   5.740  14.036 -0.1191  1.0534 -1.4575
 5215TIP3   OH237135   1.995   5.479  13.574  0.2295 -0.1525 -0.4648
 5215TIP3    H137136   2.010   5.483  13.479  2.2944 -0.5517 -0.2014
 5215TIP3    H237137   1.962   5.391  13.590  0.9021 -0.4535 -0.7042
 5216TIP3   OH237138   3.143   0.772   1.971  0.3056  0.1187 -0.3958
 5216TIP3    H137139   3.088   0.849   1.956 -0.9753 -0.6393  0.1702
 5216TIP3    H237140   3.139   0.724   1.888  2.9761  1.7061 -1.5690
 5217TIP3   OH237141   2.519   3.239   5.516 -0.3454  0.2940 -0.4659
 5217TIP3    H137142   2.520   3.313   5.576  2.2784  0.2066 -0.2897
 5217TIP3    H237143   2.494   3.164   5.571  1.1882  0.3650  0.3930
 5218TIP3   OH237144   6.021   2.889   0.901  0.1412  0.3272 -0.2162
 5218TIP3    H137145   6.024   2.893   0.806 -1.4555 -1.6737 -0.4312
 5218TIP3    H237146   6.022   2.795   0.921 -0.4206  0.6796  1.6877
 5219TIP3   OH237147   6.146   1.406  10.904  0.2868  0.5809 -0.0038
 5219TIP3    H137148   6.148   1.310  10.904  1.8035  0.5894 -0.4054
 5219TIP3    H237149   6.104   1.429  10.821 -0.5171  0.2800  0.3064
 5220TIP3   OH237150   6.043   4.768  15.448  0.0319  0.5332 -0.0169
 5220TIP3    H137151   6.040   4.792  15.355  1.9029 -1.6166 -0.7136
 5220TIP3    H237152   6.007   4.845  15.493 -0.8747  1.6711 -2.4841
 5221TIP3   OH237153   1.366   4.597   5.615  0.4870 -0.2887 -0.0938
 5221TIP3    H137154   1.328   4.589   5.528 -1.5126 -1.4410  0.8056
 5221TIP3    H237155   1.442   4.654   5.604 -0.3845  0.5208 -2.3723
 5222TIP3   OH237156   4.268   0.444  13.074  0.0287  0.0494  0.1413
 5222TIP3    H137157   4.227   0.497  13.142 -0.0575  0.6180 -0.3480
 5222TIP3    H237158   4.211   0.367  13.067 -0.4385  0.3923  0.1136
 5223TIP3   OH237159   5.156   5.752  13.799 -0.0630  0.1075  0.2171
 5223TIP3    H137160   5.245   5.764  13.765  0.1795 -2.1665 -0.0842
 5223TIP3    H237161   5.129   5.840  13.826  1.0703  1.4072 -2.5570
 5224TIP3   OH237162   4.974   1.901   2.906  0.0199 -0.5634 -0.4686
 5224TIP3    H137163   4.906   1.870   2.847 -0.4044 -0.1460 -0.2030
 5224TIP3    H237164   4.927   1.947   2.976  0.5235 -0.8986  0.1053
 5225TIP3   OH237165   2.159   5.184   0.558 -0.2179 -0.0607 -0.2031
 5225TIP3    H137166   2.092   5.231   0.509 -0.5396  0.4343  0.6846
 5225TIP3    H237167   2.211   5.253   0.599 -1.2440 -0.4228  1.8580
 5226TIP3   OH237168   3.072   6.636   2.468  0.0364 -0.4010  0.0978
 5226TIP3    H137169   3.042   6.680   2.389  1.9957  0.0441 -0.4311
 5226TIP3    H237170   3.028   6.551   2.466  2.0442 -1.5402 -2.9352
 5227TIP3   OH237171   0.509   0.237  15.560 -0.4392 -0.1334  0.0006
 5227TIP3    H137172   0.445   0.301  15.530  1.6235  1.9883 -0.1946
 5227TIP3    H237173   0.533   0.188  15.482 -0.0844  0.7254 -0.4457
 5228TIP3   OH237174   5.785   0.642  15.630 -0.1823  0.0086  0.0479
 5228TIP3    H137175   5.702   0.667  15.670  0.4908  0.8961  0.9347
 5228TIP3    H237176   5.790   0.547  15.641 -0.6508  0.0675  0.8280
 5229TIP3   OH237177   6.440   6.721  14.350 -0.2629 -0.2637 -0.1491
 5229TIP3    H137178   6.396   6.654  14.297  1.3959 -1.7886  0.2556
 5229TIP3    H237179   6.525   6.733  14.306 -0.6910  1.9851 -0.4805
 5230TIP3   OH237180   2.327   4.047  17.024  0.3584 -0.3658  0.1690
 5230TIP3    H137181   2.393   3.978  17.033 -0.8264 -1.5478  0.0711
 5230TIP3    H237182   2.334   4.098  17.104 -0.5106 -2.1984  1.4654
 5231TIP3   OH237183   0.837   2.425   5.956 -0.2972 -0.2354 -0.0259
 5231TIP3    H137184   0.822   2.348   5.902  1.2324 -1.7859  1.6174
 5231TIP3    H237185   0.911   2.402   6.011  0.0101  2.3127  0.7864
 5232TIP3   OH237186   6.042   0.318   5.232 -0.2909  0.5644 -0.4328
 5232TIP3    H137187   5.975   0.307   5.300  0.1582 -1.2640 -0.2487
 5232TIP3    H237188   6.124   0.329   5.281  0.0702 -0.9971 -0.6275
 5233TIP3   OH237189   0.188   4.864   5.251  0.1188  0.3761 -0.4002
 5233TIP3    H137190   0.187   4.848   5.345  1.3010  2.1096 -0.0514
 5233TIP3    H237191   0.096   4.881   5.229 -0.2363 -0.4971  0.3292
 5234TIP3   OH237192   2.982   1.319  17.100 -0.0574  0.1266  0.0192
 5234TIP3    H137193   3.029   1.321  17.183 -0.2122  1.7956  0.1017
 5234TIP3    H237194   3.050   1.322  17.033  0.0335 -0.1662  0.0988
 5235TIP3   OH237195   5.443   1.512  14.032  0.4944 -0.0301  0.3226
 5235TIP3    H137196   5.363   1.498  14.082  1.5868 -1.6382  1.7780
 5235TIP3    H237197   5.425   1.474  13.946 -0.1782 -0.7509  0.7726
 5236TIP3   OH237198   2.623   1.864  12.139 -0.0909  0.3294 -0.3667
 5236TIP3    H137199   2.695   1.880  12.079 -1.1080  2.5040 -1.0957
 5236TIP3    H237200   2.551   1.918  12.106 -1.3249  0.0500  1.6634
 5237TIP3   OH237201   4.589   4.558   4.529 -0.3605 -0.6786  0.5699
 5237TIP3    H137202   4.571   4.637   4.580 -1.4727 -0.2955 -0.3868
 5237TIP3    H237203   4.526   4.560   4.457  2.4150 -0.1040 -2.0918
 5238TIP3   OH237204   0.096   1.878   6.222  0.1365 -0.1488  0.3101
 5238TIP3    H137205   0.056   1.863   6.308 -0.9407  1.9338  0.2165
 5238TIP3    H237206   0.023   1.890   6.163  0.8925 -0.3372 -0.6907
 5239TIP3   OH237207   1.678   3.556  10.778  0.3926 -0.0638  0.4651
 5239TIP3    H137208   1.690   3.462  10.781  0.8321 -0.1536 -2.0606
 5239TIP3    H237209   1.766   3.592  10.787  0.3662  0.0418  0.3172
 5240TIP3   OH237210   5.717   6.389   2.519 -0.0534 -0.5439 -0.2318
 5240TIP3    H137211   5.662   6.367   2.444 -0.8632  0.4376  0.0418
 5240TIP3    H237212   5.734   6.483   2.508 -0.6533 -0.2609  1.0952
 5241TIP3   OH237213   2.173   1.201  17.027  0.0740  0.1304 -0.8394
 5241TIP3    H137214   2.250   1.160  16.988  0.4346 -0.3208  0.3057
 5241TIP3    H237215   2.102   1.138  17.014  0.4281 -0.4955  0.1223
 5242TIP3   OH237216   0.413   2.302  13.806  0.6129  0.2280 -0.1384
 5242TIP3    H137217   0.407   2.248  13.727 -0.4359 -0.5370  0.4275
 5242TIP3    H237218   0.354   2.259  13.868  2.2323  0.1689  1.4385
 5243TIP3   OH237219   4.277   0.195   1.705 -0.2835 -0.6842  0.1559
 5243TIP3    H137220   4.306   0.188   1.614  0.2818 -1.1502  0.3644
 5243TIP3    H237221   4.271   0.104   1.736  0.7804 -0.5042  0.9567
 5244TIP3   OH237222   2.042   2.496   5.261  0.0995  0.1626  0.0507
 5244TIP3    H137223   2.046   2.573   5.204 -1.0330  0.7389  0.7368
 5244TIP3    H237224   1.958   2.454   5.239  1.2831 -1.7006 -1.3147
 5245TIP3   OH237225   5.556   0.189   4.522 -0.0344 -0.0032  0.0839
 5245TIP3    H137226   5.541   0.159   4.612 -0.8502 -0.0604 -0.0676
 5245TIP3    H237227   5.472   0.176   4.478  0.0503  1.0365 -0.3990
 5246TIP3   OH237228   5.983   5.601  15.012  0.1846 -0.5000  0.4752
 5246TIP3    H137229   5.996   5.568  15.101  0.9367  1.6230  1.2303
 5246TIP3    H237230   5.918   5.671  15.022  0.8947  0.3243 -0.4840
 5247TIP3   OH237231   1.516   3.814   6.242 -0.1466 -0.4952 -0.3817
 5247TIP3    H137232   1.588   3.876   6.257 -0.5597  0.2889 -1.4749
 5247TIP3    H237233   1.493   3.782   6.329 -0.8408  1.9617  0.4191
 5248TIP3   OH237234   4.696   2.933  12.186  0.3505  0.2428  0.7599
 5248TIP3    H137235   4.681   2.963  12.097 -3.7096 -0.0817  1.1578
 5248TIP3    H237236   4.770   2.985  12.218  1.4097  0.8935 -2.4663
 5249TIP3   OH237237   0.873   5.889  14.750 -0.0571 -0.5116 -0.6751
 5249TIP3    H137238   0.842   5.811  14.795  0.3922 -0.1319  0.3329
 5249TIP3    H237239   0.795   5.944  14.740 -0.1661 -0.6071 -0.3672
 5250TIP3   OH237240   1.766   0.817   2.266  0.2246  0.2654 -0.5617
 5250TIP3    H137241   1.792   0.886   2.327 -1.9820  1.7291 -1.1440
 5250TIP3    H237242   1.671   0.822   2.264  0.0253 -2.5536 -0.9965
 5251TIP3   OH237243   2.161   6.009   1.026 -0.7350 -0.1249 -0.2050
 5251TIP3    H137244   2.217   6.079   0.993 -0.0197 -0.8119 -0.4652
 5251TIP3    H237245   2.076   6.052   1.043 -0.8177  0.4540 -1.9243
 5252TIP3   OH237246   0.130   2.558  17.077 -0.7746 -0.7887  0.3236
 5252TIP3    H137247   0.117   2.475  17.121 -0.8443 -1.6338 -1.2276
 5252TIP3    H237248   0.059   2.563  17.013 -0.9210  0.5920  0.5600
 5253TIP3   OH237249   3.338   3.317   2.512  0.2451 -1.0399 -0.2926
 5253TIP3    H137250   3.326   3.327   2.606 -0.9131 -0.5667 -0.4753
 5253TIP3    H237251   3.294   3.235   2.489  0.8645 -1.3592 -0.3729
 5254TIP3   OH237252   2.241   6.135  15.929 -0.1722  0.0382  0.3518
 5254TIP3    H137253   2.214   6.157  15.840 -0.7132 -0.3901  0.4068
 5254TIP3    H237254   2.213   6.044  15.941 -0.5969  0.2714  1.1514
 5255TIP3   OH237255   6.045   4.405   3.464 -0.2108  0.1068  0.2417
 5255TIP3    H137256   6.034   4.354   3.544 -2.0921 -0.7251 -0.4758
 5255TIP3    H237257   5.958   4.440   3.446 -0.2646 -1.0564 -2.2578
 5256TIP3   OH237258   2.046   2.199  13.892  0.0897 -0.8053  0.4251
 5256TIP3    H137259   2.108   2.239  13.953  2.3004 -1.0298 -1.5384
 5256TIP3    H237260   1.994   2.273  13.860 -1.3736 -0.7267  2.7116
 5257TIP3   OH237261   0.843   2.958  14.338  0.0887  0.2486 -0.0745
 5257TIP3    H137262   0.887   2.897  14.398 -0.0224 -1.3899 -1.5782
 5257TIP3    H237263   0.751   2.934  14.342 -0.3602  1.9907  1.1461
 5258TIP3   OH237264   3.403   4.519   0.831  0.5018 -0.2185 -0.2145
 5258TIP3    H137265   3.487   4.494   0.871  0.5430  0.0285 -0.1432
 5258TIP3    H237266   3.342   4.524   0.905  0.6314  0.4639 -0.1502
 5259TIP3   OH237267   4.521   5.688   0.632 -0.9356 -0.2014  0.2005
 5259TIP3    H137268   4.477   5.638   0.701 -1.4770 -0.0131 -0.0036
 5259TIP3    H237269   4.480   5.659   0.551  0.0245 -0.7685 -0.1067
 5260TIP3   OH237270   1.680   5.761   5.576  0.1680 -0.0592 -0.0402
 5260TIP3    H137271   1.730   5.722   5.503 -0.2061 -1.3982  0.3895
 5260TIP3    H237272   1.740   5.824   5.615  2.1323 -2.5511  1.2827
 5261TIP3   OH237273   2.830   4.544   5.622 -0.3985  0.0380 -0.2053
 5261TIP3    H137274   2.862   4.489   5.551  0.0784  0.7065 -0.5185
 5261TIP3    H237275   2.761   4.597   5.583 -0.7666 -0.2339  0.0634
 5262TIP3   OH237276   4.895   3.596   5.324 -0.1920  0.3739 -0.4954
 5262TIP3    H137277   4.850   3.650   5.258  0.4993 -0.1618 -1.4278
 5262TIP3    H237278   4.909   3.512   5.281  0.3415  0.0315  0.3170
 5263TIP3   OH237279   5.153   4.225  12.637  0.7770  0.2591  0.2547
 5263TIP3    H137280   5.151   4.154  12.702 -0.2643  0.6709  0.6803
 5263TIP3    H237281   5.090   4.289  12.669  1.0058  0.9466 -0.6385
 5264TIP3   OH237282   2.675   5.468   4.626 -0.5857  0.6018 -0.1973
 5264TIP3    H137283   2.769   5.453   4.625 -0.3919  1.4302  1.7584
 5264TIP3    H237284   2.637   5.380   4.627  0.1918  0.2563 -0.2456
 5265TIP3   OH237285   4.323   0.850  13.103  0.4356 -0.0927  0.7289
 5265TIP3    H137286   4.318   0.858  13.008 -0.5652  0.7012  0.8321
 5265TIP3    H237287   4.276   0.769  13.123  0.5030 -0.1717  0.5683
 5266TIP3   OH237288   2.206   1.925  13.739  0.0859  0.2849 -0.2059
 5266TIP3    H137289   2.238   1.949  13.826 -1.7051  0.5969  0.4083
 5266TIP3    H237290   2.245   1.989  13.680  1.1105  0.2361  0.3927
 5267TIP3   OH237291   3.102   5.484  15.199  0.7232 -0.2559 -0.5131
 5267TIP3    H137292   3.189   5.452  15.223  0.0803 -1.0019  0.9340
 5267TIP3    H237293   3.049   5.405  15.187 -0.4851  0.1707  1.5510
 5268TIP3   OH237294   3.372   6.511  12.376  0.3274  0.5935 -0.6747
 5268TIP3    H137295   3.403   6.422  12.363 -0.0787  0.1585  1.0994
 5268TIP3    H237296   3.409   6.560  12.303  3.2398 -0.3560  0.0453
 5269TIP3   OH237297   2.863   4.357  14.228 -0.9036 -0.1809 -0.6480
 5269TIP3    H137298   2.878   4.446  14.195 -0.5928  0.9194  2.1855
 5269TIP3    H237299   2.768   4.352  14.239 -0.9581 -0.3560 -1.1812
 5270TIP3   OH237300   1.723   0.555  16.691  0.3529  0.2041  0.5998
 5270TIP3    H137301   1.682   0.515  16.614  1.7710 -1.1113  0.4680
 5270TIP3    H237302   1.691   0.645  16.692  1.4997  0.7553 -2.4713
 5271TIP3   OH237303   2.441   5.732  16.044 -0.8987 -0.0023 -0.3552
 5271TIP3    H137304   2.493   5.678  15.985  3.8481  1.5881  1.7864
 5271TIP3    H237305   2.412   5.672  16.113  2.3769 -0.4497  0.8318
 5272TIP3   OH237306   1.216   4.774   4.945  0.1678  0.1713 -0.2828
 5272TIP3    H137307   1.207   4.793   5.039  0.6697  1.8763 -0.5418
 5272TIP3    H237308   1.136   4.728   4.922 -1.2678  2.1823  0.4282
 5273TIP3   OH237309   3.061   3.579  12.051 -0.1621  0.0387  0.1852
 5273TIP3    H137310   3.071   3.674  12.055  2.6522 -0.2030  0.3054
 5273TIP3    H237311   3.086   3.548  12.138 -0.5540 -0.8657 -0.0152
 5274TIP3   OH237312   6.287   6.351  14.837  0.2925  0.0027 -0.2284
 5274TIP3    H137313   6.241   6.405  14.901  1.2513 -0.4380  0.8685
 5274TIP3    H237314   6.218   6.301  14.793 -0.5273  1.4559 -0.6603
 5275TIP3   OH237315   1.044   0.687   1.664 -0.2371 -0.7121  0.1329
 5275TIP3    H137316   1.022   0.710   1.754 -0.7833 -0.6641 -0.0112
 5275TIP3    H237317   1.130   0.646   1.670 -0.6029 -1.3922  0.7709
 5276TIP3   OH237318   3.721   5.822   0.563  0.0633  0.0642 -0.2329
 5276TIP3    H137319   3.799   5.857   0.521 -0.0206  0.6604  0.0930
 5276TIP3    H237320   3.703   5.739   0.517  0.8016 -0.0087 -0.3936
 5277TIP3   OH237321   3.203   2.933   4.779 -0.3406  0.1509 -0.3964
 5277TIP3    H137322   3.119   2.976   4.796 -0.7664 -0.6295 -0.5098
 5277TIP3    H237323   3.206   2.923   4.683 -0.4699 -0.5203 -0.3333
 5278TIP3   OH237324   0.689   5.443  15.138  0.5021 -0.0663  0.1884
 5278TIP3    H137325   0.727   5.527  15.164  1.9390 -0.3453 -0.8570
 5278TIP3    H237326   0.746   5.377  15.178 -1.0614 -0.5944  1.6466
 5279TIP3   OH237327   0.510   0.169   2.229 -0.2075 -0.2778  0.0745
 5279TIP3    H137328   0.577   0.114   2.188  0.5596  0.4184  0.3608
 5279TIP3    H237329   0.489   0.234   2.162  0.4875  0.3946  0.4917
 5280TIP3   OH237330   5.971   2.354  11.922  0.3214  0.2801 -0.5036
 5280TIP3    H137331   5.963   2.448  11.907  0.3995  0.5170  0.8234
 5280TIP3    H237332   5.890   2.317  11.887 -0.6332  1.0874  0.7818
 5281TIP3   OH237333   6.512   5.184   1.200  0.1956 -0.2333 -0.1228
 5281TIP3    H137334   6.418   5.204   1.195  0.3540  0.6060  0.1115
 5281TIP3    H237335   6.527   5.161   1.292  0.0714 -1.1792 -0.3295
 5282TIP3   OH237336   1.896   1.640   5.628 -0.5268 -0.7465 -0.6087
 5282TIP3    H137337   1.876   1.551   5.600  0.0646 -2.1372  2.8297
 5282TIP3    H237338   1.833   1.657   5.698 -1.6129  2.2232 -2.1361
 5283TIP3   OH237339   3.077   3.849  14.248 -0.2587  0.2491 -0.4575
 5283TIP3    H137340   3.070   3.817  14.338 -1.6118  1.2063 -0.1979
 5283TIP3    H237341   3.036   3.936  14.250  1.0382  0.9278 -1.6816
 5284TIP3   OH237342   5.743   1.757   5.526 -0.0782  0.3742  0.4409
 5284TIP3    H137343   5.787   1.840   5.544 -2.8683  2.1146 -0.1592
 5284TIP3    H237344   5.795   1.718   5.456  1.9374  1.0165  1.4807
 5285TIP3   OH237345   1.809   3.644  15.020  0.2769  0.3641 -0.0699
 5285TIP3    H137346   1.802   3.623  14.927  1.2877  0.8573 -0.2660
 5285TIP3    H237347   1.900   3.672  15.032  0.1796  0.2287  1.0836
 5286TIP3   OH237348   1.332   1.144  15.183 -0.6598 -0.3842  0.3609
 5286TIP3    H137349   1.405   1.199  15.212 -0.4814 -0.1655 -0.4637
 5286TIP3    H237350   1.337   1.066  15.239 -0.2508 -0.0422  0.8109
 5287TIP3   OH237351   5.600   2.454  13.634 -0.7897  0.0565 -0.1515
 5287TIP3    H137352   5.519   2.422  13.674 -0.5434 -0.0461  0.2672
 5287TIP3    H237353   5.649   2.493  13.707  0.2641 -1.3315 -0.0818
 5288TIP3   OH237354   0.029   5.543   6.276  0.8972 -0.1273  0.1452
 5288TIP3    H137355   0.115   5.529   6.237  0.4004 -1.2994 -0.5708
 5288TIP3    H237356  -0.012   5.610   6.220  1.5660  0.9304  0.8812
 5289TIP3   OH237357   0.020   2.659  15.440  0.0506  0.0235 -0.1990
 5289TIP3    H137358   0.020   2.716  15.517 -1.3756 -1.4473  0.9727
 5289TIP3    H237359   0.038   2.718  15.366  2.6435  1.3056  1.3233
 5290TIP3   OH237360   1.534   5.712   4.034  0.1768  0.3107 -0.0317
 5290TIP3    H137361   1.599   5.658   4.079  0.7025  0.9505 -0.0181
 5290TIP3    H237362   1.483   5.752   4.104  0.5263  0.7329 -0.0167
 5291TIP3   OH237363   5.240   2.950   6.500  0.5105  0.0527 -0.5825
 5291TIP3    H137364   5.169   2.982   6.444 -1.6784 -0.4036  1.7317
 5291TIP3    H237365   5.288   3.028   6.526  0.2164  0.4935 -1.3299
 5292TIP3   OH237366   3.977   6.351  16.158  0.3062  0.0340  0.6980
 5292TIP3    H137367   3.926   6.329  16.235  0.9614  0.4946  1.2825
 5292TIP3    H237368   3.931   6.310  16.085 -0.4402 -0.2213  1.3079
 5293TIP3   OH237369   1.177   5.735  11.205 -0.4802 -0.0789 -0.0100
 5293TIP3    H137370   1.130   5.704  11.128  0.0967  0.7107 -0.7004
 5293TIP3    H237371   1.262   5.764  11.172  0.8967 -2.2707  1.3324
 5294TIP3   OH237372   4.233   6.527   2.672 -0.5834  0.2466 -0.5211
 5294TIP3    H137373   4.225   6.434   2.692 -1.6530  0.4769  0.2172
 5294TIP3    H237374   4.196   6.571   2.749 -0.3059  1.2720 -0.9611
 5295TIP3   OH237375   3.742   5.746   3.297 -0.0509 -0.0185 -0.0807
 5295TIP3    H137376   3.807   5.677   3.311 -0.0308  0.0333  0.0841
 5295TIP3    H237377   3.790   5.827   3.310  0.2429  0.0776 -1.5423
 5296TIP3   OH237378   0.358   3.204   1.111  0.0509 -0.1860  0.2541
 5296TIP3    H137379   0.306   3.280   1.134 -0.9641 -0.5059 -0.9061
 5296TIP3    H237380   0.295   3.137   1.085  0.9027 -1.5104  1.3883
 5297TIP3   OH237381   2.961   4.622  10.946  0.1531 -0.0672 -0.0674
 5297TIP3    H137382   2.937   4.607  11.037  1.0711 -0.5823  0.1067
 5297TIP3    H237383   2.878   4.625  10.899 -0.3954  1.2488  0.9224
 5298TIP3   OH237384   2.958   5.597  11.935  0.4384 -0.3714  0.1272
 5298TIP3    H137385   2.996   5.679  11.965  0.4751 -0.1360 -0.5636
 5298TIP3    H237386   2.994   5.531  11.995  0.6664  0.0651  0.4743
 5299TIP3   OH237387   3.484   5.058  16.380 -0.5611 -0.1612  0.1021
 5299TIP3    H137388   3.503   5.111  16.302  0.6789 -0.4971  0.1541
 5299TIP3    H237389   3.528   5.103  16.451  2.9936 -2.6009 -0.2786
 5300TIP3   OH237390   3.420   1.472  11.744 -0.5846 -0.4588  0.2967
 5300TIP3    H137391   3.344   1.501  11.794 -2.4268 -2.9287 -0.8320
 5300TIP3    H237392   3.420   1.528  11.666 -1.8743 -0.9938 -0.1271
 5301TIP3   OH237393   2.330   6.613   6.856  0.3220 -0.5589 -0.2498
 5301TIP3    H137394   2.391   6.555   6.812 -0.1038  0.3888 -2.1722
 5301TIP3    H237395   2.375   6.637   6.937  1.1067 -2.3811 -0.0788
 5302TIP3   OH237396   5.937   4.468   4.812  0.0085  0.4552 -0.2276
 5302TIP3    H137397   5.910   4.416   4.887 -1.7046 -0.1075 -1.1729
 5302TIP3    H237398   6.006   4.416   4.770  0.6189  0.5373  0.6461
 5303TIP3   OH237399   3.037   0.823   1.093  0.1626 -0.0162  0.1999
 5303TIP3    H137400   2.994   0.788   1.015 -0.6038 -0.4352  0.7904
 5303TIP3    H237401   3.131   0.814   1.075  0.0290  0.9337 -1.1243
 5304TIP3   OH237402   6.419   5.412   6.506  0.0691  0.3007 -0.2754
 5304TIP3    H137403   6.392   5.451   6.423 -0.0506 -0.9580 -0.8487
 5304TIP3    H237404   6.350   5.437   6.568 -1.5753 -1.4212 -1.3113
 5305TIP3   OH237405   2.471   0.763   2.147  0.6815  0.4968 -0.3669
 5305TIP3    H137406   2.383   0.758   2.184  0.5041  0.6580 -0.7652
 5305TIP3    H237407   2.521   0.815   2.210  0.4775  0.4569 -0.1708
 5306TIP3   OH237408   5.373   2.507   6.621  0.2802  0.3666 -0.3852
 5306TIP3    H137409   5.313   2.433   6.627  0.0459  0.5717 -0.2292
 5306TIP3    H237410   5.459   2.466   6.611  0.3125  0.0357  0.9569
 5307TIP3   OH237411   4.705   4.368   5.738 -0.0740 -0.2422  0.4840
 5307TIP3    H137412   4.765   4.309   5.783 -0.2985  0.7370  2.1220
 5307TIP3    H237413   4.735   4.456   5.762 -0.5283  0.3128 -0.8684
 5308TIP3   OH237414   4.327   4.594   4.688  0.0081 -0.3183 -0.1920
 5308TIP3    H137415   4.237   4.563   4.693 -0.1400 -0.3563 -2.3262
 5308TIP3    H237416   4.379   4.521   4.723 -0.6812 -0.9738 -0.4932
 5309TIP3   OH237417   3.114   0.311  17.056 -0.3225  0.1508  0.7070
 5309TIP3    H137418   3.032   0.360  17.054  0.0962  0.8547  0.0953
 5309TIP3    H237419   3.144   0.312  16.965  1.0598  1.1254  1.1347
 5310TIP3   OH237420   3.309   4.369  15.789  0.0961  0.2226 -0.0934
 5310TIP3    H137421   3.270   4.434  15.847 -1.4679 -1.4096  0.7829
 5310TIP3    H237422   3.362   4.420  15.727  0.3429  2.1482  1.6206
 5311TIP3   OH237423   5.082   6.783  15.453 -0.1638 -0.1764 -0.4564
 5311TIP3    H137424   5.006   6.778  15.511 -0.4473  0.8281 -0.7238
 5311TIP3    H237425   5.138   6.711  15.481 -0.5553 -0.0547  0.6860
 5312TIP3   OH237426   1.940   2.431  13.787 -0.0388  0.3244 -0.3151
 5312TIP3    H137427   1.993   2.453  13.711  1.2744 -0.7199  0.2561
 5312TIP3    H237428   1.849   2.439  13.756  0.4595  0.0581 -1.9390
 5313TIP3   OH237429   1.462   6.578  12.634 -0.3920  0.3286  0.0653
 5313TIP3    H137430   1.550   6.573  12.597 -0.4119  0.4720 -0.0062
 5313TIP3    H237431   1.440   6.488  12.657 -1.1956 -0.1264 -2.2210
 5314TIP3   OH237432   1.790   6.357   1.703 -0.5673  0.0518  0.1509
 5314TIP3    H137433   1.846   6.293   1.658 -0.9633 -0.0630 -0.1800
 5314TIP3    H237434   1.714   6.366   1.647 -1.3358 -0.5171  1.0717
 5315TIP3   OH237435   2.268   0.488  17.144  0.5886  0.0253  0.1350
 5315TIP3    H137436   2.191   0.462  17.196  0.6719 -3.2887 -1.1199
 5315TIP3    H237437   2.231   0.536  17.070  0.1844  2.0481  1.5783
 5316TIP3   OH237438   6.271   4.269   5.191 -0.1965  0.1969 -0.7224
 5316TIP3    H137439   6.246   4.240   5.278  1.0013  0.8545 -0.1373
 5316TIP3    H237440   6.340   4.334   5.206 -0.3699  0.7354 -2.1317
 5317TIP3   OH237441   1.268   2.037  12.036  0.0834  0.5906 -0.3433
 5317TIP3    H137442   1.340   2.001  11.985  1.4651  0.2151  1.7704
 5317TIP3    H237443   1.200   2.055  11.971  0.6557 -2.4567 -1.9634
 5318TIP3   OH237444   1.367   5.612   3.802  0.2216  0.9450  0.1052
 5318TIP3    H137445   1.378   5.544   3.868  2.2222 -0.3484 -1.4350
 5318TIP3    H237446   1.452   5.657   3.800 -0.2345  1.8136 -0.6853
 5319TIP3   OH237447   1.886   5.000  11.925  0.3252 -0.4908  0.0222
 5319TIP3    H137448   1.866   5.020  11.834  1.8168  0.0156 -0.2228
 5319TIP3    H237449   1.895   4.904  11.928 -1.9407 -0.7502  0.1512
 5320TIP3   OH237450   6.633   6.299  13.098  0.6114 -0.4164 -0.2091
 5320TIP3    H137451   6.686   6.237  13.149  1.4315  1.4445  1.3557
 5320TIP3    H237452   6.692   6.331  13.030  0.5618 -0.4969 -0.2898
 5321TIP3   OH237453   6.612   3.999   0.443 -0.0798 -0.0971 -0.0620
 5321TIP3    H137454   6.676   4.061   0.407  2.2771 -0.4379  3.1060
 5321TIP3    H237455   6.579   4.042   0.522  1.4110 -2.6316  2.0873
 5322TIP3   OH237456   5.901   6.054   4.969 -0.5950  0.0868 -0.2230
 5322TIP3    H137457   5.855   6.115   5.026 -0.5075 -0.7944  0.8183
 5322TIP3    H237458   5.981   6.032   5.016  0.4869  0.9118 -1.6178
 5323TIP3   OH237459   5.518   4.238  16.517  0.0516  0.0719  0.0335
 5323TIP3    H137460   5.485   4.194  16.595 -2.2849  1.1823 -0.2390
 5323TIP3    H237461   5.480   4.190  16.443 -0.4518  0.9720 -0.3167
 5324TIP3   OH237462   0.597   5.303  13.818 -0.3757  0.0641  0.2704
 5324TIP3    H137463   0.527   5.363  13.844  0.4963  2.5413 -2.5518
 5324TIP3    H237464   0.561   5.255  13.743  0.1058 -0.5111  0.3993
 5325TIP3   OH237465   1.617   3.995   0.885 -0.2003  0.1675 -0.2825
 5325TIP3    H137466   1.654   4.080   0.862  2.8855 -1.2464 -1.0360
 5325TIP3    H237467   1.585   3.960   0.802 -2.6526  0.9864  0.2180
 5326TIP3   OH237468   6.192   3.991   2.100  0.4846  0.0633 -0.4126
 5326TIP3    H137469   6.135   3.923   2.064  0.9470  0.3616 -1.7806
 5326TIP3    H237470   6.134   4.044   2.155  0.5069 -2.5890  2.4852
 5327TIP3   OH237471   4.573   1.771   0.569 -0.0819  0.5362 -0.2912
 5327TIP3    H137472   4.607   1.853   0.605  0.4180  0.7173 -1.1512
 5327TIP3    H237473   4.478   1.784   0.565 -0.1088  0.6717  0.5286
 5328TIP3   OH237474   6.142   3.461  15.611  0.5823  0.0623  0.3171
 5328TIP3    H137475   6.080   3.389  15.606  0.2291  0.4108 -0.5302
 5328TIP3    H237476   6.122   3.515  15.534  0.3594  1.4493  1.3109
 5329TIP3   OH237477   2.789   3.689   2.255 -0.0616 -0.1737  0.5131
 5329TIP3    H137478   2.725   3.759   2.269  0.7280  0.9944 -1.4255
 5329TIP3    H237479   2.873   3.734   2.248  0.8474 -1.5822  1.8212
 5330TIP3   OH237480   0.064   1.498  12.593 -0.2952 -1.0357  0.3030
 5330TIP3    H137481   0.064   1.444  12.514  1.0254  0.5207 -0.8352
 5330TIP3    H237482   0.139   1.556  12.582 -0.5551 -0.2318  2.3525
 5331TIP3   OH237483   6.438   3.328  11.724 -0.0120  0.1076  0.4047
 5331TIP3    H137484   6.370   3.361  11.665  1.5321  0.2070 -1.4414
 5331TIP3    H237485   6.494   3.274  11.668  1.0054 -0.5915  2.0166
 5332TIP3   OH237486   4.146   1.742   5.477  0.1494 -0.5827  0.1041
 5332TIP3    H137487   4.222   1.799   5.488 -0.7572  0.5782  0.4836
 5332TIP3    H237488   4.133   1.703   5.564 -0.0322 -0.3357  0.1887
 5333TIP3   OH237489   1.274   0.226   0.234  0.3452 -0.1675 -0.2925
 5333TIP3    H137490   1.310   0.223   0.323  0.1583  0.8397 -0.1729
 5333TIP3    H237491   1.196   0.171   0.237  0.4542 -0.2995  0.1180
 5334TIP3   OH237492   2.458   4.850   3.220  0.8578 -0.0048  0.0981
 5334TIP3    H137493   2.395   4.785   3.250  1.1623 -0.5826 -0.4865
 5334TIP3    H237494   2.498   4.811   3.142  0.1468  1.4190 -1.0180
 5335TIP3   OH237495   2.678   2.674  13.090 -0.5928 -0.0376 -0.2916
 5335TIP3    H137496   2.602   2.659  13.034 -0.1379 -1.5504 -0.5325
 5335TIP3    H237497   2.642   2.680  13.179 -0.9722 -1.1382 -0.3578
 5336TIP3   OH237498   4.689   0.217  12.582 -0.3846  0.2549  0.7582
 5336TIP3    H137499   4.664   0.304  12.613 -2.0234  0.5459 -1.1592
 5336TIP3    H237500   4.609   0.165  12.590 -0.7513  0.2087 -2.3010
 5337TIP3   OH237501   0.836   6.112   2.765  0.7296  0.1762  0.2957
 5337TIP3    H137502   0.893   6.110   2.842  1.5550  0.4890 -0.2951
 5337TIP3    H237503   0.857   6.195   2.722  1.5986 -0.7905 -1.2352
 5338TIP3   OH237504   2.210   1.149  12.535  0.1624  0.1241 -0.1269
 5338TIP3    H137505   2.281   1.213  12.542  0.0320  0.1985  0.5426
 5338TIP3    H237506   2.134   1.201  12.509  0.0415  0.2542  0.4810
 5339TIP3   OH237507   6.796   0.911   2.237 -0.0305  0.0635 -0.3337
 5339TIP3    H137508   6.866   0.961   2.279  0.4416 -0.5922 -0.3217
 5339TIP3    H237509   6.804   0.823   2.273 -0.6468 -0.1081 -0.5932
 5340TIP3   OH237510   5.605   1.020  12.193 -0.0927  0.0699  0.3149
 5340TIP3    H137511   5.552   1.083  12.145  1.5210  1.1405 -0.1173
 5340TIP3    H237512   5.552   0.999  12.270 -0.3095  2.6652  0.9716
 5341TIP3   OH237513   1.394   0.156  10.777 -0.0655  0.2718  0.1290
 5341TIP3    H137514   1.437   0.090  10.831 -1.0197 -0.4854 -0.0022
 5341TIP3    H237515   1.376   0.228  10.836 -0.9196 -0.4656  0.7921
 5342TIP3   OH237516   6.393   6.528   2.478  0.2382 -0.1662 -0.2654
 5342TIP3    H137517   6.322   6.481   2.432 -1.5150 -0.9889  2.9732
 5342TIP3    H237518   6.370   6.620   2.469 -1.4988 -0.4184  0.8865
 5343TIP3   OH237519   3.189   2.624   3.346  0.2356  0.1180  0.6307
 5343TIP3    H137520   3.134   2.584   3.280  0.4614  0.6029  0.1350
 5343TIP3    H237521   3.273   2.578   3.340 -0.1697 -0.7718  1.5388
 5344TIP3   OH237522   0.540   0.393   2.386  0.4995 -0.0151 -0.0219
 5344TIP3    H137523   0.519   0.308   2.349 -0.2055 -0.0329  0.4051
 5344TIP3    H237524   0.603   0.431   2.325  0.6465 -0.7457 -0.3328
 5345TIP3   OH237525   3.192   6.792   1.400 -0.0828  0.0141  0.0134
 5345TIP3    H137526   3.142   6.775   1.479 -0.1948  2.0455  0.4243
 5345TIP3    H237527   3.208   6.887   1.400  1.5166 -0.1834 -1.4350
 5346TIP3   OH237528   0.203   3.837  12.186 -0.0800 -0.0549 -0.9138
 5346TIP3    H137529   0.215   3.922  12.144 -1.8465  2.2378  2.6695
 5346TIP3    H237530   0.284   3.822  12.234 -0.3115  0.4133 -0.3612
 5347TIP3   OH237531   4.535   3.278  12.775 -0.1420  0.0277 -0.3256
 5347TIP3    H137532   4.593   3.354  12.780 -1.3423  1.0636 -1.3816
 5347TIP3    H237533   4.552   3.229  12.856  0.8383  1.2720  0.2570
 5348TIP3   OH237534   0.789   6.435   1.202 -0.2532  0.3318  0.3355
 5348TIP3    H137535   0.785   6.506   1.138  0.1762 -0.6503 -0.8255
 5348TIP3    H237536   0.854   6.374   1.166  1.0670  0.4174  2.4100
 5349TIP3   OH237537   3.644   2.882   6.491 -0.0906 -1.0466  0.1859
 5349TIP3    H137538   3.638   2.841   6.577  1.7468  1.5006  1.6713
 5349TIP3    H237539   3.733   2.916   6.487 -0.5438  0.0736 -2.2182
 5350TIP3   OH237540   3.149   4.750   5.781  0.6235  0.3935  0.7505
 5350TIP3    H137541   3.217   4.765   5.714 -1.4522 -2.9256 -2.4722
 5350TIP3    H237542   3.191   4.691   5.844  1.5270  0.5850  0.3533
 5351TIP3   OH237543   0.405   3.408  16.963  1.1833  0.1217  0.3708
 5351TIP3    H137544   0.363   3.430  17.046 -0.6134 -0.1281 -0.4361
 5351TIP3    H237545   0.382   3.316  16.948  0.5909  0.4600 -0.9056
 5352TIP3   OH237546   3.269   2.728  12.009 -0.6938  0.4462  0.3041
 5352TIP3    H137547   3.325   2.677  12.067  0.5972 -0.2237 -1.4510
 5352TIP3    H237548   3.190   2.744  12.060  0.0985 -0.7015  1.9773
 5353TIP3   OH237549   0.652   6.017   5.595 -0.5159 -0.3704  0.6267
 5353TIP3    H137550   0.625   5.987   5.508  0.7072  0.8595 -0.2128
 5353TIP3    H237551   0.576   6.063   5.629 -0.1368  1.6789 -1.0436
 5354TIP3   OH237552   5.211   6.629  14.979  0.1187  0.5498 -1.0437
 5354TIP3    H137553   5.301   6.660  14.988  1.2983 -2.7493 -0.2869
 5354TIP3    H237554   5.177   6.626  15.069 -0.6368  1.3681 -1.2861
 5355TIP3   OH237555   2.843   3.116  11.610  0.3426  0.1655 -0.4062
 5355TIP3    H137556   2.921   3.068  11.640  1.1166  1.3579 -0.4511
 5355TIP3    H237557   2.862   3.137  11.519 -0.4971 -0.4178 -0.7277
 5356TIP3   OH237558   4.332   4.220   3.859  0.0523  0.4095  0.5206
 5356TIP3    H137559   4.389   4.165   3.912  0.3027 -0.4285 -0.5777
 5356TIP3    H237560   4.334   4.180   3.772 -2.5240  0.1294  0.5236
 5357TIP3   OH237561   2.799   3.815   5.250 -0.2265  0.0077 -0.5887
 5357TIP3    H137562   2.725   3.803   5.190  0.7496 -0.9736 -1.6668
 5357TIP3    H237563   2.774   3.769   5.330 -0.5535 -0.8580 -1.1705
 5358TIP3   OH237564   1.567   1.639   2.707  0.3284  0.1679 -0.2639
 5358TIP3    H137565   1.649   1.681   2.734 -0.2661  1.4425 -0.3732
 5358TIP3    H237566   1.498   1.696   2.743 -0.5435 -1.3659  0.6094
 5359TIP3   OH237567   6.641   4.326   0.488 -0.4835  0.7953 -0.1127
 5359TIP3    H137568   6.622   4.374   0.569 -0.2529  0.8040 -0.0603
 5359TIP3    H237569   6.708   4.378   0.445 -0.4713  0.6933 -0.2174
 5360TIP3   OH237570   0.325   6.639  12.470 -0.4583 -0.3006 -0.4155
 5360TIP3    H137571   0.377   6.678  12.540 -3.3423  1.0586  1.1895
 5360TIP3    H237572   0.357   6.679  12.390 -0.5239  2.3042  0.7607
 5361TIP3   OH237573   2.372   2.864   3.751 -0.0831 -0.1249  0.0444
 5361TIP3    H137574   2.352   2.776   3.718 -1.6856  0.2628 -0.0989
 5361TIP3    H237575   2.306   2.920   3.711 -1.8493  0.4636  3.4730
 5362TIP3   OH237576   3.578   3.538  11.905  0.3243 -0.3915 -0.2145
 5362TIP3    H137577   3.599   3.586  11.825  0.8683  0.8149  0.6286
 5362TIP3    H237578   3.503   3.483  11.880 -0.8385  1.4326 -1.0370
 5363TIP3   OH237579   5.095   0.088   1.989 -0.2105  0.1793 -0.0883
 5363TIP3    H137580   5.018   0.142   2.006 -0.6873 -0.4083 -0.3595
 5363TIP3    H237581   5.168   0.138   2.026 -0.9302 -0.0367  1.7393
 5364TIP3   OH237582   6.487   0.044  13.781  0.8084  0.5530 -0.1894
 5364TIP3    H137583   6.550   0.069  13.714  1.1233 -0.2979 -0.2202
 5364TIP3    H237584   6.474   0.123  13.833  3.0618  0.3704  0.7651
 5365TIP3   OH237585   2.510   6.115  14.097  0.6102 -0.4530  0.4484
 5365TIP3    H137586   2.503   6.206  14.068  0.5697 -0.5283  0.2203
 5365TIP3    H237587   2.491   6.118  14.191 -0.1461 -0.3220  0.3037
 5366TIP3   OH237588   0.202   2.769   5.775  0.0612  0.2011  0.5077
 5366TIP3    H137589   0.228   2.677   5.771  0.4628  0.3477 -0.9030
 5366TIP3    H237590   0.111   2.767   5.804 -0.3395 -0.7306 -0.7350
 5367TIP3   OH237591   3.139   1.534  11.321 -0.2989 -0.6950 -0.5331
 5367TIP3    H137592   3.187   1.487  11.389 -1.3102  1.2629  1.6900
 5367TIP3    H237593   3.203   1.548  11.251  2.1338  0.7857  1.7813
 5368TIP3   OH237594   3.727   6.185  10.936  0.3084 -0.2556  0.6632
 5368TIP3    H137595   3.754   6.093  10.937  1.6997  0.1383  0.2474
 5368TIP3    H237596   3.730   6.210  10.844 -0.2211  0.1796  0.7575
 5369TIP3   OH237597   2.407   1.388  12.505  0.2778 -0.5549  0.5277
 5369TIP3    H137598   2.477   1.334  12.468  1.3673  1.6177 -0.7971
 5369TIP3    H237599   2.363   1.424  12.428 -0.0864  0.8029  1.3449
 5370TIP3   OH237600   1.792   1.654  13.827 -0.0319  0.1638  0.0807
 5370TIP3    H137601   1.796   1.679  13.734 -1.6206 -0.3804 -0.1758
 5370TIP3    H237602   1.801   1.559  13.826  0.1484  0.1766  0.5086
 5371TIP3   OH237603   6.471   0.213   4.005  0.3998 -0.0959 -0.1450
 5371TIP3    H137604   6.420   0.285   4.043 -0.2177 -0.3414 -0.5054
 5371TIP3    H237605   6.468   0.228   3.911  0.7165 -0.3012 -0.1898
 5372TIP3   OH237606   1.144   1.289  16.345  0.6638  0.2516  0.0152
 5372TIP3    H137607   1.209   1.304  16.413 -0.3698  0.7582  0.9348
 5372TIP3    H237608   1.063   1.273  16.393  0.1087 -0.3736 -1.0922
 5373TIP3   OH237609   4.559   5.433  12.657 -0.0106  0.1860  0.4712
 5373TIP3    H137610   4.573   5.347  12.697 -0.0179 -0.4463 -0.8323
 5373TIP3    H237611   4.471   5.429  12.621 -0.2021  0.9300  0.8466
 5374TIP3   OH237612   4.581   2.920  15.602 -0.6731 -0.0311 -0.0822
 5374TIP3    H137613   4.629   2.913  15.519 -0.7867  0.5033 -0.1990
 5374TIP3    H237614   4.649   2.911  15.669 -0.5581 -0.3130 -0.2335
 5375TIP3   OH237615   0.608   3.032  12.001 -0.0793 -0.2428 -0.1321
 5375TIP3    H137616   0.522   3.007  12.037  0.0678 -0.1169  0.3220
 5375TIP3    H237617   0.627   2.965  11.936  0.4166 -1.4944  1.2289
 5376TIP3   OH237618   1.911   4.941  15.376  0.3154  0.0110 -0.5147
 5376TIP3    H137619   1.841   4.894  15.421  0.4065 -1.0579 -1.4313
 5376TIP3    H237620   1.989   4.925  15.429  0.2635 -0.5493 -0.6036
 5377TIP3   OH237621   2.578   6.236   1.671 -0.1764  0.0380  0.8088
 5377TIP3    H137622   2.486   6.259   1.657  0.0002  0.9667  1.0929
 5377TIP3    H237623   2.623   6.320   1.676  0.6652 -0.4053  0.8709
 5378TIP3   OH237624   2.550   0.689   1.679  0.0304  1.2938  0.3868
 5378TIP3    H137625   2.646   0.688   1.682  0.0768  0.5103 -0.8158
 5378TIP3    H237626   2.525   0.597   1.675 -0.8677  1.4095  2.2622
 5379TIP3   OH237627   4.419   3.946  14.844  0.3197 -0.4798 -0.4387
 5379TIP3    H137628   4.344   3.939  14.903 -0.1389 -0.7347 -1.0415
 5379TIP3    H237629   4.402   4.024  14.792  1.4337  0.5990  0.7178
 5380TIP3   OH237630   1.957   3.231   4.209  0.3675 -0.2412  0.0432
 5380TIP3    H137631   2.006   3.219   4.128 -2.0698 -0.9465 -1.4550
 5380TIP3    H237632   1.865   3.219   4.183 -0.8907  3.2003  2.1604
 5381TIP3   OH237633   3.028   0.264  11.672  0.1725 -0.4236  0.7708
 5381TIP3    H137634   3.043   0.356  11.651  2.2032 -0.6744  0.9381
 5381TIP3    H237635   2.970   0.265  11.748  0.2739  0.7211  0.8386
 5382TIP3   OH237636   1.383   0.996  16.538 -0.2250 -0.2828  0.7431
 5382TIP3    H137637   1.448   1.048  16.490 -0.7837  0.3660  0.6795
 5382TIP3    H237638   1.300   1.037  16.518 -0.7864 -1.6878  0.0405
 5383TIP3   OH237639   1.630   6.393   1.454  0.1370  0.0681 -0.3107
 5383TIP3    H137640   1.564   6.363   1.391  2.0985  0.3602 -2.6587
 5383TIP3    H237641   1.634   6.488   1.443  1.1141  0.0305 -0.4011
 5384TIP3   OH237642   0.625   6.641  11.528 -0.1867  0.0993  0.0659
 5384TIP3    H137643   0.715   6.664  11.504 -0.3792 -0.3655 -1.1618
 5384TIP3    H237644   0.580   6.725  11.538  0.4329  0.3394  0.9360
 5385TIP3   OH237645   6.377   1.333   1.463  0.3211 -0.2463 -0.1757
 5385TIP3    H137646   6.325   1.252   1.458  1.4039 -0.9182 -1.1047
 5385TIP3    H237647   6.352   1.373   1.546 -2.3633 -0.0540 -0.9720
 5386TIP3   OH237648   6.589   0.557   5.776  0.6029  0.2499  0.5178
 5386TIP3    H137649   6.658   0.523   5.834  0.4630 -1.5553 -0.3162
 5386TIP3    H237650   6.510   0.553   5.829  0.3364 -2.1067  0.0605
 5387TIP3   OH237651   5.760   2.806   3.182  0.6518  0.1004 -0.4343
 5387TIP3    H137652   5.847   2.819   3.219  0.7475  2.2347 -1.2754
 5387TIP3    H237653   5.705   2.871   3.228 -0.1713 -0.2282 -0.9385
 5388TIP3   OH237654   1.961   1.706  12.093 -0.0297 -0.1567  0.0729
 5388TIP3    H137655   1.918   1.641  12.149 -0.1001  0.4048  0.6767
 5388TIP3    H237656   1.890   1.762  12.063 -0.0237 -0.5961 -0.7783
 5389TIP3   OH237657   0.353   2.833   0.842  0.7566 -0.2984  0.1071
 5389TIP3    H137658   0.292   2.760   0.841 -1.3206  1.3151 -1.2193
 5389TIP3    H237659   0.312   2.899   0.787  2.7792  1.6812  0.7973
 5390TIP3   OH237660   4.820   3.371   1.526 -0.8281 -0.1927  0.3584
 5390TIP3    H137661   4.830   3.443   1.589 -0.7720  0.1641 -0.0492
 5390TIP3    H237662   4.798   3.295   1.579 -0.1488 -0.0419  0.8764
 5391TIP3   OH237663   2.757   1.752  13.095  0.4926 -0.0759 -0.0389
 5391TIP3    H137664   2.758   1.792  13.182  0.9075  0.1532 -0.1447
 5391TIP3    H237665   2.849   1.730  13.078  0.3223 -0.7391 -0.1403
 5392TIP3   OH237666   5.640   0.807  12.826 -0.7881 -0.2646 -0.7033
 5392TIP3    H137667   5.618   0.731  12.772 -0.3952 -1.4017  0.6730
 5392TIP3    H237668   5.557   0.853  12.836 -0.9946 -0.3873 -1.7229
 5393TIP3   OH237669   5.395   4.152   4.185  0.1783  0.0832 -0.2766
 5393TIP3    H137670   5.414   4.198   4.267  0.7678 -1.1293  0.2834
 5393TIP3    H237671   5.362   4.221   4.127 -0.3725  0.9538  1.0012
 5394TIP3   OH237672   6.730   1.817  15.068  0.8721  0.5392 -0.3771
 5394TIP3    H137673   6.635   1.806  15.059  0.7870  1.9247 -1.7242
 5394TIP3    H237674   6.745   1.818  15.162 -0.3127 -0.6449 -0.1357
 5395TIP3   OH237675   0.342   0.767   6.534  0.1785 -0.3069 -0.6271
 5395TIP3    H137676   0.313   0.741   6.446  1.8805 -2.1320 -0.7074
 5395TIP3    H237677   0.436   0.784   6.524 -0.0955  2.2055  0.3109
 5396TIP3   OH237678   2.263   0.596  13.886 -0.5082 -0.4401 -0.0943
 5396TIP3    H137679   2.213   0.592  13.968  1.5027  1.1765  1.3215
 5396TIP3    H237680   2.278   0.689  13.871  0.4923 -0.7778 -1.4583
 5397TIP3   OH237681   1.035   4.017  16.007 -0.8700 -0.0495  0.1556
 5397TIP3    H137682   1.059   4.064  15.928 -1.1072 -0.4795 -0.1772
 5397TIP3    H237683   1.107   4.033  16.068 -1.1301  1.0729  0.1968
 5398TIP3   OH237684   1.194   3.178  13.525  0.2285  0.3782 -0.1863
 5398TIP3    H137685   1.122   3.174  13.462 -0.7070  1.5121  0.7337
 5398TIP3    H237686   1.270   3.145  13.478 -0.8532 -0.6987 -1.2519
 5399TIP3   OH237687   3.239   2.831  16.337 -0.1834  0.6217 -0.0362
 5399TIP3    H137688   3.202   2.762  16.281  1.8435 -0.3962 -0.2141
 5399TIP3    H237689   3.246   2.907  16.279  0.0134  0.1744 -0.6119
 5400TIP3   OH237690   5.439   4.631   2.481  0.5230 -0.6311  0.3364
 5400TIP3    H137691   5.366   4.693   2.480  1.0362 -0.0065 -0.7245
 5400TIP3    H237692   5.481   4.643   2.395 -0.2667 -3.5261 -0.5637
 5401TIP3   OH237693   6.023   0.813  12.597 -0.0118 -0.0709  0.1360
 5401TIP3    H137694   5.952   0.858  12.551  0.3394 -1.0464 -1.4771
 5401TIP3    H237695   5.986   0.728  12.621  1.0040 -1.2955 -2.2524
 5402TIP3   OH237696   0.340   5.262   3.967 -0.1224  0.3379  0.5294
 5402TIP3    H137697   0.351   5.348   4.006  2.4243 -0.2280  1.2688
 5402TIP3    H237698   0.419   5.214   3.992 -1.7063 -2.4305  0.6759
 5403TIP3   OH237699   0.276   3.663  13.062 -0.0334 -0.6678 -0.4900
 5403TIP3    H137700   0.337   3.693  13.128  2.1576 -1.5737 -1.9718
 5403TIP3    H237701   0.314   3.581  13.029 -2.0600 -1.2868 -1.4923
 5404TIP3   OH237702   0.974   5.753   1.588 -0.0569  0.2487  0.6158
 5404TIP3    H137703   1.061   5.773   1.621 -0.1106 -0.5160  1.2390
 5404TIP3    H237704   0.967   5.803   1.506  1.1379 -0.0703  0.3110
 5405TIP3   OH237705   4.124   1.397   0.966  0.1481  0.4590 -0.4692
 5405TIP3    H137706   4.134   1.416   1.060  2.2327  0.8581 -0.7118
 5405TIP3    H237707   4.086   1.309   0.963 -1.5292  1.0947  0.7155
 5406TIP3   OH237708   6.371   2.275  13.660 -0.5664  0.6290  0.2571
 5406TIP3    H137709   6.457   2.238  13.679 -0.3174  1.6721  1.2525
 5406TIP3    H237710   6.340   2.225  13.585 -0.1929 -1.4867  1.4528
 5407TIP3   OH237711   1.635   5.322  14.810 -0.1651 -0.4250 -0.0838
 5407TIP3    H137712   1.593   5.361  14.733 -0.7381 -0.2881  0.2922
 5407TIP3    H237713   1.610   5.379  14.883 -1.5636 -1.8110  0.5908
 5408TIP3   OH237714   1.335   5.599  15.894  0.0225 -0.5235 -0.0199
 5408TIP3    H137715   1.278   5.525  15.870 -0.7671  0.7131 -2.2643
 5408TIP3    H237716   1.420   5.577  15.856 -0.4820  0.1213 -1.6149
 5409TIP3   OH237717   0.773   2.185   5.835  0.2270  0.1713 -0.1000
 5409TIP3    H137718   0.728   2.181   5.919 -0.0360 -1.1215 -0.2905
 5409TIP3    H237719   0.708   2.157   5.771  0.5979  0.5929 -0.6761
 5410TIP3   OH237720   6.073   5.629   4.368  0.2037 -0.0016  0.5427
 5410TIP3    H137721   6.160   5.624   4.328  0.7157  0.0002  1.6249
 5410TIP3    H237722   6.081   5.697   4.434 -1.0910  1.1616 -0.4292
 5411TIP3   OH237723   2.829   0.618  15.819 -0.1124  0.2093  0.0205
 5411TIP3    H137724   2.809   0.532  15.781  0.2428  0.6335 -1.1756
 5411TIP3    H237725   2.891   0.657  15.758 -0.5301  1.4575  0.3685
 5412TIP3   OH237726   1.628   1.396  14.610 -0.3346 -0.0224 -0.2636
 5412TIP3    H137727   1.543   1.435  14.629 -0.0547 -0.7717  3.1440
 5412TIP3    H237728   1.689   1.469  14.612 -0.6782  0.3326 -1.4678
 5413TIP3   OH237729   4.773   3.483   4.123  0.2568 -0.0429  0.1656
 5413TIP3    H137730   4.795   3.413   4.061  1.4608  0.3000  0.1641
 5413TIP3    H237731   4.753   3.437   4.204  2.3338 -0.4110  0.5446
 5414TIP3   OH237732   1.994   4.445   1.595  0.3530  0.2177  0.1131
 5414TIP3    H137733   1.920   4.495   1.559 -0.0236  0.1468  0.7573
 5414TIP3    H237734   1.974   4.439   1.689 -0.2086 -2.1130 -0.0860
 5415TIP3   OH237735   1.462   3.413  16.304 -0.1853 -0.3187  0.0799
 5415TIP3    H137736   1.496   3.464  16.377 -0.5046 -0.4908  0.3559
 5415TIP3    H237737   1.455   3.474  16.231  0.3969 -0.2097  0.1157
 5416TIP3   OH237738   0.849   5.842   1.836 -0.6203  0.2917 -0.3775
 5416TIP3    H137739   0.915   5.837   1.904 -2.1692 -1.5812  1.0839
 5416TIP3    H237740   0.897   5.830   1.754  0.9871  0.2732  0.5390
 5417TIP3   OH237741   1.548   1.651   5.508  0.1488  0.0832 -0.4541
 5417TIP3    H137742   1.492   1.595   5.561  0.1735  0.4952  0.0132
 5417TIP3    H237743   1.602   1.590   5.456 -2.2005 -0.3759 -2.5566
 5418TIP3   OH237744   2.416   0.783   3.912 -0.1884 -0.5047 -0.5296
 5418TIP3    H137745   2.418   0.877   3.893  0.7703 -0.9002 -2.7055
 5418TIP3    H237746   2.366   0.745   3.839  0.5814 -1.7978 -0.4164
 5419TIP3   OH237747   6.100   0.168  16.917  0.1152 -0.2300 -0.5967
 5419TIP3    H137748   6.178   0.219  16.940 -0.5309 -0.1082  1.4626
 5419TIP3    H237749   6.126   0.077  16.934  0.3873 -0.3867 -1.7276
 5420TIP3   OH237750   5.375   5.944   5.159  0.0603 -0.8209  0.5026
 5420TIP3    H137751   5.424   5.872   5.120  1.6929  0.8282 -0.6213
 5420TIP3    H237752   5.339   5.907   5.240  0.8754 -2.8623 -0.0095
 5421TIP3   OH237753   2.520   6.287   1.035 -0.1914  0.4792 -0.1978
 5421TIP3    H137754   2.478   6.213   0.992  1.4333 -0.2674 -0.5600
 5421TIP3    H237755   2.562   6.249   1.112  2.2686  0.6175 -1.3882
 5422TIP3   OH237756   5.253   1.529  12.084 -0.3269  0.4651  0.2630
 5422TIP3    H137757   5.224   1.481  12.007 -1.1508  0.8030  0.3544
 5422TIP3    H237758   5.342   1.497  12.100  0.7651  1.9539 -2.1325
 5423TIP3   OH237759   5.352   4.377   5.133  0.0515 -0.3683  0.6530
 5423TIP3    H137760   5.444   4.396   5.154  0.3378 -0.3772 -0.5498
 5423TIP3    H237761   5.356   4.302   5.074 -0.4154  1.9306 -2.5833
 5424TIP3   OH237762   3.018   0.977   4.487  0.1306  0.4448 -0.0174
 5424TIP3    H137763   2.987   0.893   4.519 -0.7706 -0.0917 -2.0846
 5424TIP3    H237764   3.111   0.979   4.509 -0.1442 -0.4310  1.3215
 5425TIP3   OH237765   1.585   3.037   4.762 -0.4083  0.5897 -0.0267
 5425TIP3    H137766   1.605   3.050   4.669  2.3659  0.3282  0.4529
 5425TIP3    H237767   1.496   3.071   4.772 -0.9458  0.2341 -2.8407
 5426TIP3   OH237768   2.982   6.304   3.501 -0.3083 -0.0115  0.4049
 5426TIP3    H137769   3.071   6.283   3.529  0.7588  0.9173 -2.0928
 5426TIP3    H237770   2.968   6.393   3.532 -1.0902 -0.7256  2.2841
 5427TIP3   OH237771   2.033   0.929   1.848  0.6253 -0.9358  0.0058
 5427TIP3    H137772   1.970   0.907   1.916  0.0497  0.4637 -0.0333
 5427TIP3    H237773   2.054   1.021   1.863  1.3437 -0.9067 -1.0312
 5428TIP3   OH237774   1.720   1.335   5.920  0.0208  0.3276 -0.3279
 5428TIP3    H137775   1.805   1.363   5.954 -0.1935 -1.1182  1.5375
 5428TIP3    H237776   1.681   1.284   5.991 -1.6084 -0.6299 -1.8301
 5429TIP3   OH237777   1.285   2.322   0.090  0.4724 -0.3607  0.0037
 5429TIP3    H137778   1.323   2.255   0.146 -1.3809 -1.0997  0.4230
 5429TIP3    H237779   1.210   2.356   0.139  1.3594  2.0991 -0.1582
 5430TIP3   OH237780   2.014   6.411  14.490  0.6599 -0.4200  0.7961
 5430TIP3    H137781   2.033   6.438  14.400  1.1390 -0.5093  0.8684
 5430TIP3    H237782   1.937   6.462  14.515  1.1198  0.3393  0.6849
 5431TIP3   OH237783   6.188   1.317  16.251 -0.0070  0.3110  0.1485
 5431TIP3    H137784   6.247   1.352  16.317 -0.3453 -0.5154  0.9104
 5431TIP3    H237785   6.125   1.388  16.235  0.6028  0.8385  0.0415
 5432TIP3   OH237786   5.365   2.794  13.061 -0.1339  0.4581  0.0811
 5432TIP3    H137787   5.350   2.877  13.106 -1.8006  1.0018 -1.3509
 5432TIP3    H237788   5.453   2.801  13.025  0.0460  1.2615  0.6620
 5433TIP3   OH237789   3.334   6.164   3.273 -0.0088 -0.2397  0.0116
 5433TIP3    H137790   3.265   6.169   3.207  0.9298 -0.1298 -0.9922
 5433TIP3    H237791   3.313   6.085   3.324 -0.3777 -0.6992 -0.8396
 5434TIP3   OH237792   0.796   1.843   1.966  0.6987 -0.5264 -0.2071
 5434TIP3    H137793   0.723   1.866   2.024 -0.0393 -1.2660 -0.8045
 5434TIP3    H237794   0.850   1.922   1.962 -1.2978  0.8768 -1.5480
 5435TIP3   OH237795   5.885   2.242  10.886  0.2146  0.2826  0.0866
 5435TIP3    H137796   5.919   2.215  10.801  1.3695 -1.5980  1.0819
 5435TIP3    H237797   5.806   2.292  10.865  1.2271  1.1036 -2.1200
 5436TIP3   OH237798   2.785   1.837  15.832 -0.9289  0.5180 -0.0601
 5436TIP3    H137799   2.863   1.791  15.865 -1.0767 -0.7714 -1.4028
 5436TIP3    H237800   2.766   1.903  15.899  1.8671  1.5347 -0.1533
 5437TIP3   OH237801   3.188   3.257   4.629 -0.0941 -0.3070  0.0355
 5437TIP3    H137802   3.250   3.322   4.661 -2.1097  1.2296  1.0506
 5437TIP3    H237803   3.213   3.176   4.674  0.9253  0.3403  0.6746
 5438TIP3   OH237804   1.396   6.299   0.311 -0.1752 -0.6278  0.4726
 5438TIP3    H137805   1.398   6.204   0.315 -2.5720 -0.7046  1.3191
 5438TIP3    H237806   1.304   6.321   0.295 -0.2668  1.6165  3.3046
 5439TIP3   OH237807   1.673   3.023   2.551 -0.1379  0.1335  0.8228
 5439TIP3    H137808   1.764   3.013   2.524 -0.7920 -1.8436 -0.9576
 5439TIP3    H237809   1.678   3.047   2.644  2.1719  1.1692  0.4958
 5440TIP3   OH237810   6.272   3.775   5.768  0.0619 -0.2745  0.1606
 5440TIP3    H137811   6.361   3.802   5.744  0.0966  1.1218  1.6491
 5440TIP3    H237812   6.220   3.855   5.761 -0.9971 -0.9811 -0.2678
 5441TIP3   OH237813   6.308   0.388  16.438  0.0540 -0.2337  0.4195
 5441TIP3    H137814   6.354   0.306  16.454 -0.0128 -0.3509  0.0344
 5441TIP3    H237815   6.378   0.451  16.420  0.0535 -0.6435 -1.2061
 5442TIP3   OH237816   0.862   2.788  16.156 -0.1444 -0.6889 -0.2824
 5442TIP3    H137817   0.940   2.744  16.190 -1.4207 -2.0752  1.0071
 5442TIP3    H237818   0.869   2.878  16.189  1.9279 -0.1409 -1.9913
 5443TIP3   OH237819   5.775   3.886  14.616  0.1661  0.6902  0.3656
 5443TIP3    H137820   5.725   3.968  14.624 -2.2340 -0.5638 -0.6599
 5443TIP3    H237821   5.769   3.846  14.702 -1.1240  0.3148  0.1222
 5444TIP3   OH237822   1.019   2.674  13.787 -0.8558 -0.1464  0.0424
 5444TIP3    H137823   0.951   2.706  13.728 -0.0941  1.8681  0.2074
 5444TIP3    H237824   1.065   2.607  13.736 -0.5375  1.1838 -1.4857
 5445TIP3   OH237825   1.219   4.007  16.233  0.6182  0.0676 -0.2829
 5445TIP3    H137826   1.208   3.932  16.292 -1.1361  0.1698 -0.4338
 5445TIP3    H237827   1.277   4.066  16.281 -0.6863  0.1128  1.3334
 5446TIP3   OH237828   2.459   4.171   1.159  0.3535 -0.1441 -0.4315
 5446TIP3    H137829   2.482   4.087   1.199  0.0850  0.2158  0.5059
 5446TIP3    H237830   2.497   4.167   1.071  1.3457 -0.7874  0.0056
 5447TIP3   OH237831   3.492   2.692  12.937  0.2786  0.3568  0.0382
 5447TIP3    H137832   3.403   2.660  12.920  0.9562 -1.9733  0.4597
 5447TIP3    H237833   3.542   2.664  12.860  0.4115  2.9967 -0.9207
 5448TIP3   OH237834   6.626   4.091   2.530 -0.2128 -0.7159 -0.0231
 5448TIP3    H137835   6.561   4.110   2.598 -0.3736  1.0858 -0.6379
 5448TIP3    H237836   6.596   4.141   2.453  1.3352 -0.6852 -0.6436
 5449TIP3   OH237837   1.826   4.312   2.042  0.0777 -0.0846 -0.0606
 5449TIP3    H137838   1.742   4.272   2.019 -0.4937  1.4727 -0.8127
 5449TIP3    H237839   1.827   4.395   1.995  1.9030  0.0928  0.2151
 5450TIP3   OH237840   2.368   6.279   0.396 -0.0115  0.2494  0.0050
 5450TIP3    H137841   2.412   6.353   0.438  1.9790 -0.3430 -0.9118
 5450TIP3    H237842   2.355   6.307   0.305 -1.9801  0.5517  0.3240
 5451TIP3   OH237843   4.719   3.600   1.107 -0.4442 -0.6044 -0.1724
 5451TIP3    H137844   4.770   3.600   1.026  1.5785  2.0508  0.9338
 5451TIP3    H237845   4.782   3.578   1.175 -1.7487 -1.2846  0.8572
 5452TIP3   OH237846   4.483   0.443  16.867  0.1387 -0.8031 -0.0848
 5452TIP3    H137847   4.522   0.371  16.818 -1.1357 -0.4385 -1.7320
 5452TIP3    H237848   4.397   0.412  16.893 -1.4530  0.8071 -2.9039
 5453TIP3   OH237849   2.881   3.899  12.571 -0.7331 -0.3711  0.3322
 5453TIP3    H137850   2.807   3.881  12.629 -0.9552 -0.3177  0.0652
 5453TIP3    H237851   2.909   3.987  12.594 -1.3618 -0.0219 -0.2286
 5454TIP3   OH237852   3.276   2.102  12.961  0.5806 -0.1119  0.3979
 5454TIP3    H137853   3.366   2.099  12.995  0.9628 -1.4956 -0.6507
 5454TIP3    H237854   3.231   2.162  13.020  1.7960 -0.6346  1.9433
 5455TIP3   OH237855   4.569   3.904   2.361 -0.2020  0.0121 -0.0428
 5455TIP3    H137856   4.570   3.841   2.290 -2.4479  0.1595 -0.3005
 5455TIP3    H237857   4.652   3.951   2.354  0.5790 -1.4797 -1.1499
 5456TIP3   OH237858   3.824   1.424   1.188 -0.3786 -0.3408 -0.1635
 5456TIP3    H137859   3.789   1.470   1.264  1.3231  1.4902 -0.3848
 5456TIP3    H237860   3.828   1.491   1.119  0.6639 -1.2298 -1.0147
 5457TIP3   OH237861   1.329   4.154  14.772 -0.2584  0.0963  0.0741
 5457TIP3    H137862   1.278   4.119  14.699 -0.2472  1.4032 -0.5850
 5457TIP3    H237863   1.292   4.112  14.849 -1.8281  0.4290 -0.4657
 5458TIP3   OH237864   2.173   1.450  15.194 -1.0989  0.2895  0.0339
 5458TIP3    H137865   2.240   1.412  15.250 -0.3254  3.2576  1.3105
 5458TIP3    H237866   2.117   1.499  15.254 -1.3076  2.1094 -1.5780
 5459TIP3   OH237867   2.152   6.674   2.938  0.1858  0.4703 -0.1425
 5459TIP3    H137868   2.220   6.724   2.983  1.8111 -0.9751 -0.8726
 5459TIP3    H237869   2.070   6.716   2.963  1.3784  2.6702  0.2845
 5460TIP3   OH237870   5.416   1.678  14.568 -0.1807 -0.3453 -0.4103
 5460TIP3    H137871   5.474   1.615  14.610 -0.3429 -1.1449 -1.3795
 5460TIP3    H237872   5.470   1.758  14.560  1.3687 -1.5019 -2.6788
 5461TIP3   OH237873   4.429   4.322  15.088  0.2912  0.6698  0.2638
 5461TIP3    H137874   4.485   4.381  15.139  0.7969  1.0114 -0.6498
 5461TIP3    H237875   4.489   4.255  15.055  0.3647  1.5070 -1.4220
 5462TIP3   OH237876   6.059   1.245   4.355  0.2921 -0.4455 -0.3014
 5462TIP3    H137877   6.099   1.282   4.276 -0.5660 -2.5468 -1.8375
 5462TIP3    H237878   5.965   1.256   4.341  0.1647  1.3375  1.6351
 5463TIP3   OH237879   2.813   3.496  12.818  0.2341 -0.0714  0.0328
 5463TIP3    H137880   2.782   3.551  12.890 -1.1110 -1.8125  0.8730
 5463TIP3    H237881   2.750   3.510  12.748 -0.0909 -0.5013  0.2359
 5464TIP3   OH237882   0.357   4.633   3.508  0.7446 -0.3319  0.1432
 5464TIP3    H137883   0.320   4.666   3.589  1.7709  0.8465  0.1578
 5464TIP3    H237884   0.378   4.711   3.457  0.0615 -1.0548 -1.2986
 5465TIP3   OH237885   5.499   0.621   0.547 -0.0583 -0.2000 -0.8452
 5465TIP3    H137886   5.458   0.707   0.535 -0.1549 -0.1347 -0.0836
 5465TIP3    H237887   5.446   0.562   0.493 -1.7768 -0.2961  0.8173
 5466TIP3   OH237888   6.747   4.475  12.157 -0.0399  0.1589  0.2039
 5466TIP3    H137889   6.725   4.511  12.243 -0.9770 -2.5982  1.1988
 5466TIP3    H237890   6.734   4.549  12.097  2.1803  2.6585  2.4990
 5467TIP3   OH237891   0.181   0.089  14.050  0.1629  0.1529 -0.0976
 5467TIP3    H137892   0.263   0.131  14.026  0.3142 -1.1899 -2.1793
 5467TIP3    H237893   0.113   0.147  14.016  0.2844  0.4428  0.1543
 5468TIP3   OH237894   6.445   4.469   1.893  0.3154  0.5568  0.1921
 5468TIP3    H137895   6.414   4.518   1.816 -1.7218  0.1547  0.7036
 5468TIP3    H237896   6.404   4.512   1.967  0.5381 -0.3799  0.8782
 5469TIP3   OH237897   6.063   1.860   2.655  0.2344 -0.2742  0.5029
 5469TIP3    H137898   6.132   1.794   2.656  1.3977  0.9011  1.7070
 5469TIP3    H237899   6.024   1.856   2.743 -1.1964 -0.8422 -0.1180
 5470TIP3   OH237900   5.932   5.729   5.977 -0.8326  0.1014  0.1969
 5470TIP3    H137901   5.920   5.636   5.994 -0.1981 -0.3150 -1.4083
 5470TIP3    H237902   5.844   5.764   5.972 -1.0972 -0.5566  0.1510
 5471TIP3   OH237903   5.546   4.986   4.442  0.7120  0.3680 -0.0023
 5471TIP3    H137904   5.636   5.014   4.459  0.4190  0.8555  0.8671
 5471TIP3    H237905   5.546   4.892   4.458  0.6373  0.6754  2.1279
 5472TIP3   OH237906   4.781   3.701   5.893 -0.1235 -0.0067 -0.1088
 5472TIP3    H137907   4.719   3.629   5.881 -1.4428  1.0063  0.4773
 5472TIP3    H237908   4.823   3.683   5.977 -0.5740  0.0085  0.1184
 5473TIP3   OH237909   1.891   3.992  13.884 -0.0995 -0.3028  0.5610
 5473TIP3    H137910   1.906   4.070  13.939 -1.3047 -0.9116  1.8191
 5473TIP3    H237911   1.959   3.931  13.911 -0.1413 -0.2740  0.7331
 5474TIP3   OH237912   3.885   6.194  12.185 -0.3171  0.6174  0.4582
 5474TIP3    H137913   3.969   6.230  12.158 -0.2167  0.3588  0.4152
 5474TIP3    H237914   3.902   6.100  12.196 -0.8260  0.4088 -0.4410
 5475TIP3   OH237915   0.398   0.549   1.738  0.3576 -0.1126  0.1601
 5475TIP3    H137916   0.380   0.558   1.645  0.1673  0.9629  0.2869
 5475TIP3    H237917   0.388   0.455   1.756 -0.5066 -0.1958 -0.7085
 5476TIP3   OH237918   0.603   4.140   0.454 -0.1056 -0.6801 -0.2861
 5476TIP3    H137919   0.510   4.129   0.434 -0.6661 -0.2902  1.8318
 5476TIP3    H237920   0.648   4.120   0.372 -1.9384 -2.7077 -0.8789
 5477TIP3   OH237921   1.919   0.615   3.423 -0.3718  0.7102 -0.2822
 5477TIP3    H137922   1.946   0.535   3.470  1.1167  0.5101 -1.4148
 5477TIP3    H237923   1.885   0.672   3.492 -1.7812 -0.9817  0.5333
 5478TIP3   OH237924   1.690   4.514  13.806  0.0045  0.3422  0.5088
 5478TIP3    H137925   1.611   4.460  13.805 -0.7728  1.4282 -0.8291
 5478TIP3    H237926   1.757   4.459  13.847 -1.1148 -1.0817  0.4961
 5479TIP3   OH237927   4.873   4.805   2.816 -0.3941  0.3135  0.0344
 5479TIP3    H137928   4.898   4.854   2.738 -1.7548 -0.0455 -0.6591
 5479TIP3    H237929   4.899   4.715   2.797  0.0694  0.3679  0.3776
 5480TIP3   OH237930   2.779   0.893   4.342 -0.2043  0.5454  0.3876
 5480TIP3    H137931   2.766   0.950   4.417 -2.0069  0.6152  0.0620
 5480TIP3    H237932   2.764   0.949   4.266 -0.4235  0.0078  0.0258
 5481TIP3   OH237933   3.711   4.131   5.622 -0.4408  0.2968  0.6509
 5481TIP3    H137934   3.696   4.041   5.649  1.1333  0.4155  2.1105
 5481TIP3    H237935   3.712   4.181   5.704 -0.6202  1.5363 -0.0696
 5482TIP3   OH237936   4.322   5.874   2.911 -0.7567 -0.1602 -0.0974
 5482TIP3    H137937   4.394   5.827   2.869 -0.3925  0.1051  0.2244
 5482TIP3    H237938   4.363   5.951   2.950 -0.7427 -1.3013  2.3090
 5483TIP3   OH237939   1.004   6.479   3.409  0.1936  0.1249 -0.3058
 5483TIP3    H137940   0.970   6.398   3.449  1.2245 -0.2513 -0.1624
 5483TIP3    H237941   1.027   6.454   3.320  1.8898 -0.1552  0.1654
 5484TIP3   OH237942   1.843   0.974   2.899  0.1696  0.2765 -0.8732
 5484TIP3    H137943   1.794   1.052   2.923  0.9973  0.3841  0.5499
 5484TIP3    H237944   1.935   0.997   2.915  0.2955 -1.7511  2.0324
 5485TIP3   OH237945   5.004   1.878  12.993  0.1483  0.1765 -0.9592
 5485TIP3    H137946   5.053   1.951  12.956  1.6715 -1.3725 -2.1262
 5485TIP3    H237947   5.059   1.801  12.979 -1.4396 -1.2539  0.1171
 5486TIP3   OH237948   0.746   1.397   3.116 -0.5463 -0.1418  0.3884
 5486TIP3    H137949   0.726   1.327   3.178 -1.7007  0.6351  0.9258
 5486TIP3    H237950   0.776   1.469   3.172 -1.2454  0.4431  0.0159
 5487TIP3   OH237951   3.152   1.834   6.136  0.2189 -0.4526 -0.4112
 5487TIP3    H137952   3.064   1.841   6.173  0.4825  1.1100  0.0099
 5487TIP3    H237953   3.198   1.774   6.193  0.1106  0.5837  0.8038
 5488TIP3   OH237954   5.215   3.620   2.711  0.6221 -0.0618  0.9780
 5488TIP3    H137955   5.132   3.619   2.663  1.1322 -0.3255  0.0843
 5488TIP3    H237956   5.218   3.706   2.752  1.1906  1.0725 -1.3069
 5489TIP3   OH237957   4.733   2.912  11.604  0.0181 -0.1426  0.0796
 5489TIP3    H137958   4.712   2.975  11.535  1.6482  0.7766  0.3885
 5489TIP3    H237959   4.764   2.835  11.556  1.4161  0.5910 -0.2565
 5490TIP3   OH237960   1.770   3.758   0.477  0.3755  0.2716 -0.0098
 5490TIP3    H137961   1.816   3.675   0.466  1.6590  1.2714 -3.4234
 5490TIP3    H237962   1.837   3.819   0.505  0.8553  1.2680 -2.9662
 5491TIP3   OH237963   0.095   3.373  14.177  0.0100 -1.0679  0.7282
 5491TIP3    H137964   0.026   3.359  14.112 -1.1016 -0.2768  1.6981
 5491TIP3    H237965   0.172   3.395  14.125 -1.5338  2.4740 -0.3503
 5492TIP3   OH237966   3.230   3.430   4.930 -0.7256 -0.4677  0.5941
 5492TIP3    H137967   3.263   3.341   4.941 -0.9729 -0.5555  0.6268
 5492TIP3    H237968   3.136   3.419   4.913 -0.7398 -0.2194  0.5053
 5493TIP3   OH237969   6.011   4.682   5.032  0.0096 -0.0173 -0.2431
 5493TIP3    H137970   6.070   4.710   4.962  1.7401 -0.3342  1.0207
 5493TIP3    H237971   6.025   4.587   5.038 -3.2818 -0.7905 -2.2179
 5494TIP3   OH237972   2.344   6.727  15.338 -0.4659 -0.1176 -0.3886
 5494TIP3    H137973   2.382   6.801  15.385 -0.9075 -0.5525  0.7102
 5494TIP3    H237974   2.416   6.691  15.286 -0.4297  1.5048 -1.5288
 5495TIP3   OH237975   1.333   3.583   2.218  0.3815 -0.1563 -0.2924
 5495TIP3    H137976   1.349   3.489   2.218  1.0755 -0.0973  2.1853
 5495TIP3    H237977   1.420   3.623   2.216  0.3405  0.3119  2.8254
 5496TIP3   OH237978   2.536   5.076   3.367 -0.6767 -0.7581  0.4026
 5496TIP3    H137979   2.512   4.984   3.353  0.8712 -0.9169 -1.7707
 5496TIP3    H237980   2.454   5.124   3.359 -1.3032 -1.8422  0.0936
 5497TIP3   OH237981   1.617   1.394  10.903 -0.1297  0.0761 -0.1627
 5497TIP3    H137982   1.541   1.339  10.920  0.4585 -0.2240  1.6950
 5497TIP3    H237983   1.692   1.336  10.912  0.3604  0.2032 -2.6803
 5498TIP3   OH237984   3.027   1.407   4.525 -0.0130 -0.4903 -0.2791
 5498TIP3    H137985   3.010   1.377   4.436 -0.5711  1.6558 -0.9558
 5498TIP3    H237986   2.941   1.402   4.568  0.4628 -2.5738  0.5309
 5499TIP3   OH237987   6.407   2.024   0.864  0.0872  0.1412  0.1041
 5499TIP3    H137988   6.400   2.119   0.864  1.5741  0.2807  0.1331
 5499TIP3    H237989   6.398   1.999   0.956 -1.1962  0.1597 -0.0076
 5500TIP3   OH237990   3.047   2.512   0.977 -0.2767  0.2588 -0.2519
 5500TIP3    H137991   3.025   2.421   0.957 -1.3616  0.2420  0.8710
 5500TIP3    H237992   3.142   2.513   0.981 -0.2757 -1.0827  0.8057
 5501TIP3   OH237993   1.601   5.888   5.187  0.2598  0.1135 -0.4550
 5501TIP3    H137994   1.583   5.957   5.123  0.5667  0.5663 -0.0593
 5501TIP3    H237995   1.635   5.935   5.263 -1.2230 -0.2850  0.4973
 5502TIP3   OH237996   1.830   3.011   4.883 -0.3688  0.1269 -0.1827
 5502TIP3    H137997   1.875   2.935   4.845  0.8195  0.3787  0.6515
 5502TIP3    H237998   1.746   3.013   4.839  0.5449 -0.1842 -2.0572
 5503TIP3   OH237999   0.972   1.293  11.981  0.0160 -0.5699  0.2969
 5503TIP3    H138000   1.026   1.333  12.049 -1.4147 -0.3343  1.3398
 5503TIP3    H238001   1.031   1.282  11.907  1.5536 -0.6161  1.4894
 5504TIP3   OH238002   2.986   6.386  13.434 -0.1986  0.0814  1.2386
 5504TIP3    H138003   2.982   6.292  13.417 -0.0099 -0.1878  2.6199
 5504TIP3    H238004   3.037   6.421  13.360 -2.0782 -0.5609 -0.4556
 5505TIP3   OH238005   3.984   5.601  16.299  0.4593  0.0564 -0.0670
 5505TIP3    H138006   3.957   5.687  16.331  0.0828  0.4029 -1.2752
 5505TIP3    H238007   4.015   5.555  16.377  1.0365  1.4232  0.5253
 5506TIP3   OH238008   0.355   4.652   0.265  0.4207  0.1513  0.7014
 5506TIP3    H138009   0.435   4.621   0.224 -0.6516  0.0167 -1.4454
 5506TIP3    H238010   0.382   4.681   0.351  2.4674 -1.4503  0.6842
 5507TIP3   OH238011   0.845   3.157  12.239 -0.5519 -0.1782 -0.3626
 5507TIP3    H138012   0.793   3.222  12.192  1.2157  1.7183  0.1432
 5507TIP3    H238013   0.915   3.132  12.179  0.2824  0.3914  0.3371
 5508TIP3   OH238014   1.909   0.935   2.086 -0.5748 -0.0027 -0.0494
 5508TIP3    H138015   1.877   0.875   2.154  2.8196 -1.2551  0.6592
 5508TIP3    H238016   1.887   1.022   2.118 -2.0005 -0.6963  0.9542
 5509TIP3   OH238017   0.604   5.866   1.349  0.9056  0.2358  0.0967
 5509TIP3    H138018   0.527   5.855   1.404  1.4459  0.7206  0.9747
 5509TIP3    H238019   0.628   5.777   1.324 -0.2297  0.1174 -0.6096
 5510TIP3   OH238020   5.561   6.422  16.947  0.3226  0.1169  0.1924
 5510TIP3    H138021   5.607   6.342  16.972 -2.9830 -2.2576 -0.5833
 5510TIP3    H238022   5.570   6.427  16.851  1.1427  1.1643  0.3028
 5511TIP3   OH238023   1.282   2.086  13.679 -0.2462  0.0361 -1.0294
 5511TIP3    H138024   1.365   2.129  13.697 -0.2685  0.2756 -1.5071
 5511TIP3    H238025   1.255   2.049  13.764 -0.5018  1.4271 -0.4801
 5512TIP3   OH238026   4.089   5.314  12.096 -0.4554  0.3268  0.2639
 5512TIP3    H138027   4.029   5.337  12.025 -1.5072  0.9639  1.3178
 5512TIP3    H238028   4.155   5.384  12.095  0.1240 -0.2145 -0.7105
 5513TIP3   OH238029   2.199   2.133  11.852 -0.1110  0.1633  0.0332
 5513TIP3    H138030   2.226   2.047  11.883  0.8905 -0.4045 -2.1863
 5513TIP3    H238031   2.150   2.115  11.772 -1.1692  1.6030  0.3199
 5514TIP3   OH238032   3.065   3.037  14.616 -0.2547  0.4916 -0.0653
 5514TIP3    H138033   3.151   3.072  14.593 -0.5073  1.6657  0.7138
 5514TIP3    H238034   3.019   3.029  14.532  1.1089 -1.6128 -0.6858
 5515TIP3   OH238035   3.199   2.257   1.156  0.2249  0.2044 -0.1262
 5515TIP3    H138036   3.133   2.249   1.088  0.2101 -0.0866 -0.0783
 5515TIP3    H238037   3.270   2.199   1.127  1.0935  1.6306 -0.9277
 5516TIP3   OH238038   6.589   6.776  11.828  0.5505 -0.0342  0.3268
 5516TIP3    H138039   6.509   6.785  11.879  2.2885  1.7111  2.9641
 5516TIP3    H238040   6.615   6.685  11.840  0.7199  0.2398  2.3510
 5517TIP3   OH238041   6.355   1.184  15.605  0.3393 -0.9304  0.1292
 5517TIP3    H138042   6.274   1.176  15.654  0.0855 -1.1626 -0.3252
 5517TIP3    H238043   6.384   1.094  15.590  0.7493 -0.8464  0.4021
 5518TIP3   OH238044   0.355   6.411  14.761 -0.1801  0.1808  0.1683
 5518TIP3    H138045   0.372   6.505  14.753 -0.1331  0.0991 -0.7964
 5518TIP3    H238046   0.264   6.406  14.790 -0.5375  0.5210 -0.8398
 5519TIP3   OH238047   3.195   4.432  13.856  0.0784  0.4180 -0.2537
 5519TIP3    H138048   3.159   4.380  13.784  0.2625 -2.2677  1.4794
 5519TIP3    H238049   3.154   4.397  13.935  2.3328  0.9666  1.2767
 5520TIP3   OH238050   1.549   6.490  11.503 -0.9617  0.0653 -0.1846
 5520TIP3    H138051   1.561   6.576  11.542 -0.3601  0.3848 -1.0377
 5520TIP3    H238052   1.472   6.500  11.446 -0.4372  0.2515 -0.8633
 5521TIP3   OH238053   6.187   5.714   1.937 -0.3919 -0.3484  0.0800
 5521TIP3    H138054   6.142   5.779   1.883  1.4943  0.2171 -0.8745
 5521TIP3    H238055   6.116   5.662   1.975 -1.8699  0.9432 -0.7903
 5522TIP3   OH238056   4.916   5.473   3.044  0.4168  0.1236  0.1295
 5522TIP3    H138057   4.953   5.530   3.112  0.5507  0.1242  0.0555
 5522TIP3    H238058   4.895   5.391   3.090  3.1775 -0.9660 -0.3771
 5523TIP3   OH238059   6.508   3.931   4.288  0.1886 -0.4898  0.1885
 5523TIP3    H138060   6.423   3.925   4.332  0.1186 -3.0737 -0.1818
 5523TIP3    H238061   6.553   3.850   4.311  1.9306  0.1167 -0.9200
 5524TIP3   OH238062   4.361   3.871   4.547 -0.9273  0.2378 -0.5352
 5524TIP3    H138063   4.324   3.857   4.460  0.7657  0.1667 -1.2802
 5524TIP3    H238064   4.415   3.950   4.538  0.7985 -0.8291 -0.1080
 5525TIP3   OH238065   2.599   1.923  11.313 -0.1575  0.0676  0.1585
 5525TIP3    H138066   2.622   1.883  11.229 -2.4837  1.3285 -1.1964
 5525TIP3    H238067   2.617   1.855  11.378  1.0033 -1.2136 -1.4341
 5526TIP3   OH238068   1.783   6.358   3.565  0.2632 -0.1724 -0.1940
 5526TIP3    H138069   1.742   6.402   3.491  1.4146 -0.4007 -0.9929
 5526TIP3    H238070   1.710   6.326   3.617 -0.6183  2.2708  0.2084
 5527TIP3   OH238071   3.262   5.692   1.817 -0.6905  0.4706 -0.1701
 5527TIP3    H138072   3.271   5.599   1.838  0.3594  0.4124 -0.8351
 5527TIP3    H238073   3.202   5.726   1.884 -0.6660 -0.5666  0.3940
 5528TIP3   OH238074   4.998   4.940  13.839 -0.2996 -0.3672  0.0971
 5528TIP3    H138075   5.037   4.982  13.763 -0.8658 -0.3658 -0.1997
 5528TIP3    H238076   4.978   5.011  13.899 -1.5881 -0.1533 -0.5549
 5529TIP3   OH238077   3.175   4.947  13.339  0.4265  0.3169 -0.5465
 5529TIP3    H138078   3.093   4.989  13.365 -1.0999 -3.3536  1.3761
 5529TIP3    H238079   3.241   4.988  13.395 -0.9170  0.4018  1.0876
 5530TIP3   OH238080   1.982   3.299   5.192 -0.1991  0.6131 -0.1979
 5530TIP3    H138081   2.016   3.260   5.272  1.9270  1.8860 -0.4056
 5530TIP3    H238082   1.907   3.244   5.168 -1.4963  0.7006  3.0929
 5531TIP3   OH238083   4.516   2.931  16.997  1.0085 -0.0300  0.3240
 5531TIP3    H138084   4.453   2.973  17.056  1.0214  0.2140  0.1642
 5531TIP3    H238085   4.548   2.856  17.047 -0.3794 -0.9260 -0.1056
 5532TIP3   OH238086   1.114   1.937   1.839  0.6460  0.4828  0.0284
 5532TIP3    H138087   1.088   1.940   1.931 -0.1730 -2.5417 -0.0114
 5532TIP3    H238088   1.103   2.027   1.808  2.7568  2.0448  3.2887
 5533TIP3   OH238089   5.080   1.193   5.396 -0.7444  0.4976 -0.3289
 5533TIP3    H138090   5.049   1.283   5.391  0.8298  1.1587  1.2574
 5533TIP3    H238091   5.004   1.143   5.426 -1.0824  1.6262  0.7460
 5534TIP3   OH238092   5.063   2.361  15.498  0.4199 -0.3033  0.0430
 5534TIP3    H138093   5.025   2.435  15.450 -0.4795 -0.6566  0.1949
 5534TIP3    H238094   5.152   2.389  15.519  0.8861 -0.1734 -1.9130
 5535TIP3   OH238095   0.328   3.621   5.073 -0.3768 -0.0905  0.8374
 5535TIP3    H138096   0.335   3.699   5.128 -0.4416 -0.0636  0.8079
 5535TIP3    H238097   0.404   3.625   5.016 -0.4662  0.0364  0.7260
 5536TIP3   OH238098   4.676   0.223   6.011  0.1366 -0.5040  0.1421
 5536TIP3    H138099   4.610   0.161   5.981  0.7135 -1.9473  1.7032
 5536TIP3    H238100   4.758   0.192   5.973 -0.0039  1.3396 -1.8744
 5537TIP3   OH238101   6.825   4.107   3.526 -0.0280  0.4154 -0.0505
 5537TIP3    H138102   6.902   4.155   3.557 -0.5162  1.1013  0.1154
 5537TIP3    H238103   6.775   4.088   3.606 -0.0713  0.0304 -0.1654
 5538TIP3   OH238104   5.083   3.170  14.126  0.0440  0.1146 -0.2131
 5538TIP3    H138105   5.147   3.224  14.171 -0.4025 -0.0111  0.5895
 5538TIP3    H238106   4.999   3.215  14.139 -0.1949 -0.2880 -0.3183
 5539TIP3   OH238107   1.834   5.804   2.159  0.1660  0.8238  0.1702
 5539TIP3    H138108   1.887   5.854   2.097  1.0157  0.2837  0.4437
 5539TIP3    H238109   1.887   5.726   2.180 -1.6279 -0.8769 -1.2209
 5540TIP3   OH238110   6.258   1.818  14.160 -0.5231 -0.2126  0.1390
 5540TIP3    H138111   6.171   1.844  14.190 -0.9460 -0.7182 -0.6069
 5540TIP3    H238112   6.319   1.863  14.219 -1.2847  0.3404  0.5143
 5541TIP3   OH238113   1.675   3.987  16.912 -0.1185  0.5732  0.3268
 5541TIP3    H138114   1.695   3.967  17.004 -1.2808  2.4967  1.0464
 5541TIP3    H238115   1.738   3.934  16.862  0.4617 -0.6105  2.2050
 5542TIP3   OH238116   0.486   2.766   6.158 -0.0040 -0.2338 -0.0605
 5542TIP3    H138117   0.471   2.780   6.252 -1.2734  1.4481 -0.4724
 5542TIP3    H238118   0.447   2.842   6.116  0.7212 -0.8647 -1.9663
 5543TIP3   OH238119   4.101   1.495  12.575 -0.2964  0.1465  0.5576
 5543TIP3    H138120   4.033   1.472  12.511 -0.0957 -0.7963  0.6719
 5543TIP3    H238121   4.103   1.591  12.575 -1.5027  0.1844  0.4163
 5544TIP3   OH238122   5.077   5.527  11.858  0.0692 -0.3290 -0.6809
 5544TIP3    H138123   5.094   5.561  11.945  1.0474 -1.2830 -0.4721
 5544TIP3    H238124   5.030   5.597  11.813 -1.5467 -0.2745  0.9797
 5545TIP3   OH238125   1.585   3.679  13.457  0.0316  0.0420 -0.8894
 5545TIP3    H138126   1.511   3.708  13.403  0.0821  0.5653 -0.6796
 5545TIP3    H238127   1.546   3.663  13.543 -0.1449 -1.2671 -1.1873
 5546TIP3   OH238128   6.160   0.571  16.647  0.5554  0.1276  0.2195
 5546TIP3    H138129   6.095   0.631  16.610  0.6560 -0.5148 -1.0432
 5546TIP3    H238130   6.242   0.596  16.605  0.8217 -0.1361  0.5748
 5547TIP3   OH238131   0.766   6.641  16.059 -0.1202  0.4647 -0.2566
 5547TIP3    H138132   0.673   6.643  16.080 -0.5012 -0.8088 -1.7024
 5547TIP3    H238133   0.778   6.711  15.994 -0.2715 -0.0312 -0.8218
 5548TIP3   OH238134   4.500   5.864   4.805 -0.0884 -0.2934 -0.2605
 5548TIP3    H138135   4.429   5.893   4.748 -0.0583  2.7848  1.0612
 5548TIP3    H238136   4.489   5.915   4.885  2.7329 -0.8296  0.5835
 5549TIP3   OH238137   3.636   4.039   4.731 -0.2170  0.1051  0.2551
 5549TIP3    H138138   3.659   3.946   4.728  0.1040  0.1265  1.3347
 5549TIP3    H238139   3.720   4.084   4.718 -0.3058  0.2354  0.1371
 5550TIP3   OH238140   6.737   6.461  13.822 -0.0921 -0.0266 -0.0927
 5550TIP3    H138141   6.673   6.518  13.864 -0.7195 -0.1495 -0.8653
 5550TIP3    H238142   6.691   6.424  13.747  0.6127 -0.8003 -0.1602
 5551TIP3   OH238143   0.195   4.017  15.959 -0.8011 -0.2800  0.2531
 5551TIP3    H138144   0.149   3.939  15.930  0.8987 -1.3115  0.2237
 5551TIP3    H238145   0.239   3.991  16.040 -1.9190  1.2868  1.4258
 5552TIP3   OH238146   3.877   2.002  12.887  0.9471  0.5236 -0.0447
 5552TIP3    H138147   3.888   1.985  12.981  0.5207 -0.2470 -0.1228
 5552TIP3    H238148   3.889   1.916  12.846 -2.0715  0.1644 -0.4096
 5553TIP3   OH238149   3.025   6.136   2.558  0.1835  0.4656 -0.3113
 5553TIP3    H138150   3.063   6.080   2.626 -0.3538 -0.4120 -0.7245
 5553TIP3    H238151   3.058   6.101   2.476  1.2481  1.8415 -0.5189
 5554TIP3   OH238152   3.566   5.950   0.852 -0.2832 -0.0378 -0.0407
 5554TIP3    H138153   3.539   5.867   0.892 -1.4739  0.9827  1.4109
 5554TIP3    H238154   3.586   5.928   0.762 -1.3904 -1.7781  0.0942
 5555TIP3   OH238155   0.844   5.589   1.008  0.0878 -0.0942  0.1546
 5555TIP3    H138156   0.921   5.646   1.009  0.4716 -0.5819 -0.5965
 5555TIP3    H238157   0.848   5.541   1.091  0.7241 -0.2886  0.0104
 5556TIP3   OH238158   6.753   4.761   6.135  0.5498  0.4205  0.5580
 5556TIP3    H138159   6.838   4.723   6.158  0.5805  0.1243 -0.0203
 5556TIP3    H238160   6.709   4.776   6.219  0.4987 -0.9862  0.8090
 5557TIP3   OH238161   1.433   5.855  12.145  0.1017  0.2844  0.1620
 5557TIP3    H138162   1.418   5.942  12.109 -2.1124 -0.3305 -0.5856
 5557TIP3    H238163   1.399   5.859  12.234  0.1439  0.2161  0.1817
 5558TIP3   OH238164   3.236   4.333  16.900 -0.1612  0.0715 -0.4092
 5558TIP3    H138165   3.283   4.320  16.982 -0.4979 -0.8224 -0.3478
 5558TIP3    H238166   3.299   4.309  16.832  0.2240  1.1212 -0.4391
 5559TIP3   OH238167   4.083   0.681  17.159 -0.2813  0.5346  0.0717
 5559TIP3    H138168   4.153   0.664  17.096 -1.1117  1.0127 -1.0080
 5559TIP3    H238169   4.104   0.624  17.233  0.1780 -0.7897 -1.0370
 5560TIP3   OH238170   0.017   4.237   0.783 -0.1370  0.2623 -0.1846
 5560TIP3    H138171  -0.066   4.189   0.787 -0.1898  0.0323 -2.5700
 5560TIP3    H238172   0.043   4.231   0.692  1.5480  2.0030  0.1280
 5561TIP3   OH238173   1.502   3.239  11.470  0.1898 -0.0354 -0.7773
 5561TIP3    H138174   1.531   3.154  11.438 -0.5532  0.2096 -2.1908
 5561TIP3    H238175   1.509   3.297  11.394  0.2799  1.0638  0.0493
 5562TIP3   OH238176   5.620   6.328   6.266  0.4884  0.6875  0.1631
 5562TIP3    H138177   5.595   6.236   6.270  0.1625  0.8139  1.5028
 5562TIP3    H238178   5.538   6.375   6.249  1.0431  0.5846 -3.4560
 5563TIP3   OH238179   6.201   1.197  13.807  0.8092  0.1350  0.4787
 5563TIP3    H138180   6.157   1.115  13.830 -0.1837  0.8274  1.0813
 5563TIP3    H238181   6.150   1.265  13.851 -0.3530  1.4203 -2.6050
 5564TIP3   OH238182   1.476   2.821  13.359  0.0978  0.7901 -0.7376
 5564TIP3    H138183   1.517   2.736  13.375  1.3354  1.5943  0.5139
 5564TIP3    H238184   1.401   2.801  13.303  0.4633 -1.0957 -0.6052
 5565TIP3   OH238185   2.778   5.841   4.345 -0.2881  0.6164  0.1706
 5565TIP3    H138186   2.718   5.766   4.343 -0.8925  1.0831  0.7782
 5565TIP3    H238187   2.864   5.802   4.327 -0.8474  0.0390 -1.5070
 5566TIP3   OH238188   1.593   0.201  15.823 -0.8256  0.0068  0.1056
 5566TIP3    H138189   1.512   0.198  15.772 -1.6963  0.5663  1.3985
 5566TIP3    H238190   1.596   0.117  15.869 -1.2058  0.3740  0.8203
 5567TIP3   OH238191   4.209   4.921  13.588  0.3298  0.4505 -0.3212
 5567TIP3    H138192   4.277   4.987  13.571  0.5126  0.7651  1.4565
 5567TIP3    H238193   4.201   4.919  13.683 -1.4622 -0.3073 -0.4497
 5568TIP3   OH238194   3.156   3.730   2.408  0.2020 -0.1424 -0.1192
 5568TIP3    H138195   3.113   3.751   2.325 -0.2136 -0.1782  0.0839
 5568TIP3    H238196   3.115   3.648   2.435  0.1677 -0.0067  0.2409
 5569TIP3   OH238197   6.664   0.845   1.950 -0.1490  0.1465  0.0085
 5569TIP3    H138198   6.759   0.853   1.956 -0.1251 -0.1881  0.1019
 5569TIP3    H238199   6.649   0.773   1.890 -0.3420  0.0230  0.2032
 5570TIP3   OH238200   1.899   3.617   6.118 -0.3305 -0.2171 -0.4587
 5570TIP3    H138201   1.947   3.698   6.101 -2.7126  1.5701  0.6780
 5570TIP3    H238202   1.962   3.560   6.162  0.8911  1.7917  0.5041
 5571TIP3   OH238203   5.346   4.697   5.039 -0.2742  0.4196 -0.3827
 5571TIP3    H138204   5.378   4.758   5.106 -0.2597 -0.2002  0.1909
 5571TIP3    H238205   5.268   4.658   5.078  0.3727 -0.7891 -0.2356
 5572TIP3   OH238206   4.759   2.259  14.352  0.5269  0.2546 -0.4222
 5572TIP3    H138207   4.842   2.243  14.396  0.5298  1.8939  0.2058
 5572TIP3    H238208   4.753   2.188  14.287  1.0607 -1.5448  1.3920
 5573TIP3   OH238209   1.593   1.094   0.105 -0.3358 -0.3247 -0.5973
 5573TIP3    H138210   1.539   1.065   0.031 -1.6007 -0.3827  0.3176
 5573TIP3    H238211   1.562   1.042   0.179 -0.2862  0.9274  0.3370
 5574TIP3   OH238212   4.606   0.473   2.307  0.4705  0.3569  0.1337
 5574TIP3    H138213   4.559   0.494   2.388  1.1138  1.2885  0.2885
 5574TIP3    H238214   4.616   0.378   2.309 -1.6961  0.0801 -0.0867
 5575TIP3   OH238215   4.347   0.452   1.717  0.1331 -0.4235  0.0917
 5575TIP3    H138216   4.403   0.454   1.795 -0.7362  1.0571  0.7118
 5575TIP3    H238217   4.309   0.364   1.717  1.1292 -0.8730  0.5963
 5576TIP3   OH238218   4.117   2.209   0.661  0.1622 -0.1375  0.8716
 5576TIP3    H138219   4.150   2.262   0.733  2.1281 -0.3076  0.1630
 5576TIP3    H238220   4.189   2.150   0.639 -0.5651 -0.4526 -0.8721
 5577TIP3   OH238221   3.933   1.024   3.278 -0.2534  0.3142 -0.9782
 5577TIP3    H138222   4.023   1.028   3.245  0.0724  0.6333 -0.0999
 5577TIP3    H238223   3.940   1.056   3.368 -1.1794 -0.0920 -0.7536
 5578TIP3   OH238224   2.582   6.119   0.259  0.3199 -0.2795  0.0897
 5578TIP3    H138225   2.585   6.136   0.165  1.4567 -0.9074 -0.0077
 5578TIP3    H238226   2.657   6.168   0.294  2.6365 -3.4734  0.0344
 5579TIP3   OH238227   3.241   1.207  13.319 -0.1997  0.1904  0.8018
 5579TIP3    H138228   3.311   1.152  13.284  0.9651  1.1153  1.5787
 5579TIP3    H238229   3.174   1.145  13.349  0.4201 -0.7310  0.3062
 5580TIP3   OH238230   1.200   5.861  13.397  0.3953 -0.1565  0.0524
 5580TIP3    H138231   1.269   5.838  13.459 -0.2935  0.5715  1.1284
 5580TIP3    H238232   1.239   5.928  13.341  0.0351  1.6735  1.8648
 5581TIP3   OH238233   4.780   2.594  15.174 -0.1426  0.5068 -0.4237
 5581TIP3    H138234   4.718   2.614  15.104  1.8626 -0.5462 -2.6369
 5581TIP3    H238235   4.733   2.533  15.231 -1.2181 -0.1166 -1.9194
 5582TIP3   OH238236   0.567   6.411  13.570 -0.4566 -0.2958  0.5344
 5582TIP3    H138237   0.546   6.324  13.535  2.2545 -1.1758  0.8973
 5582TIP3    H238238   0.513   6.470  13.518 -1.0452 -2.0502 -0.9821
 5583TIP3   OH238239   5.250   0.998   5.246 -0.0744  0.3113 -0.1100
 5583TIP3    H138240   5.187   1.047   5.297  0.3342  0.8603 -0.1198
 5583TIP3    H238241   5.239   1.031   5.156 -0.3442 -0.1833 -0.2614
 5584TIP3   OH238242   6.647   2.283   2.075  0.1638  0.4932  0.3035
 5584TIP3    H138243   6.721   2.343   2.068  0.5855 -0.1202 -0.6324
 5584TIP3    H238244   6.672   2.224   2.147  0.8452 -0.0452 -0.3551
 5585TIP3   OH238245   4.289   0.133  10.901  0.3617 -0.7011 -0.0910
 5585TIP3    H138246   4.219   0.112  10.962  0.2644  0.3400  0.1821
 5585TIP3    H238247   4.317   0.049  10.865 -1.6430 -1.0670 -0.9014
 5586TIP3   OH238248   1.339   5.139  11.184 -0.9908 -0.2220 -0.3833
 5586TIP3    H138249   1.399   5.213  11.196  0.7619 -1.6992  0.4815
 5586TIP3    H238250   1.366   5.099  11.101  1.8433 -3.0177  1.6417
 5587TIP3   OH238251   0.560   5.176   3.766 -0.1490 -0.6614 -0.5447
 5587TIP3    H138252   0.519   5.131   3.839  0.3047 -0.8097 -0.3740
 5587TIP3    H238253   0.530   5.267   3.773  1.4533 -0.1870  1.0527
 5588TIP3   OH238254   1.744   3.616  17.145  0.6386 -0.1920  0.2785
 5588TIP3    H138255   1.684   3.689  17.161  0.5503 -0.5738  1.8460
 5588TIP3    H238256   1.690   3.549  17.104 -0.2722 -0.8358  2.3838
 5589TIP3   OH238257   4.494   6.316  11.643  0.0373  0.4542 -0.5078
 5589TIP3    H138258   4.506   6.232  11.687  0.6791  0.4853 -0.6044
 5589TIP3    H238259   4.410   6.308  11.598 -0.4022  0.2498  0.3226
 5590TIP3   OH238260   1.240   5.024   3.464  0.4550  0.0072  0.2213
 5590TIP3    H138261   1.206   5.113   3.474  3.0388  0.9506  1.6101
 5590TIP3    H238262   1.307   5.032   3.395  1.7874 -0.4654  1.4180
 5591TIP3   OH238263   6.675   5.144   3.009  0.0258  0.4227 -0.4776
 5591TIP3    H138264   6.686   5.223   2.956  0.8494  0.1526 -0.7272
 5591TIP3    H238265   6.659   5.075   2.945  1.2433  0.0538 -0.4087
 5592TIP3   OH238266   4.926   0.366   5.276  0.4623 -0.1573  0.2061
 5592TIP3    H138267   4.920   0.455   5.311  0.6912 -0.1346  0.1856
 5592TIP3    H238268   4.988   0.373   5.204 -1.0027  0.0820 -1.0969
 5593TIP3   OH238269   2.678   5.853  16.507  0.5082 -0.3770  0.0470
 5593TIP3    H138270   2.704   5.863  16.415 -0.7076 -2.2320 -0.5630
 5593TIP3    H238271   2.595   5.900  16.513  0.5488 -0.3226  0.1846
 5594TIP3   OH238272   2.609   6.380   1.290  0.4099 -0.0547  0.1615
 5594TIP3    H138273   2.569   6.439   1.353 -0.7494 -0.5646 -0.0817
 5594TIP3    H238274   2.594   6.422   1.205  0.5764 -0.1483  0.0853
 5595TIP3   OH238275   6.454   2.014   2.561 -0.3103  0.3741 -0.8650
 5595TIP3    H138276   6.442   1.999   2.655  1.4251  1.1597 -0.4878
 5595TIP3    H238277   6.375   2.062   2.535  0.8154  3.5541  1.0384
 5596TIP3   OH238278   0.757   5.656   0.355 -0.1186 -0.6403 -0.2087
 5596TIP3    H138279   0.664   5.637   0.344 -0.6251  0.5272  1.5548
 5596TIP3    H238280   0.801   5.572   0.342 -1.7153 -1.8650  1.6973
 5597TIP3   OH238281   2.207   4.076   0.820 -0.4860  0.4722 -0.1365
 5597TIP3    H138282   2.213   4.171   0.830  3.3793  0.1805  2.2394
 5597TIP3    H238283   2.172   4.044   0.903 -1.1295 -0.2926 -0.6718
 5598TIP3   OH238284   1.643   5.963  13.200 -0.2434 -0.0331  0.0492
 5598TIP3    H138285   1.598   5.889  13.160 -0.3438 -0.2795  0.6081
 5598TIP3    H238286   1.700   5.997  13.131  1.1273 -1.6953  0.2980
 5599TIP3   OH238287   3.152   4.337   2.447  0.3353 -0.7191 -0.0936
 5599TIP3    H138288   3.133   4.259   2.394 -1.5487 -0.2299 -0.2144
 5599TIP3    H238289   3.247   4.347   2.442  0.6557 -3.0483 -0.0044
 5600TIP3   OH238290   3.891   4.176   4.473  0.1522  0.2868  0.4491
 5600TIP3    H138291   3.839   4.139   4.401  0.6626  3.1417 -1.5207
 5600TIP3    H238292   3.932   4.099   4.514 -0.4332 -1.5117 -2.0604
 5601TIP3   OH238293   0.076   0.114   1.552  0.2666 -0.2714 -0.3811
 5601TIP3    H138294   0.090   0.208   1.560  0.6210 -0.1703 -1.8083
 5601TIP3    H238295   0.002   0.095   1.610 -2.0398  1.5009 -2.5142
 5602TIP3   OH238296   5.540   4.340  17.058  0.1667  0.4458 -0.8569
 5602TIP3    H138297   5.503   4.396  17.126  0.9465  1.4700 -1.2514
 5602TIP3    H238298   5.634   4.357  17.062  0.2510  0.2874 -1.9826
 5603TIP3   OH238299   3.339   3.531   1.905  0.0222 -0.0211 -0.8341
 5603TIP3    H138300   3.350   3.442   1.872  1.5171 -0.0856 -0.2414
 5603TIP3    H238301   3.377   3.529   1.993  0.1102  1.2091 -0.8255
 5604TIP3   OH238302   5.091   6.702  12.705 -0.1755  0.0708  0.9833
 5604TIP3    H138303   5.047   6.628  12.663 -0.4791 -0.1695  1.7004
 5604TIP3    H238304   5.028   6.774  12.700  0.1762  0.3391  0.1546
 5605TIP3   OH238305   5.217   3.032  13.097 -0.1578  0.0916  0.2257
 5605TIP3    H138306   5.274   3.085  13.042 -1.2546 -0.3210 -1.3634
 5605TIP3    H238307   5.170   3.095  13.152 -2.2071  0.9829 -2.3419
 5606TIP3   OH238308   5.144   2.584  16.386 -0.5684 -0.2728 -0.3182
 5606TIP3    H138309   5.145   2.603  16.480  0.6173 -1.3372 -0.0929
 5606TIP3    H238310   5.062   2.622  16.355 -1.4237 -0.7053  1.3112
 5607TIP3   OH238311   2.625   2.757   3.792  0.7809 -0.3196  0.5596
 5607TIP3    H138312   2.563   2.830   3.781  1.1040 -0.2536 -0.9491
 5607TIP3    H238313   2.575   2.679   3.769  1.0656 -0.3369 -0.0031
 5608TIP3   OH238314   1.682   0.951   5.306  0.0771 -0.4378  0.2596
 5608TIP3    H138315   1.698   1.045   5.304 -0.1461 -0.4050  0.0117
 5608TIP3    H238316   1.643   0.931   5.221  0.2495 -0.7761  0.2584
 5609TIP3   OH238317   1.468   1.799  13.562 -0.2024 -0.0863 -0.5561
 5609TIP3    H138318   1.498   1.851  13.637 -1.1438  2.5248 -1.8636
 5609TIP3    H238319   1.508   1.841  13.486 -0.4527 -1.7558 -1.6512
 5610TIP3   OH238320   6.590   1.715   2.454 -0.4660  0.1172 -0.8564
 5610TIP3    H138321   6.577   1.771   2.531 -0.3004 -1.5318  0.4268
 5610TIP3    H238322   6.650   1.765   2.398 -1.2425  1.7133 -0.3374
 5611TIP3   OH238323   0.352   4.771   4.279  0.6396 -0.5954  0.2650
 5611TIP3    H138324   0.400   4.853   4.285 -0.8909  0.3218  0.2674
 5611TIP3    H238325   0.389   4.716   4.349  2.4816 -0.3714 -0.4916
 5612TIP3   OH238326   5.243   5.545   6.296 -0.1102  0.0132 -0.1661
 5612TIP3    H138327   5.168   5.497   6.331 -0.9834  2.3102  1.3442
 5612TIP3    H238328   5.207   5.599   6.226 -0.0697  1.5984  0.9779
 5613TIP3   OH238329   5.218   4.788   3.155  0.5968 -0.3955 -0.3794
 5613TIP3    H138330   5.203   4.694   3.154 -1.1165 -0.2552  2.1338
 5613TIP3    H238331   5.198   4.814   3.245  1.5125  2.3101 -0.8656
 5614TIP3   OH238332   3.269   5.455   1.251 -0.1195 -0.7258 -0.1072
 5614TIP3    H138333   3.300   5.471   1.340  0.7611 -0.9820 -0.3483
 5614TIP3    H238334   3.175   5.473   1.254  0.2288  1.2562  0.3890
 5615TIP3   OH238335   2.816   2.446  12.105 -0.1478 -0.4287 -0.1834
 5615TIP3    H138336   2.755   2.384  12.065  0.4348 -0.2398 -1.4545
 5615TIP3    H238337   2.874   2.391  12.159  1.1124 -1.2434 -2.2163
 5616TIP3   OH238338   3.088   2.711   5.555 -0.0703  0.3657  0.3075
 5616TIP3    H138339   3.158   2.658   5.517 -1.0768 -0.3441 -0.6167
 5616TIP3    H238340   3.091   2.692   5.649 -0.0294 -0.8574  0.0639
 5617TIP3   OH238341   2.890   2.323  14.666  0.0407  0.2348  0.2652
 5617TIP3    H138342   2.831   2.329  14.592 -0.2007 -0.7723  0.3514
 5617TIP3    H238343   2.977   2.310  14.627 -0.2545 -1.5980  0.1330
 5618TIP3   OH238344   5.204   0.883  12.169  0.5801 -0.0212  0.7055
 5618TIP3    H138345   5.136   0.857  12.108  0.8657  0.1309  0.3172
 5618TIP3    H238346   5.157   0.905  12.250  0.3244 -1.6009  1.0114
 5619TIP3   OH238347   3.366   3.946   2.373  0.0139  0.0895  0.3171
 5619TIP3    H138348   3.453   3.909   2.388  0.1641 -0.6473 -1.9370
 5619TIP3    H238349   3.308   3.894   2.428  0.7870 -0.5726  0.5312
 5620TIP3   OH238350   0.016   4.565  17.086  0.3032 -0.3489  0.7459
 5620TIP3    H138351  -0.025   4.521  17.012  0.5342 -1.7057  1.3999
 5620TIP3    H238352   0.103   4.526  17.093  1.4502  1.8683 -0.0744
 5621TIP3   OH238353   5.319   6.339  12.173 -0.4186  0.4435 -0.3481
 5621TIP3    H138354   5.341   6.353  12.081 -0.2258 -1.1281 -0.5757
 5621TIP3    H238355   5.245   6.278  12.170 -1.4024  1.5535  0.5238
 5622TIP3   OH238356   1.029   1.470   2.355 -0.4633 -0.2869 -0.0479
 5622TIP3    H138357   1.067   1.510   2.433  0.0406 -0.7392 -0.0546
 5622TIP3    H238358   0.967   1.535   2.322 -0.8601 -0.1875  0.8616
 5623TIP3   OH238359   3.376   2.286  12.468 -0.1993 -0.6245 -0.1290
 5623TIP3    H138360   3.451   2.338  12.496 -2.5069  2.2319  1.3451
 5623TIP3    H238361   3.370   2.215  12.532 -0.1753  0.6196  1.3019
 5624TIP3   OH238362   1.002   1.114  14.054  0.2996 -0.5116 -0.4291
 5624TIP3    H138363   0.928   1.142  14.000  0.8929  0.2110 -0.8846
 5624TIP3    H238364   1.007   1.019  14.040 -0.9655 -0.6871  0.1627
 5625TIP3   OH238365   2.561   4.677  13.255 -0.3270 -0.2736  0.3529
 5625TIP3    H138366   2.614   4.720  13.322  1.1794 -0.8880 -0.3909
 5625TIP3    H238367   2.624   4.650  13.189 -1.7576  0.1717 -1.2499
 5626TIP3   OH238368   6.233   0.692  10.460  0.3737  0.1679 -0.0724
 5626TIP3    H138369   6.139   0.692  10.480 -0.2294  3.0682 -2.2291
 5626TIP3    H238370   6.262   0.604  10.483 -2.7146 -0.6382  1.2952
 5627TIP3   OH238371   3.259   1.618  16.081 -0.0421  0.3367 -0.3907
 5627TIP3    H138372   3.244   1.574  16.165 -2.1976  1.3843 -0.1521
 5627TIP3    H238373   3.349   1.595  16.057  0.8333  0.3970  2.4576
 5628TIP3   OH238374   0.095   6.344   1.423  0.6217 -1.0066  0.4182
 5628TIP3    H138375   0.016   6.354   1.370  0.8701 -2.0114 -0.1896
 5628TIP3    H238376   0.074   6.385   1.507 -0.6900 -1.5972  0.4055
 5629TIP3   OH238377   1.840   1.914   5.564 -0.4696 -0.8407  0.2622
 5629TIP3    H138378   1.805   1.998   5.591 -0.7759 -1.4729  1.9241
 5629TIP3    H238379   1.935   1.925   5.562 -0.5002 -0.5290  0.6968
 5630TIP3   OH238380   5.207   1.735   5.880  0.3331  0.5045 -0.1691
 5630TIP3    H138381   5.291   1.771   5.910  0.3587  0.0996  0.2445
 5630TIP3    H238382   5.161   1.711   5.960 -0.2291  0.8313 -0.3903
 5631TIP3   OH238383   4.341   4.249  10.646 -0.8618 -0.1458  0.0316
 5631TIP3    H138384   4.308   4.328  10.604  0.4252 -0.6773 -2.1535
 5631TIP3    H238385   4.433   4.245  10.620 -0.8932 -2.3535  0.1011
 5632TIP3   OH238386   2.134   6.393   0.804  1.1685  0.5240  0.5267
 5632TIP3    H138387   2.170   6.480   0.822  0.7850  0.8446 -0.1814
 5632TIP3    H238388   2.105   6.398   0.713 -1.2947  0.5220  1.2187
 5633TIP3   OH238389   4.634   3.039   4.112 -0.2025  0.8592 -0.2749
 5633TIP3    H138390   4.565   3.010   4.052  0.0434  0.1194 -0.2070
 5633TIP3    H238391   4.634   2.974   4.182  1.8562 -0.2590 -1.2501
 5634TIP3   OH238392   6.359   3.274   4.670 -0.4425  0.8547 -0.0866
 5634TIP3    H138393   6.448   3.288   4.702  0.2745 -0.6698 -1.2714
 5634TIP3    H238394   6.364   3.193   4.619 -2.5471  0.6535 -0.0749
 5635TIP3   OH238395   0.851   4.639  16.563 -0.1937 -0.1423  0.5917
 5635TIP3    H138396   0.843   4.546  16.544  0.5719 -0.0961 -0.0282
 5635TIP3    H238397   0.913   4.644  16.636  0.1429 -0.1028  0.3094
 5636TIP3   OH238398   1.297   3.239   1.880 -0.3938  0.1953  0.0205
 5636TIP3    H138399   1.295   3.302   1.951 -1.0958  0.3441 -0.1175
 5636TIP3    H238400   1.275   3.155   1.921  0.3115  0.0791  0.1650
 5637TIP3   OH238401   3.863   2.139  12.127  0.5362 -0.2630 -0.5156
 5637TIP3    H138402   3.774   2.124  12.157  0.7922 -2.9104 -0.8121
 5637TIP3    H238403   3.890   2.219  12.171 -2.4989  1.6103 -1.7328
 5638TIP3   OH238404   3.693   3.218   2.346 -0.1997  0.6266 -0.4027
 5638TIP3    H138405   3.669   3.213   2.254  1.5643  0.7819 -0.9054
 5638TIP3    H238406   3.694   3.312   2.366 -0.5686  0.5944 -0.2155
 5639TIP3   OH238407   4.431   0.764   1.263 -0.3938 -0.2517  0.8508
 5639TIP3    H138408   4.474   0.768   1.177 -0.0533 -0.1641  1.0249
 5639TIP3    H238409   4.352   0.818   1.252 -2.3772 -3.1652 -0.5296
 5640TIP3   OH238410   0.392   3.149  13.695 -0.1470 -0.4067  0.6170
 5640TIP3    H138411   0.371   3.218  13.632  0.4637  0.1561  1.0082
 5640TIP3    H238412   0.365   3.068  13.653  1.3433 -0.1798 -0.8758
 5641TIP3   OH238413   3.921   2.788   0.281 -0.2552 -0.7500  0.7485
 5641TIP3    H138414   3.998   2.810   0.333 -0.0577 -1.6929  0.8655
 5641TIP3    H238415   3.881   2.714   0.326 -0.3575 -1.2628 -0.1601
 5642TIP3   OH238416   4.566   2.051  11.216  0.3234  0.0223 -0.3690
 5642TIP3    H138417   4.573   2.127  11.158  1.6320 -0.5720 -1.0488
 5642TIP3    H238418   4.656   2.018  11.223 -0.4452 -2.6842 -1.8002
 5643TIP3   OH238419   6.207   3.569  14.123 -0.1179 -0.0123  0.6586
 5643TIP3    H138420   6.196   3.635  14.055 -1.4280 -0.9484 -0.0747
 5643TIP3    H238421   6.250   3.496  14.080  1.4151  0.3472  1.4927
 5644TIP3   OH238422   2.928   5.921   5.532  0.5289  0.2306  0.1660
 5644TIP3    H138423   2.836   5.945   5.544  0.2624 -1.4324  2.2092
 5644TIP3    H238424   2.976   6.003   5.538 -0.7575  1.0217  0.0037
 5645TIP3   OH238425   6.511   3.995  14.603  0.5333  0.0366 -0.3534
 5645TIP3    H138426   6.570   4.070  14.611 -0.6630  0.9256  0.5282
 5645TIP3    H238427   6.444   4.024  14.542  0.3155 -0.4989 -0.3719
 5646TIP3   OH238428   5.622   1.042  16.282 -0.1141  0.1984  0.3855
 5646TIP3    H138429   5.717   1.057  16.275 -0.4820  2.3739 -0.5843
 5646TIP3    H238430   5.587   1.124  16.315 -2.2751  1.7936 -4.8154
 5647TIP3   OH238431   0.453   4.004  13.054 -0.6474 -0.0875  0.3401
 5647TIP3    H138432   0.511   4.067  13.012 -1.6103  0.9148  0.4748
 5647TIP3    H238433   0.505   3.924  13.061  0.4675  0.5772 -0.1759
 5648TIP3   OH238434   6.502   4.698   5.213  0.3026 -0.1965  0.0842
 5648TIP3    H138435   6.495   4.663   5.301 -0.4170  0.2725  0.2273
 5648TIP3    H238436   6.428   4.659   5.166  0.3966 -0.0651 -0.1727
 5649TIP3   OH238437   4.572   6.254  15.658 -0.3613  0.7858 -0.0534
 5649TIP3    H138438   4.614   6.246  15.743  1.2291 -1.5651 -0.9385
 5649TIP3    H238439   4.483   6.282  15.677 -0.1357  0.0336  2.4045
 5650TIP3   OH238440   3.551   4.288  12.738  0.3257 -0.0580 -0.2084
 5650TIP3    H138441   3.494   4.338  12.679  1.6019  2.3300  0.4527
 5650TIP3    H238442   3.589   4.219  12.682  0.0849  0.9739 -1.7150
 5651TIP3   OH238443   0.457   1.920   2.907 -0.0564  0.0463  0.0897
 5651TIP3    H138444   0.483   1.833   2.876  0.6714 -0.0804  1.0028
 5651TIP3    H238445   0.395   1.951   2.842  0.1232 -0.9166 -0.5639
 5652TIP3   OH238446   2.809   6.713  15.687  0.3290  0.3101  0.4835
 5652TIP3    H138447   2.897   6.684  15.664  1.4719  2.5002  1.8064
 5652TIP3    H238448   2.814   6.737  15.779 -2.2213 -1.3591  1.1696
 5653TIP3   OH238449   0.106   2.767   1.938 -0.3370  0.2991 -1.1470
 5653TIP3    H138450   0.151   2.702   1.885  0.7800  1.9962 -2.3992
 5653TIP3    H238451   0.155   2.769   2.020  1.0996  1.1203 -1.9683
 5654TIP3   OH238452   2.964   4.137  14.716  0.2710  0.4029  0.0975
 5654TIP3    H138453   2.888   4.148  14.774  1.7028  0.2439  2.1432
 5654TIP3    H238454   3.017   4.215  14.730  0.8113  0.2097 -0.7818
 5655TIP3   OH238455   6.260   0.042   3.841  0.2040  0.1173 -0.3850
 5655TIP3    H138456   6.224   0.130   3.849 -0.9323 -0.3919  0.2301
 5655TIP3    H238457   6.336   0.041   3.900  2.0220  1.5407 -2.5193
 5656TIP3   OH238458   4.241   4.346   2.255  0.0706 -0.3378 -0.2592
 5656TIP3    H138459   4.311   4.298   2.298 -0.2248  0.3593  1.0585
 5656TIP3    H238460   4.162   4.293   2.270 -0.0180 -0.1423 -0.0398
 5657TIP3   OH238461   6.631   2.130   5.087 -0.2052 -0.6863  0.4708
 5657TIP3    H138462   6.662   2.206   5.137 -0.0972 -0.7337  0.4767
 5657TIP3    H238463   6.711   2.091   5.050 -0.4282  0.5953 -1.5378
 5658TIP3   OH238464   4.855   5.305   4.786  0.1615  0.3018  0.3240
 5658TIP3    H138465   4.844   5.291   4.880 -1.2819 -2.6930 -0.1571
 5658TIP3    H238466   4.777   5.355   4.760 -0.3259 -0.3345  0.5162
 5659TIP3   OH238467   1.064   3.677  11.321 -0.3095 -0.0345  0.1223
 5659TIP3    H138468   1.012   3.745  11.278 -0.6640  0.0482  0.6780
 5659TIP3    H238469   1.000   3.622  11.366  0.1061  0.4177  1.3183
 5660TIP3   OH238470   2.302   1.084   4.330  0.4221  0.5349  0.0910
 5660TIP3    H138471   2.377   1.132   4.364  0.3000  0.2106  0.8308
 5660TIP3    H238472   2.319   0.993   4.354  0.7753  0.1378 -1.5067
 5661TIP3   OH238473   3.516   1.737   4.256  0.5332 -0.0661 -0.2125
 5661TIP3    H138474   3.510   1.761   4.163 -0.6180  1.9674  0.3268
 5661TIP3    H238475   3.530   1.642   4.255  0.2527 -0.1469 -2.4559
 5662TIP3   OH238476   6.541   5.415   6.192  0.1493  0.2073 -0.2325
 5662TIP3    H138477   6.452   5.440   6.218  0.8317 -0.1547  2.7167
 5662TIP3    H238478   6.593   5.495   6.206  0.7580 -0.3456  0.7398
 5663TIP3   OH238479   5.523   1.957   4.776  0.6068 -0.1081 -0.6860
 5663TIP3    H138480   5.566   1.884   4.731  0.5385  0.3736 -1.5489
 5663TIP3    H238481   5.595   2.017   4.798  0.7459 -0.7058  0.5838
 5664TIP3   OH238482   1.800   1.844  16.296  0.6538  0.1427  0.8164
 5664TIP3    H138483   1.764   1.827  16.383  0.2549  0.7567  0.7771
 5664TIP3    H238484   1.878   1.788  16.291  0.7225  0.1601  1.5916
 5665TIP3   OH238485   4.107   6.672  16.065 -0.4771  0.0893 -0.5939
 5665TIP3    H138486   4.025   6.639  16.030  0.5938 -2.8656 -0.5731
 5665TIP3    H238487   4.086   6.700  16.154 -1.7629  0.9959 -1.1527
 5666TIP3   OH238488   0.005   3.333  16.934  0.6107 -0.2608 -0.4007
 5666TIP3    H138489  -0.084   3.368  16.935 -0.0940 -1.9383 -0.1794
 5666TIP3    H238490   0.027   3.326  16.841  0.4186 -0.0727 -0.4611
 5667TIP3   OH238491   5.618   3.313  15.749  0.2398 -0.3766 -0.0449
 5667TIP3    H138492   5.708   3.315  15.781  1.0728  1.2609 -2.2064
 5667TIP3    H238493   5.601   3.221  15.730  1.8146 -0.5938 -0.5079
 5668TIP3   OH238494   6.628   1.825  15.723  0.2706  0.6037  0.4702
 5668TIP3    H138495   6.689   1.797  15.654 -1.5131 -0.8342 -0.6210
 5668TIP3    H238496   6.575   1.747  15.741 -2.5308  2.2530 -0.0289
 5669TIP3   OH238497   2.318   3.491  15.694 -0.0437 -0.1418  0.3954
 5669TIP3    H138498   2.271   3.421  15.648  0.2794  1.4991 -2.7373
 5669TIP3    H238499   2.249   3.547  15.730 -0.4250  0.1640 -0.7758
 5670TIP3   OH238500   1.826   0.834   3.594  0.0149 -0.3246 -0.1720
 5670TIP3    H138501   1.877   0.868   3.668  0.4615  0.7686 -0.9413
 5670TIP3    H238502   1.780   0.911   3.560 -3.8846 -1.5686  1.7229
 5671TIP3   OH238503   2.339   6.782   4.743 -0.0100 -0.5098  0.9566
 5671TIP3    H138504   2.428   6.770   4.776 -0.3458 -1.0029  1.7231
 5671TIP3    H238505   2.290   6.817   4.818 -1.2604 -3.4951  1.6818
 5672TIP3   OH238506   0.090   6.481   2.032  0.7083 -0.0480  0.2311
 5672TIP3    H138507   0.115   6.555   2.088 -0.5368 -0.4135  1.3151
 5672TIP3    H238508   0.024   6.517   1.973 -1.0940 -0.5840  1.8037
 5673TIP3   OH238509   1.338   2.643  14.468 -0.7110  0.1301  0.2627
 5673TIP3    H138510   1.384   2.569  14.505  1.4176  1.4383  0.3909
 5673TIP3    H238511   1.320   2.617  14.377  0.2177 -0.4602  0.2351
 5674TIP3   OH238512   3.888   2.006  15.947 -0.2582  0.2337  0.1665
 5674TIP3    H138513   3.828   2.011  15.872  0.6225 -0.1706 -0.5840
 5674TIP3    H238514   3.886   2.094  15.984 -0.5590  0.4998 -0.4501
 5675TIP3   OH238515   4.571   4.825   2.446  0.0688 -0.4088 -0.1343
 5675TIP3    H138516   4.509   4.806   2.516 -0.4382 -0.3623 -0.5650
 5675TIP3    H238517   4.622   4.744   2.437 -1.7322 -1.4714 -1.6017
 5676TIP3   OH238518   2.043   6.235   1.344 -0.0199 -0.0547 -0.3051
 5676TIP3    H138519   2.006   6.191   1.267  1.4196 -0.9714 -0.5147
 5676TIP3    H238520   2.136   6.247   1.322  0.6723 -1.3487  1.7152
 5677TIP3   OH238521   0.862   3.515   5.609 -0.2135  0.2094 -0.9174
 5677TIP3    H138522   0.778   3.553   5.633  0.0787  0.9488 -1.0588
 5677TIP3    H238523   0.899   3.483   5.691 -0.7276 -0.3326 -0.8873
 5678TIP3   OH238524   4.454   1.572  12.008 -0.0668 -0.7902 -0.7034
 5678TIP3    H138525   4.444   1.652  11.957 -1.7716 -0.6737 -0.2634
 5678TIP3    H238526   4.490   1.600  12.092 -0.0505 -0.5750 -0.7827
 5679TIP3   OH238527   0.622   3.730  16.924  0.3917 -0.4722  0.0684
 5679TIP3    H138528   0.698   3.783  16.898 -0.6467  1.5186  0.8867
 5679TIP3    H238529   0.561   3.739  16.851 -0.2894  0.5510  0.7343
 5680TIP3   OH238530   2.049   5.889  13.755  0.0388 -0.0511  0.9440
 5680TIP3    H138531   1.992   5.966  13.746 -1.0926 -1.0456 -1.2126
 5680TIP3    H238532   2.130   5.914  13.709 -0.8988 -0.5997 -1.1241
 5681TIP3   OH238533   0.522   5.214  11.733 -0.0131 -0.2773 -0.0674
 5681TIP3    H138534   0.527   5.308  11.746 -1.3329  0.0179 -1.4280
 5681TIP3    H238535   0.609   5.190  11.700  0.2105  0.5208 -0.0664
 5682TIP3   OH238536   6.074   4.896  16.061 -0.0199 -0.0398  0.2807
 5682TIP3    H138537   6.052   4.862  16.148 -2.5279 -0.5901 -0.4900
 5682TIP3    H238538   6.094   4.819  16.009 -1.2194  0.0178 -0.2997
 5683TIP3   OH238539   4.460   6.483  12.472 -0.0367  0.3948  0.3243
 5683TIP3    H138540   4.366   6.501  12.469  0.1104  1.0913 -0.9859
 5683TIP3    H238541   4.487   6.512  12.559 -1.0230  0.2061  0.7065
 5684TIP3   OH238542   0.419   4.981   3.628 -0.2540 -0.6095 -0.0706
 5684TIP3    H138543   0.343   5.037   3.647 -1.4191 -1.1620 -2.7092
 5684TIP3    H238544   0.495   5.038   3.642 -1.3346  1.1780 -1.1242
 5685TIP3   OH238545   6.346   0.606   0.037 -0.0635  0.1397 -0.4955
 5685TIP3    H138546   6.429   0.561   0.053 -0.4240 -0.1608  0.5960
 5685TIP3    H238547   6.288   0.538   0.005  0.4209  0.5810 -2.4451
 5686TIP3   OH238548   2.907   6.783   3.657  0.7275  0.0967  0.0815
 5686TIP3    H138549   2.838   6.848   3.642  0.8760  0.5865  1.4055
 5686TIP3    H238550   2.868   6.720   3.716  1.2016  0.0097  0.3058
 5687TIP3   OH238551   2.374   6.338  15.524  0.4501 -1.2385  0.2477
 5687TIP3    H138552   2.303   6.396  15.497  1.3928 -0.1042  0.1246
 5687TIP3    H238553   2.334   6.251  15.526 -0.3328 -1.0009 -2.1894
 5688TIP3   OH238554   3.546   5.574   3.218 -0.3834  0.6350 -0.1801
 5688TIP3    H138555   3.609   5.640   3.245 -0.0403  0.6849 -1.0877
 5688TIP3    H238556   3.540   5.582   3.123 -1.1542  0.0914 -0.1937
 5689TIP3   OH238557   4.121   4.048  14.517  0.1921 -0.1766 -0.0887
 5689TIP3    H138558   4.210   4.063  14.485 -0.4321  1.5672 -1.1819
 5689TIP3    H238559   4.128   4.059  14.612  1.3678 -1.4682  0.0059
 5690TIP3   OH238560   5.969   5.553   2.988  0.3296  0.1693  0.2684
 5690TIP3    H138561   5.949   5.587   2.901 -1.0958 -0.3894  0.3503
 5690TIP3    H238562   6.043   5.493   2.974  0.6016  0.6513 -0.4155
 5691TIP3   OH238563   5.372   2.091   1.579 -0.2091  0.1647 -0.0838
 5691TIP3    H138564   5.322   2.028   1.527 -2.0154  1.3212  0.1284
 5691TIP3    H238565   5.455   2.048   1.598 -1.5132 -2.2954  0.3955
 5692TIP3   OH238566   4.662   1.368   4.672  0.1311 -0.5422  0.0247
 5692TIP3    H138567   4.655   1.280   4.709 -0.3655 -0.3661  0.3502
 5692TIP3    H238568   4.571   1.397   4.660  0.2792 -0.4359 -0.9549
 5693TIP3   OH238569   6.173   4.355  12.253 -0.4529  0.4324 -0.0708
 5693TIP3    H138570   6.188   4.353  12.347 -0.2283  2.4494 -0.0303
 5693TIP3    H238571   6.079   4.368  12.244 -0.3630  1.0569 -0.1106
 5694TIP3   OH238572   3.503   5.053   3.003  0.5353  0.8188 -0.0067
 5694TIP3    H138573   3.472   4.979   3.055 -1.7821  1.1331 -0.8182
 5694TIP3    H238574   3.485   5.029   2.913  0.5156  2.0216 -0.3484
 5695TIP3   OH238575   0.192   4.286  14.296  0.2122 -0.0269  0.1110
 5695TIP3    H138576   0.155   4.255  14.379 -0.4406  0.3248 -0.0445
 5695TIP3    H238577   0.280   4.248  14.294  0.9413  1.4195  1.8036
 5696TIP3   OH238578   6.567   2.119  15.648 -0.6220 -0.4253 -0.0300
 5696TIP3    H138579   6.591   2.116  15.555 -0.8715 -0.8960 -0.0801
 5696TIP3    H238580   6.608   2.042  15.686  0.7068  0.5206  0.5602
 5697TIP3   OH238581   6.679   0.187  12.178 -0.1467 -0.0166 -0.3268
 5697TIP3    H138582   6.646   0.262  12.128  0.7325  0.8633  0.3897
 5697TIP3    H238583   6.709   0.224  12.261 -0.2830 -1.2567  0.3037
 5698TIP3   OH238584   3.343   4.832   5.534  0.1388  0.3852 -0.0883
 5698TIP3    H138585   3.364   4.897   5.600 -1.0832 -0.3636  1.0985
 5698TIP3    H238586   3.428   4.803   5.501  0.8377  0.2160  1.7257
 5699TIP3   OH238587   1.788   3.095   5.962 -0.1277  0.3438  0.2789
 5699TIP3    H138588   1.722   3.163   5.975 -0.1405  0.1410  1.3431
 5699TIP3    H238589   1.780   3.038   6.038  1.9037  0.8652  0.9634
 5700TIP3   OH238590   5.225   5.504   1.239 -0.6393 -0.5438 -0.6606
 5700TIP3    H138591   5.318   5.493   1.218  0.4016  2.6971  1.5089
 5700TIP3    H238592   5.192   5.562   1.171 -0.7328 -0.6597 -0.7140
 5701TIP3   OH238593   4.023   4.822  12.931  0.2911 -0.6756 -0.1489
 5701TIP3    H138594   4.073   4.747  12.963 -0.9552 -1.0575  1.0432
 5701TIP3    H238595   4.040   4.892  12.994  0.4657 -0.3460 -0.5539
 5702TIP3   OH238596   0.774   3.448   4.682  0.6898  0.2302 -0.1784
 5702TIP3    H138597   0.737   3.452   4.594  0.4042  0.6016 -0.0454
 5702TIP3    H238598   0.698   3.453   4.740  0.9033  0.3284  0.0925
 5703TIP3   OH238599   3.070   0.846   4.083 -0.0966 -0.3345 -0.2777
 5703TIP3    H138600   3.049   0.783   4.151  1.0090  1.8086  2.2214
 5703TIP3    H238601   3.053   0.800   4.001 -1.2010 -3.1484  1.4089
 5704TIP3   OH238602   5.462   6.613   2.821 -0.8702 -0.3400  0.2598
 5704TIP3    H138603   5.444   6.625   2.914 -1.6689 -1.6862  0.3078
 5704TIP3    H238604   5.512   6.531   2.816 -1.4838 -0.6816 -0.5483
 5705TIP3   OH238605   1.101   1.023   4.260 -0.0461  0.1354  0.4598
 5705TIP3    H138606   1.129   0.934   4.279 -3.3284 -0.9641  0.7348
 5705TIP3    H238607   1.111   1.031   4.165 -3.5919 -2.1755 -0.2761
 5706TIP3   OH238608   1.415   0.836   6.533  0.2527  0.1256  0.1002
 5706TIP3    H138609   1.365   0.872   6.459 -2.8245 -0.7398  1.5857
 5706TIP3    H238610   1.407   0.741   6.523 -1.3967 -0.0233  2.1719
 5707TIP3   OH238611   3.844   4.354   4.666 -0.4768  0.0555 -0.0385
 5707TIP3    H138612   3.859   4.272   4.619  0.1277  0.2625 -0.2228
 5707TIP3    H238613   3.750   4.367   4.662 -0.4824 -0.1690 -0.7944
 5708TIP3   OH238614   3.431   6.077  13.454 -0.0061 -0.2283 -0.2922
 5708TIP3    H138615   3.359   6.017  13.436 -0.0408 -0.3014  0.0760
 5708TIP3    H238616   3.409   6.156  13.404  1.0297 -1.1950 -2.3694
 5709TIP3   OH238617   3.547   1.425  12.539 -0.6406  0.0226 -0.0386
 5709TIP3    H138618   3.473   1.483  12.557  0.1841  1.4401 -1.0592
 5709TIP3    H238619   3.565   1.384  12.624 -1.7785  0.6148  0.5214
 5710TIP3   OH238620   4.353   2.157   6.186  0.0791  0.2075 -0.1978
 5710TIP3    H138621   4.270   2.189   6.219 -0.1948 -0.2893 -0.3974
 5710TIP3    H238622   4.377   2.086   6.246  1.2967  1.5575  0.9950
 5711TIP3   OH238623   1.685   5.684   3.535 -0.3376 -0.0164 -0.0624
 5711TIP3    H138624   1.714   5.756   3.590 -0.6248  1.1452 -1.3802
 5711TIP3    H238625   1.743   5.611   3.559  0.2095  0.7434  1.0194
 5712TIP3   OH238626   0.082   6.006  14.584  0.3363 -0.0109 -0.0522
 5712TIP3    H138627   0.073   6.026  14.677  1.3154 -1.4785  0.4128
 5712TIP3    H238628   0.062   6.088  14.539 -0.6803  0.5881  1.4134
 5713TIP3   OH238629   3.821   1.213  16.626  0.3680 -0.3084 -0.8852
 5713TIP3    H138630   3.768   1.292  16.636 -0.2181 -0.8744  0.5744
 5713TIP3    H238631   3.834   1.206  16.531 -0.0887  1.1863 -1.0899
 5714TIP3   OH238632   1.966   6.470   0.566  0.4279 -0.1418  0.0264
 5714TIP3    H138633   1.911   6.415   0.623 -1.1687 -0.2740 -1.5493
 5714TIP3    H238634   2.015   6.407   0.513  0.7673 -0.0235  0.1980
 5715TIP3   OH238635   4.148   0.433  12.610 -0.2882 -0.0581  0.5623
 5715TIP3    H138636   4.145   0.392  12.696 -0.2743  0.1526  0.6606
 5715TIP3    H238637   4.240   0.457  12.598 -0.4280  0.6118  0.8090
 5716TIP3   OH238638   1.514   0.774   5.084 -0.3406 -0.2204 -0.2157
 5716TIP3    H138639   1.538   0.718   5.158  0.8598 -0.9648 -1.1323
 5716TIP3    H238640   1.438   0.732   5.046  0.1358 -0.8623 -0.4776
 5717TIP3   OH238641   1.460   0.935  15.315 -0.0474 -0.1299 -0.1538
 5717TIP3    H138642   1.542   0.943  15.266 -0.4546 -1.2938 -1.0607
 5717TIP3    H238643   1.483   0.960  15.405  0.7912  1.7010 -0.8297
 5718TIP3   OH238644   3.667   0.033   4.384  0.1618 -0.0343  0.5884
 5718TIP3    H138645   3.751   0.035   4.338 -0.4175  1.0027 -0.4806
 5718TIP3    H238646   3.613   0.097   4.338 -0.3219  1.4467  3.0360
 5719TIP3   OH238647   2.883   2.006  13.405  0.0373 -0.0080 -0.1189
 5719TIP3    H138648   2.790   1.981  13.410  0.2650 -1.1658 -1.1780
 5719TIP3    H238649   2.914   1.966  13.324  1.3064  0.9358 -0.1201
 5720TIP3   OH238650   1.326   1.990  13.937  0.5231  0.3403 -0.1657
 5720TIP3    H138651   1.362   1.916  13.887  1.3167 -0.5640  1.6482
 5720TIP3    H238652   1.279   1.949  14.010 -0.3962  1.6266  0.0023
 5721TIP3   OH238653   6.090   2.156   6.204 -0.3198  0.2021  0.1894
 5721TIP3    H138654   6.177   2.171   6.241  0.1856 -0.2854 -0.7662
 5721TIP3    H238655   6.096   2.069   6.163 -1.0139  0.4877 -0.5503
 5722TIP3   OH238656   4.111   5.379   4.639  0.0583 -0.1976 -0.0494
 5722TIP3    H138657   4.042   5.314   4.629 -0.2766  0.4549 -2.4409
 5722TIP3    H238658   4.076   5.459   4.600  1.0883  0.9984  1.3304
 5723TIP3   OH238659   6.171   1.163  13.036  0.0860 -0.2946  0.1986
 5723TIP3    H138660   6.224   1.228  13.083  1.1199 -0.5716 -0.5438
 5723TIP3    H238661   6.140   1.210  12.958 -0.6284 -0.1885  0.5394
 5724TIP3   OH238662   6.709   2.044   3.883 -0.0492  0.3343 -0.7880
 5724TIP3    H138663   6.731   2.136   3.871 -0.8692  0.8931  1.4285
 5724TIP3    H238664   6.782   2.008   3.935  0.1786 -0.2436 -1.4848
 5725TIP3   OH238665   2.357   0.652   1.248  0.4355 -0.7122 -0.1233
 5725TIP3    H138666   2.437   0.700   1.270  0.2395 -0.2689 -0.3494
 5725TIP3    H238667   2.339   0.597   1.324  1.1256 -1.0440 -0.1955
 5726TIP3   OH238668   2.042   3.200  16.656 -0.5173  0.9516  0.1028
 5726TIP3    H138669   2.058   3.155  16.573 -1.6380  0.3607  0.1826
 5726TIP3    H238670   2.122   3.186  16.707  1.4755  3.8912 -1.9184
 5727TIP3   OH238671   6.392   0.479   5.581 -0.3212  0.0617  0.0310
 5727TIP3    H138672   6.474   0.514   5.615 -0.8239  0.7380  0.5499
 5727TIP3    H238673   6.353   0.433   5.655 -1.7352  2.0950  0.5995
 5728TIP3   OH238674   0.040   5.637   5.721  0.5193  0.2846 -0.1323
 5728TIP3    H138675   0.116   5.694   5.712  0.5279  0.7989  2.3619
 5728TIP3    H238676  -0.035   5.693   5.702  0.6464  0.4788 -0.0580
 5729TIP3   OH238677   3.607   2.954  15.074  0.1837 -0.0282  0.3355
 5729TIP3    H138678   3.676   2.984  15.134  2.6565 -2.2326 -1.1797
 5729TIP3    H238679   3.648   2.884  15.023 -2.4143  0.2932 -2.5054
 5730TIP3   OH238680   4.246   0.462   4.138  0.0788 -0.1866  0.3901
 5730TIP3    H138681   4.288   0.489   4.219  1.1565 -1.9393  0.4635
 5730TIP3    H238682   4.170   0.412   4.166  1.1431 -1.8904  0.4232
 5731TIP3   OH238683   4.443   2.896  11.624  0.3012 -0.4592  0.1133
 5731TIP3    H138684   4.536   2.896  11.646  0.0851  0.2865  1.1038
 5731TIP3    H238685   4.409   2.815  11.661  0.6499 -0.9767 -0.6935
 5732TIP3   OH238686   6.612   5.610  14.854  0.1845 -0.2933 -0.3129
 5732TIP3    H138687   6.690   5.664  14.844 -0.3165  0.3187 -1.0300
 5732TIP3    H238688   6.600   5.602  14.949  0.8439 -0.0008 -0.2016
 5733TIP3   OH238689   5.636   3.447  16.841 -0.2156  0.8928 -0.0937
 5733TIP3    H138690   5.680   3.515  16.790 -0.9231 -0.2676 -2.3426
 5733TIP3    H238691   5.545   3.451  16.814 -0.2121 -1.1495 -0.5655
 5734TIP3   OH238692   4.322   2.568  13.812 -0.2860  0.2231  0.4675
 5734TIP3    H138693   4.290   2.478  13.809 -0.1026  0.1434  0.8772
 5734TIP3    H238694   4.353   2.585  13.723 -1.6177  0.3633  0.0107
 5735TIP3   OH238695   2.476   2.933   0.171  0.2853  0.6589 -0.0850
 5735TIP3    H138696   2.388   2.957   0.198 -0.2807 -1.7096  0.4125
 5735TIP3    H238697   2.482   2.839   0.188  2.5865  0.5587 -1.0058
 5736TIP3   OH238698   5.651   1.472  11.263  0.7769  0.2267 -0.2658
 5736TIP3    H138699   5.607   1.449  11.181  2.0387 -0.9103 -0.6634
 5736TIP3    H238700   5.620   1.406  11.326  1.9197 -0.6327 -0.5693
 5737TIP3   OH238701   1.683   5.657   5.070 -0.1782 -0.0859 -0.5463
 5737TIP3    H138702   1.684   5.694   4.982  2.5736  1.8023  0.1353
 5737TIP3    H238703   1.625   5.715   5.120  0.5106  0.5773 -0.5054
 5738TIP3   OH238704   6.427   2.089  16.302  0.6070  0.1988  0.2301
 5738TIP3    H138705   6.504   2.060  16.350  0.3061 -1.5543 -0.2788
 5738TIP3    H238706   6.404   2.014  16.246 -1.1233  0.8871 -0.0438
 5739TIP3   OH238707   5.282   2.103  15.747  0.4001 -0.1011 -0.1778
 5739TIP3    H138708   5.342   2.140  15.682  2.6482 -0.2177  1.6834
 5739TIP3    H238709   5.272   2.173  15.812 -0.6108 -0.4932  0.1047
 5740TIP3   OH238710   5.324   4.230  15.278  0.5949 -0.3483  0.6209
 5740TIP3    H138711   5.385   4.240  15.205  1.9211 -0.0263  1.7437
 5740TIP3    H238712   5.357   4.155  15.327 -0.0693 -0.3274  1.1096
 5741TIP3   OH238713   5.253   0.351  11.384 -0.1436  0.3538  0.0389
 5741TIP3    H138714   5.240   0.373  11.476 -1.2153  0.3549 -0.1052
 5741TIP3    H238715   5.297   0.266  11.385  1.5425  1.1770  0.5637
 5742TIP3   OH238716   3.639   4.977   4.084 -0.4811 -0.1468 -0.0413
 5742TIP3    H138717   3.607   4.901   4.036 -1.4648  0.1274  0.1579
 5742TIP3    H238718   3.573   4.992   4.153 -0.1869  0.7405  0.0665
 5743TIP3   OH238719   2.902   3.027  14.088 -0.4620 -0.8084 -0.7812
 5743TIP3    H138720   2.817   2.982  14.090 -0.7365 -0.3876 -1.9814
 5743TIP3    H238721   2.897   3.083  14.011  1.3547 -1.6446 -1.5733
 5744TIP3   OH238722   2.375   3.773  11.036 -0.3565 -0.5300 -0.0627
 5744TIP3    H138723   2.402   3.864  11.032 -1.2663 -0.1865  1.1612
 5744TIP3    H238724   2.454   3.726  11.065  0.2474 -0.2330 -1.1518
 5745TIP3   OH238725   4.207   2.607  12.195 -0.0726 -0.2654 -0.6028
 5745TIP3    H138726   4.160   2.661  12.258 -2.9188 -0.8313 -2.0694
 5745TIP3    H238727   4.218   2.522  12.239 -1.7934 -0.5765 -0.7097
 5746TIP3   OH238728   4.771   2.077  16.272  0.6442  0.3839  0.1082
 5746TIP3    H138729   4.695   2.038  16.315  0.7426  0.7661  0.6432
 5746TIP3    H238730   4.829   2.102  16.344  0.7092  1.2476 -0.2255
 5747TIP3   OH238731   3.599   2.286  15.917  0.3331 -0.3692 -0.1596
 5747TIP3    H138732   3.671   2.316  15.973  0.3055 -1.3999  0.4663
 5747TIP3    H238733   3.527   2.267  15.978 -0.4183  0.4906 -0.7606
 5748TIP3   OH238734   5.570   3.472   0.062  0.5205 -0.3098  0.0390
 5748TIP3    H138735   5.566   3.406   0.131  0.9149  0.0844  0.4545
 5748TIP3    H238736   5.575   3.422  -0.019  2.9694 -0.8608  0.4465
 5749TIP3   OH238737   3.246   6.394  11.516 -0.1119 -0.0861  0.2503
 5749TIP3    H138738   3.251   6.305  11.483  1.1625  0.2072 -0.4195
 5749TIP3    H238739   3.163   6.398  11.562  0.6625 -2.1980  2.0187
 5750TIP3   OH238740   6.019   2.608  14.245  0.1057  0.0597  0.4938
 5750TIP3    H138741   6.038   2.702  14.244 -0.6436  0.2211  0.1614
 5750TIP3    H238742   6.098   2.567  14.211 -0.0684  0.6918 -0.7566
 5751TIP3   OH238743   4.176   6.265   5.539 -0.3819  0.4691  0.4912
 5751TIP3    H138744   4.183   6.173   5.512  1.0603 -0.3196  3.1545
 5751TIP3    H238745   4.252   6.279   5.596 -0.9814  3.1060  0.7769
 5752TIP3   OH238746   4.116   5.457  14.479 -0.2126 -0.4274 -0.3505
 5752TIP3    H138747   4.120   5.365  14.504 -1.1521 -0.5539 -0.6409
 5752TIP3    H238748   4.029   5.486  14.507 -0.7324 -0.1889 -2.0707
 5753TIP3   OH238749   6.747   3.253  11.354  0.0949  0.1247 -0.0728
 5753TIP3    H138750   6.813   3.254  11.284 -0.4189 -0.1296 -0.5652
 5753TIP3    H238751   6.797   3.231  11.433  0.5745 -0.2300 -0.4688
 5754TIP3   OH238752   5.060   6.775  12.220  0.2352 -0.4316 -0.2368
 5754TIP3    H138753   5.058   6.682  12.199  1.2442 -0.5744  0.2340
 5754TIP3    H238754   4.969   6.799  12.235 -0.0706 -1.2466 -0.7629
 5755TIP3   OH238755   4.025   2.747  16.418  0.5583 -0.1991 -0.6500
 5755TIP3    H138756   4.037   2.842  16.411  2.2406 -0.1907  1.3094
 5755TIP3    H238757   4.112   2.714  16.441  0.1336 -2.3149 -1.8272
 5756TIP3   OH238758   3.917   0.580   1.778 -1.2564  0.2832  0.3603
 5756TIP3    H138759   3.959   0.576   1.864  1.5085 -0.9219 -0.9159
 5756TIP3    H238760   3.872   0.496   1.769  3.3293 -2.3366 -1.4420
 5757TIP3   OH238761   1.427   3.120   3.037 -0.0379  0.5292  0.2383
 5757TIP3    H138762   1.465   3.037   3.069 -1.6882  0.5003  2.3480
 5757TIP3    H238763   1.431   3.178   3.113 -1.4428  1.4728 -0.3764
 5758TIP3   OH238764   1.054   6.713   2.045 -0.1599  0.2526  0.0305
 5758TIP3    H138765   1.125   6.650   2.042 -0.6017 -0.2270 -0.7279
 5758TIP3    H238766   1.065   6.765   1.965 -1.6378 -0.9429 -1.0128
 5759TIP3   OH238767   4.599   2.435  13.747 -0.6066 -0.6537  0.0253
 5759TIP3    H138768   4.614   2.519  13.790 -0.1626 -0.8911  0.3467
 5759TIP3    H238769   4.686   2.396  13.740 -0.8238 -1.1417 -0.0118
 5760TIP3   OH238770   0.877   3.118   3.465  0.4418  0.0168  0.4036
 5760TIP3    H138771   0.920   3.166   3.535  2.5148 -0.5373 -0.4277
 5760TIP3    H238772   0.832   3.046   3.509 -1.7191  1.9120  1.5399
 5761TIP3   OH238773   2.278   5.237  11.596 -0.1415  0.3688 -0.5278
 5761TIP3    H138774   2.220   5.312  11.609  0.1689  0.7578 -1.3181
 5761TIP3    H238775   2.355   5.256  11.651 -0.9279 -0.3712  0.8915
 5762TIP3   OH238776   5.161   5.580  11.600  0.5009 -0.1775  0.6393
 5762TIP3    H138777   5.074   5.614  11.579  0.5698  0.6665  1.6368
 5762TIP3    H238778   5.156   5.555  11.692  1.7010  1.2243  1.1223
 5763TIP3   OH238779   2.469   6.511   5.816 -0.3237  0.3467  0.0839
 5763TIP3    H138780   2.545   6.558   5.849 -0.7802  0.6059  0.7876
 5763TIP3    H238781   2.443   6.454   5.889 -0.4727 -0.1414 -0.3476
 5764TIP3   OH238782   5.471   4.994   4.162 -0.2599  0.6486 -0.1271
 5764TIP3    H138783   5.564   5.001   4.139  1.2820 -3.5825  3.4357
 5764TIP3    H238784   5.468   5.010   4.256 -2.3195 -2.9036  0.6046
 5765TIP3   OH238785   0.305   2.019   1.757  0.1952 -0.4929  0.5141
 5765TIP3    H138786   0.316   1.931   1.794 -0.8193 -0.7238  0.3110
 5765TIP3    H238787   0.241   2.061   1.813  1.4877  0.5400  1.2705
 5766TIP3   OH238788   5.225   2.576  12.875  0.1285 -0.2904  0.4063
 5766TIP3    H138789   5.196   2.553  12.963 -0.4555  1.4139  0.6990
 5766TIP3    H238790   5.276   2.656  12.887  1.6299 -1.0618 -0.6027
 5767TIP3   OH238791   5.168   0.327   1.124  0.4788 -0.4679 -0.3629
 5767TIP3    H138792   5.104   0.376   1.175 -0.9544 -2.0832 -0.5320
 5767TIP3    H238793   5.251   0.370   1.143 -0.5214  1.1954  0.4885
 5768TIP3   OH238794   1.973   3.684  12.507 -0.2838  0.1595 -0.3372
 5768TIP3    H138795   1.942   3.682  12.416  1.5024 -1.2827 -0.9730
 5768TIP3    H238796   1.895   3.704  12.558 -2.0192 -1.9195 -1.9586
 5769TIP3   OH238797   4.032   6.829   5.226 -0.6709 -0.2095 -0.3996
 5769TIP3    H138798   4.015   6.872   5.310  1.7028 -0.6736  0.3946
 5769TIP3    H238799   4.011   6.737   5.242  0.1606 -0.3675 -0.1588
 5770TIP3   OH238800   1.203   5.183   1.364  0.7480  0.0830  0.1982
 5770TIP3    H138801   1.136   5.117   1.382  0.4436  0.0851 -0.8545
 5770TIP3    H238802   1.157   5.266   1.372  0.8454  0.1204  0.3677
 5771TIP3   OH238803   4.929   6.340  16.821 -0.3088 -0.0222  0.3654
 5771TIP3    H138804   5.002   6.288  16.790 -0.2463  0.5007 -0.3851
 5771TIP3    H238805   4.860   6.276  16.840 -0.1839 -0.3946 -0.4020
 5772TIP3   OH238806   3.069   4.676   0.346  0.0528  0.4124 -0.5517
 5772TIP3    H138807   3.078   4.591   0.305  1.9314 -0.8299  2.1242
 5772TIP3    H238808   3.004   4.722   0.293 -1.0375 -2.6546 -2.0983
 5773TIP3   OH238809   3.957   3.034   3.238 -0.1165 -0.3793  0.1104
 5773TIP3    H138810   4.048   3.061   3.227 -0.8556  1.3324 -3.2930
 5773TIP3    H238811   3.914   3.111   3.277 -0.3603 -0.7070  0.5030
 5774TIP3   OH238812   5.599   4.776  16.308 -0.0020 -0.1591  0.2000
 5774TIP3    H138813   5.637   4.844  16.252  0.4181  0.5468  1.2925
 5774TIP3    H238814   5.580   4.704  16.249 -0.5355  0.9335 -1.0279
 5775TIP3   OH238815   5.671   6.636   1.097 -0.3315 -0.2088 -0.1205
 5775TIP3    H138816   5.762   6.618   1.121 -0.4293 -1.6322 -0.7088
 5775TIP3    H238817   5.622   6.565   1.139 -0.9738 -0.3457 -1.0798
 5776TIP3   OH238818   1.468   0.461   3.509  0.1760  0.5348  0.1279
 5776TIP3    H138819   1.517   0.543   3.505  1.0654  0.0458  0.6907
 5776TIP3    H238820   1.391   0.482   3.561  0.1686  1.1219 -0.1108
 5777TIP3   OH238821   6.122   3.849   0.864  0.2718 -0.1883 -0.0878
 5777TIP3    H138822   6.216   3.870   0.872  0.3348 -1.0747  2.2089
 5777TIP3    H238823   6.092   3.903   0.791  2.3995  0.7682 -0.3385
 5778TIP3   OH238824   5.544   4.818   6.366 -0.2652  0.3417 -0.3647
 5778TIP3    H138825   5.545   4.881   6.438 -0.8916 -0.6957  0.5644
 5778TIP3    H238826   5.626   4.836   6.318  0.7476  0.2751  1.2777
 5779TIP3   OH238827   2.447   4.408   4.794  0.4389 -0.1494 -0.0288
 5779TIP3    H138828   2.410   4.320   4.806 -0.7434  0.2568 -0.5624
 5779TIP3    H238829   2.450   4.421   4.700  1.0225  0.2161  0.0373
 5780TIP3   OH238830   0.285   5.153   2.580 -0.6555 -0.2004 -0.1313
 5780TIP3    H138831   0.253   5.235   2.544 -1.5684  0.1293  1.3515
 5780TIP3    H238832   0.377   5.169   2.600 -0.2535 -0.2509 -1.8212
 5781TIP3   OH238833   1.158   2.647   5.097 -0.0414  0.2624  0.5012
 5781TIP3    H138834   1.105   2.597   5.159 -0.7879  0.1614 -0.1939
 5781TIP3    H238835   1.169   2.733   5.139 -1.2019  0.4553  0.4431
 5782TIP3   OH238836   5.519   5.362   1.794 -0.0924 -0.5997  0.5576
 5782TIP3    H138837   5.564   5.368   1.710 -1.7159 -1.3807 -0.4131
 5782TIP3    H238838   5.511   5.452   1.824 -1.1226 -0.1301 -1.0297
 5783TIP3   OH238839   3.303   3.231  14.773  0.3035  0.0649 -0.4154
 5783TIP3    H138840   3.334   3.141  14.759  0.9359 -0.0411  1.3957
 5783TIP3    H238841   3.329   3.252  14.862 -2.0062  1.1827  0.0752
 5784TIP3   OH238842   2.940   5.536   0.955  0.7100 -0.4007  0.3660
 5784TIP3    H138843   2.909   5.591   0.883  2.7177  1.1554  0.5980
 5784TIP3    H238844   2.905   5.449   0.936  0.3783  0.1849 -1.9687
 5785TIP3   OH238845   5.532   0.791   1.382  0.2433  0.0728  0.1338
 5785TIP3    H138846   5.580   0.773   1.302  0.1010  0.8489 -0.1344
 5785TIP3    H238847   5.465   0.723   1.385  1.0827 -0.7657  0.2991
 5786TIP3   OH238848   4.246   0.687   3.974  0.1345  0.2313  0.1783
 5786TIP3    H138849   4.243   0.616   4.039 -2.3606  1.2550  1.3297
 5786TIP3    H238850   4.182   0.661   3.908 -1.0405  1.4835  0.7725
 5787TIP3   OH238851   5.751   4.579  16.760 -0.2207  0.6618 -0.2587
 5787TIP3    H138852   5.659   4.555  16.773 -0.1813 -0.3048 -1.5071
 5787TIP3    H238853   5.801   4.510  16.804 -0.1137 -0.2304 -1.7114
 5788TIP3   OH238854   4.774   3.317  13.618  0.1416 -0.5780 -0.4482
 5788TIP3    H138855   4.768   3.228  13.583 -0.3220 -1.6295  2.0932
 5788TIP3    H238856   4.749   3.308  13.710  0.6325  2.1126  0.0205
 5789TIP3   OH238857   1.317   3.534   2.531 -0.4944  0.0073  0.1125
 5789TIP3    H138858   1.370   3.454   2.528  0.3136  0.5409 -0.9550
 5789TIP3    H238859   1.329   3.573   2.444 -2.0475  0.5530  0.1151
 5790TIP3   OH238860   0.213   1.732  16.415  0.6856  0.4020  0.0952
 5790TIP3    H138861   0.143   1.781  16.458  0.3211  1.4763 -1.6095
 5790TIP3    H238862   0.290   1.747  16.469  0.5630  2.8256 -0.3094
 5791TIP3   OH238863   0.241   0.430   2.050 -0.6467  0.1044  0.6817
 5791TIP3    H138864   0.242   0.395   1.961 -0.6609 -0.1472  0.7788
 5791TIP3    H238865   0.321   0.482   2.056 -0.9654  0.6558  0.3158
 5792TIP3   OH238866   2.159   5.495  11.547 -0.1171  0.3225  0.1495
 5792TIP3    H138867   2.238   5.518  11.499 -0.0980  0.0489  0.0466
 5792TIP3    H238868   2.088   5.538  11.500 -0.1133 -0.0512 -0.2036
 5793TIP3   OH238869   4.163   0.053   3.659 -0.0803 -0.3174  0.4704
 5793TIP3    H138870   4.227   0.033   3.728  0.3046 -0.9668 -0.0682
 5793TIP3    H238871   4.214   0.051   3.578  0.1485  3.3217  0.3379
 5794TIP3   OH238872   6.134   1.495   0.408 -0.0923 -0.0099 -0.1341
 5794TIP3    H138873   6.163   1.482   0.498 -1.6579 -1.4662  0.2068
 5794TIP3    H238874   6.040   1.479   0.410  0.0386 -1.4921 -2.2624
 5795TIP3   OH238875   5.595   0.855   0.904  0.1895 -0.0637  0.5289
 5795TIP3    H138876   5.537   0.870   0.979  0.0434 -1.6483  0.7696
 5795TIP3    H238877   5.675   0.903   0.926 -0.2838  0.4687  1.1413
 5796TIP3   OH238878   5.438   4.829  11.245 -0.6837  0.1344  0.0191
 5796TIP3    H138879   5.528   4.799  11.257 -0.3974 -0.0631 -2.2209
 5796TIP3    H238880   5.393   4.754  11.206 -1.1354  1.0605 -1.3052
 5797TIP3   OH238881   4.213   5.621   1.246  0.0831 -0.2518 -0.0214
 5797TIP3    H138882   4.203   5.716   1.240 -0.2967 -0.3218 -0.5149
 5797TIP3    H238883   4.187   5.600   1.336  0.5484  0.1527  0.2157
 5798TIP3   OH238884   1.573   1.543   1.018  0.2066  0.3800 -0.1823
 5798TIP3    H138885   1.662   1.551   0.985  0.3199  0.7246  0.1972
 5798TIP3    H238886   1.536   1.468   0.971  0.6515  0.3182 -0.4350
 5799TIP3   OH238887   0.066   2.773   0.559 -0.7231  0.1177  0.3935
 5799TIP3    H138888   0.159   2.767   0.537 -0.9398 -1.8218 -0.2004
 5799TIP3    H238889   0.059   2.730   0.645 -1.1977 -0.6696 -0.0296
 5800TIP3   OH238890   3.238   3.842   3.706  0.1234  0.3514  0.1602
 5800TIP3    H138891   3.299   3.841   3.779  0.4907 -1.4188 -0.1363
 5800TIP3    H238892   3.283   3.795   3.636 -0.0145  2.3953 -1.4213
 5801TIP3   OH238893   6.511   2.234  10.930 -0.1872  0.3486  0.3379
 5801TIP3    H138894   6.484   2.325  10.915  1.5502  0.5855 -1.7912
 5801TIP3    H238895   6.479   2.187  10.854  1.4039 -0.2269 -0.0013
 5802TIP3   OH238896   6.667   1.470   3.742  0.2475  0.6531  0.3405
 5802TIP3    H138897   6.707   1.383   3.750 -0.3441  0.4678  1.5041
 5802TIP3    H238898   6.586   1.464   3.793 -0.8499  1.2884 -1.2359
 5803TIP3   OH238899   6.413   1.750   1.210  0.3478  0.0952  0.1669
 5803TIP3    H138900   6.488   1.747   1.150 -0.8827 -0.4525 -1.4072
 5803TIP3    H238901   6.369   1.666   1.197 -1.2855  0.9311  0.0598
 5804TIP3   OH238902   6.679   3.965  11.847  0.1295 -0.6047 -0.3478
 5804TIP3    H138903   6.692   3.881  11.892 -0.6194  0.2076  1.4552
 5804TIP3    H238904   6.768   3.995  11.827  0.8126  0.4422  3.4459
 5805TIP3   OH238905   6.587   5.052   0.024 -0.1139  0.3884 -0.1414
 5805TIP3    H138906   6.523   5.119  -0.000  0.1538  0.4638 -0.6592
 5805TIP3    H238907   6.643   5.044  -0.054  0.0822 -0.1665  0.0558
 5806TIP3   OH238908   4.144   4.966   4.448  0.1620  0.3948 -0.5203
 5806TIP3    H138909   4.156   4.988   4.355 -0.2801 -0.2971 -0.7482
 5806TIP3    H238910   4.226   4.992   4.489  0.8261 -0.3972 -1.3127
 5807TIP3   OH238911   1.814   6.637  13.637 -0.3082 -0.2159  0.2059
 5807TIP3    H138912   1.842   6.588  13.714  1.6756  0.4087 -0.0663
 5807TIP3    H238913   1.896   6.668  13.597 -1.3168  0.1471 -1.7056
 5808TIP3   OH238914   5.971   2.426  14.745  0.1575 -0.0141  1.1498
 5808TIP3    H138915   5.877   2.407  14.747 -0.4155  2.3486  3.3320
 5808TIP3    H238916   6.013   2.343  14.765 -1.5333 -0.9204  1.1232
 5809TIP3   OH238917   3.408   5.745   2.744 -0.0321 -0.3766  0.1425
 5809TIP3    H138918   3.391   5.678   2.678 -1.6585  1.0853 -1.0077
 5809TIP3    H238919   3.458   5.813   2.699  0.9628 -0.4333  1.0976
 5810TIP3   OH238920   3.601   5.133   5.437  0.1702  0.0101  0.3729
 5810TIP3    H138921   3.613   5.071   5.510 -1.1758 -3.0842 -1.8048
 5810TIP3    H238922   3.637   5.088   5.361 -0.1120  2.3297 -1.2376
 5811TIP3   OH238923   1.298   5.433   2.909 -0.0772  0.3199 -0.0505
 5811TIP3    H138924   1.365   5.499   2.890 -0.3779  0.8790  0.7406
 5811TIP3    H238925   1.298   5.426   3.005 -0.0196 -0.8736 -0.1252
 5812TIP3   OH238926   0.764   1.760  13.185  0.2201 -0.0997 -0.3228
 5812TIP3    H138927   0.752   1.677  13.140  0.5818 -0.0130 -0.5839
 5812TIP3    H238928   0.807   1.737  13.268  0.5192 -0.1505 -0.4925
 5813TIP3   OH238929   0.677   5.497  14.669 -0.3390  0.9984  0.0628
 5813TIP3    H138930   0.716   5.429  14.614  1.4303  2.4509 -0.5920
 5813TIP3    H238931   0.592   5.462  14.694  0.4563 -1.4095 -0.3011
 5814TIP3   OH238932   3.128   2.587  14.552  0.2408  0.6163  0.3929
 5814TIP3    H138933   3.082   2.505  14.574 -1.4053  1.9235  2.1286
 5814TIP3    H238934   3.218   2.571  14.578 -0.3005 -0.2642  1.8597
 5815TIP3   OH238935   0.236   5.489  10.492 -0.1987 -0.6093  0.4822
 5815TIP3    H138936   0.211   5.577  10.522  1.9826 -0.4406  2.0447
 5815TIP3    H238937   0.172   5.431  10.532  0.4890 -0.0285  2.5290
 5816TIP3   OH238938   5.884   2.300  12.871 -0.1163  0.2364 -0.1084
 5816TIP3    H138939   5.837   2.219  12.892 -0.5933  0.7488  0.8650
 5816TIP3    H238940   5.977   2.275  12.873 -0.2921 -0.9178 -2.6156
 5817TIP3   OH238941   3.517   5.721   4.019 -0.0762  0.3272 -0.0683
 5817TIP3    H138942   3.430   5.682   4.012  0.4664 -0.7718 -0.9261
 5817TIP3    H238943   3.550   5.691   4.104  0.2836 -1.0310 -0.6609
 5818TIP3   OH238944   2.901   3.618  15.169 -0.0438 -0.5547 -0.2055
 5818TIP3    H138945   2.941   3.536  15.199  1.7892 -0.2797 -1.6868
 5818TIP3    H238946   2.976   3.676  15.154 -1.2050  0.8577 -0.7021
 5819TIP3   OH238947   5.438   0.970   1.577 -0.2227 -0.4144 -0.0036
 5819TIP3    H138948   5.474   0.914   1.508  1.0145 -0.6496  0.7836
 5819TIP3    H238949   5.514   0.989   1.633 -1.2909 -0.7516  1.6306
 5820TIP3   OH238950   3.267   4.802  12.559 -0.0890 -0.0193 -0.0048
 5820TIP3    H138951   3.349   4.836  12.523  1.1778 -2.2740  0.5045
 5820TIP3    H238952   3.267   4.709  12.533 -2.9529  0.0936 -0.7415
 5821TIP3   OH238953   6.301   3.939  11.165  0.3378  0.8267 -0.1388
 5821TIP3    H138954   6.341   4.006  11.220 -0.5923  2.2739 -1.1481
 5821TIP3    H238955   6.287   3.982  11.081  0.9839 -1.0728 -1.2970
 5822TIP3   OH238956   4.009   1.480  15.508  0.9578 -0.1856  0.3670
 5822TIP3    H138957   4.020   1.388  15.532 -0.2173 -0.4318  0.0501
 5822TIP3    H238958   4.009   1.526  15.592  0.3723 -0.6273  0.6208
 5823TIP3   OH238959   2.147   1.502   5.320 -0.4405  0.0906  0.4128
 5823TIP3    H138960   2.118   1.421   5.361 -0.2143  1.0150  2.5164
 5823TIP3    H238961   2.070   1.558   5.319 -0.3612  0.1943 -0.1501
 5824TIP3   OH238962   0.614   2.849  16.590  0.9477 -0.5389  0.3810
 5824TIP3    H138963   0.618   2.903  16.669 -2.3299  1.5766 -0.7290
 5824TIP3    H238964   0.573   2.767  16.620  0.7014 -0.1809  1.0581
 5825TIP3   OH238965   0.886   4.401  12.509 -0.6778  0.3964  0.1533
 5825TIP3    H138966   0.947   4.437  12.574 -2.1054  1.5916  0.8953
 5825TIP3    H238967   0.937   4.335  12.462  0.7092  0.2118  1.8086
 5826TIP3   OH238968   3.209   4.262  13.136 -0.1572  0.6118 -0.2223
 5826TIP3    H138969   3.124   4.221  13.147  1.0997 -2.2036 -0.0331
 5826TIP3    H238970   3.253   4.250  13.220  0.5057  1.9219 -0.3509
 5827TIP3   OH238971   6.563   3.763   5.843 -0.3093 -0.1003  0.4343
 5827TIP3    H138972   6.595   3.801   5.925  0.1200 -1.0528  0.7260
 5827TIP3    H238973   6.523   3.680   5.869  1.1232 -1.1164 -0.4549
 5828TIP3   OH238974   6.654   2.744   6.354 -0.0040 -0.3705 -0.0831
 5828TIP3    H138975   6.701   2.701   6.426  0.5393 -0.7153 -0.6234
 5828TIP3    H238976   6.713   2.814   6.326 -0.0344 -0.4774 -0.4260
 5829TIP3   OH238977   0.863   3.023   5.275  0.6385  0.0069  0.0827
 5829TIP3    H138978   0.914   3.042   5.354  1.8851 -0.3857 -0.5900
 5829TIP3    H238979   0.775   3.052   5.295  1.1706  0.8987  1.2365
 5830TIP3   OH238980   5.148   4.120   5.126 -0.2943 -0.1385  0.1338
 5830TIP3    H138981   5.191   4.142   5.209  2.4701 -0.3468 -1.1284
 5830TIP3    H238982   5.156   4.025   5.120  0.3669 -0.0464 -0.7358
 5831TIP3   OH238983   1.890   6.246   2.388 -0.0875 -0.0992 -0.9264
 5831TIP3    H138984   1.858   6.156   2.384  0.8687 -0.4273 -1.5439
 5831TIP3    H238985   1.887   6.268   2.481 -2.2071 -0.0506 -0.9624
 5832TIP3   OH238986   0.039   5.046  13.563 -0.6500  0.0599 -0.5328
 5832TIP3    H138987   0.121   5.092  13.579 -0.6580  0.3293 -1.2374
 5832TIP3    H238988  -0.008   5.102  13.501 -1.0055 -0.5014 -0.7736
 5833TIP3   OH238989   5.440   6.270   0.046  0.2411  0.1745  0.2949
 5833TIP3    H138990   5.409   6.183   0.072  0.5118 -0.3551 -1.1029
 5833TIP3    H238991   5.532   6.271   0.070 -0.2454  0.9377  2.3883
 5834TIP3   OH238992   3.137   2.919   2.813  0.4773 -0.2021  0.0767
 5834TIP3    H138993   3.162   2.973   2.888 -0.9824  1.1757 -0.3658
 5834TIP3    H238994   3.137   2.980   2.739 -0.2073 -1.0442 -0.6353
 5835TIP3   OH238995   2.487   3.413   1.489  0.3210  0.3874  0.4480
 5835TIP3    H138996   2.401   3.430   1.450  0.2188  0.2221  0.5994
 5835TIP3    H238997   2.510   3.325   1.460  1.2868  1.1185 -1.1301
 5836TIP3   OH238998   3.704   4.913   0.873 -0.2846 -0.5507 -0.1006
 5836TIP3    H138999   3.758   4.836   0.851  1.5534  0.7423 -0.3243
 5836TIP3    H239000   3.729   4.935   0.963 -0.6142 -0.0524 -0.1261
 5837TIP3   OH239001   0.319   2.083   0.165 -0.3705  0.3781 -0.0988
 5837TIP3    H139002   0.260   2.044   0.230 -0.1048  1.5325  0.8883
 5837TIP3    H239003   0.260   2.129   0.105 -0.7343 -1.9807 -1.6668
 5838TIP3   OH239004   3.894   6.111   5.825 -0.1551  0.0428  0.2015
 5838TIP3    H139005   3.977   6.068   5.844  0.1860  1.1925  1.4614
 5838TIP3    H239006   3.832   6.039   5.813  0.5366 -0.8309  1.6209
 5839TIP3   OH239007   3.652   0.860   2.848  0.4959  0.3322  0.1456
 5839TIP3    H139008   3.642   0.863   2.753 -0.1611 -1.2865  0.1196
 5839TIP3    H239009   3.572   0.898   2.882 -0.3729 -1.2620 -0.0021
 5840TIP3   OH239010   2.092   5.614   5.583  0.3229  0.4301 -0.3008
 5840TIP3    H139011   2.127   5.561   5.654 -2.2510 -0.9109  0.0940
 5840TIP3    H239012   2.166   5.667   5.553  2.1562 -0.9601  1.5252
 5841TIP3   OH239013   2.902   1.753   1.909  0.3887  0.6505  0.1542
 5841TIP3    H139014   2.970   1.686   1.906  1.3463  1.5003  1.6358
 5841TIP3    H239015   2.834   1.715   1.966 -0.1945 -0.0099 -0.9542
 5842TIP3   OH239016   3.791   3.770   4.761 -0.3780 -0.1759 -0.7460
 5842TIP3    H139017   3.782   3.719   4.842 -1.4848  2.9977  1.3322
 5842TIP3    H239018   3.761   3.711   4.692 -2.7265 -1.9801  1.5967
 5843TIP3   OH239019   2.566   5.036   6.725 -0.2702 -0.2809 -0.1841
 5843TIP3    H139020   2.649   5.082   6.740 -0.2402 -0.2248 -0.4953
 5843TIP3    H239021   2.507   5.104   6.691 -0.3881 -0.3574 -0.1329
 5844TIP3   OH239022   1.795   2.721  16.239 -0.1891  0.6936  0.1358
 5844TIP3    H139023   1.715   2.685  16.200 -0.8034  1.3101  0.7994
 5844TIP3    H239024   1.765   2.800  16.285  0.1522 -0.9373  3.4211
 5845TIP3   OH239025   5.049   2.633   5.156  0.1154  0.5960  0.6405
 5845TIP3    H139026   5.065   2.543   5.185  1.4137  0.7447  0.4651
 5845TIP3    H239027   5.082   2.635   5.066 -1.6232  0.7788 -0.0337
 5846TIP3   OH239028   4.822   4.616   3.268 -0.3320 -0.1804  0.5084
 5846TIP3    H139029   4.866   4.569   3.197  1.0013  1.7103 -0.0004
 5846TIP3    H239030   4.839   4.563   3.346  0.9722 -0.6400 -0.0560
 5847TIP3   OH239031   2.532   0.898  12.261  0.0662  0.4312 -0.0700
 5847TIP3    H139032   2.438   0.917  12.266  0.0627  0.0358  1.9389
 5847TIP3    H239033   2.542   0.814  12.307  1.6003  1.2563  1.1789
 5848TIP3   OH239034   2.685   3.604   6.255 -0.2317 -0.0397 -0.2549
 5848TIP3    H139035   2.726   3.571   6.335 -0.8909 -0.4304 -0.0746
 5848TIP3    H239036   2.673   3.527   6.200  2.2163  0.4709 -1.6942
 5849TIP3   OH239037   3.295   2.642  15.194 -0.1135 -0.3770  0.2121
 5849TIP3    H139038   3.299   2.548  15.211 -1.5663 -0.0983  2.5039
 5849TIP3    H239039   3.223   2.652  15.132  1.9660 -0.9564 -2.4837
 5850TIP3   OH239040   0.117   5.874  16.566 -0.2807 -0.7753  0.0457
 5850TIP3    H139041   0.102   5.889  16.659 -1.8995 -2.6818  0.1537
 5850TIP3    H239042   0.212   5.881  16.555 -0.2430  1.8197  1.3363
 5851TIP3   OH239043   5.661   3.270  13.395 -0.1786  0.3311  0.4184
 5851TIP3    H139044   5.728   3.228  13.340 -0.5021  0.3211  0.0227
 5851TIP3    H239045   5.580   3.222  13.374 -1.6464  3.8911 -3.5356
 5852TIP3   OH239046   2.042   5.443  14.305 -0.1731  0.0107 -0.2341
 5852TIP3    H139047   2.120   5.449  14.249 -0.9838 -0.8037 -1.5078
 5852TIP3    H239048   1.969   5.457  14.245 -1.0057  1.5199  1.0796
 5853TIP3   OH239049   6.144   5.934   0.350  0.4097  0.0386 -0.3125
 5853TIP3    H139050   6.239   5.930   0.337  1.0826  3.2314  2.3177
 5853TIP3    H239051   6.118   6.019   0.313 -0.9518  0.3199  1.1897
 5854TIP3   OH239052   0.573   0.473  16.492  0.7461  0.4019 -0.0973
 5854TIP3    H139053   0.598   0.489  16.583  0.3416  0.1339  0.0643
 5854TIP3    H239054   0.518   0.547  16.468 -0.2251 -0.1669  0.2999
 5855TIP3   OH239055   4.725   3.419   5.556  0.5601 -0.1549 -0.0965
 5855TIP3    H139056   4.698   3.432   5.646 -0.1903 -1.5806 -0.0923
 5855TIP3    H239057   4.801   3.362   5.561  0.3002 -0.5350 -0.3685
 5856TIP3   OH239058   3.284   6.775   4.204 -0.2056  0.3203  0.4869
 5856TIP3    H139059   3.278   6.869   4.186 -1.2797  0.4293  1.2739
 5856TIP3    H239060   3.248   6.766   4.292 -0.4488 -0.8779  0.2790
 5857TIP3   OH239061   3.767   1.624  14.891  0.0540  0.0906 -0.0826
 5857TIP3    H139062   3.768   1.601  14.984  0.2868 -1.2635 -0.3969
 5857TIP3    H239063   3.694   1.686  14.883 -1.8585 -1.9466  0.5518
 5858TIP3   OH239064   2.779   2.168  12.918 -0.1480  0.4403 -0.3061
 5858TIP3    H139065   2.704   2.218  12.885 -1.0117 -0.7120 -0.1568
 5858TIP3    H239066   2.751   2.076  12.913 -0.1378  0.1421  3.1101
 5859TIP3   OH239067   2.044   3.150   0.455 -0.2917 -0.1472 -0.1778
 5859TIP3    H139068   2.030   3.162   0.361  1.1709 -0.8084 -0.5156
 5859TIP3    H239069   2.126   3.197   0.473 -1.4945  1.5615  1.1768
 5860TIP3   OH239070   6.317   0.099   5.093  0.5455 -0.2408 -0.7567
 5860TIP3    H139071   6.306   0.125   5.001  1.4607  0.6685 -0.6250
 5860TIP3    H239072   6.375   0.166   5.130 -0.1209 -0.3727  0.5882
 5861TIP3   OH239073   0.228   0.970  12.761  0.0632 -0.2372  0.1943
 5861TIP3    H139074   0.165   1.039  12.743  0.7328  0.2955 -0.1670
 5861TIP3    H239075   0.246   0.931  12.675 -0.3373 -0.8805  0.4019
 5862TIP3   OH239076   5.331   5.036  14.186  1.0594  0.0073 -0.2314
 5862TIP3    H139077   5.326   4.994  14.100  0.7491  2.0323 -1.2558
 5862TIP3    H239078   5.419   5.015  14.218  1.0807 -0.9885 -0.8959
 5863TIP3   OH239079   4.664   2.608  16.788  0.5352  0.2510 -0.1832
 5863TIP3    H139080   4.667   2.522  16.746  0.6924  0.1913 -0.0524
 5863TIP3    H239081   4.582   2.647  16.758  0.1621 -0.1925  0.2433
 5864TIP3   OH239082   4.975   4.886  15.602 -0.5472  0.2564 -0.3784
 5864TIP3    H139083   4.998   4.892  15.509  0.4471 -0.4306 -0.1885
 5864TIP3    H239084   4.884   4.916  15.606 -0.9338 -0.6344 -1.7137
 5865TIP3   OH239085   1.227   3.953   2.476  0.2118  0.3291 -0.1775
 5865TIP3    H139086   1.165   3.882   2.461 -0.2598  0.8270 -0.6167
 5865TIP3    H239087   1.208   3.984   2.564 -0.4943  0.7975 -0.4908
 5866TIP3   OH239088   3.768   3.778   6.471  0.2624  0.1449  0.5750
 5866TIP3    H139089   3.791   3.871   6.472  0.2039  0.1673  2.4370
 5866TIP3    H239090   3.679   3.775   6.434  0.2460  0.8240  0.5599
 5867TIP3   OH239091   4.238   3.733   4.764 -0.1381 -0.0198 -0.2814
 5867TIP3    H139092   4.272   3.758   4.678  0.7118  1.8274  0.5293
 5867TIP3    H239093   4.314   3.701   4.812 -0.6160 -1.1000 -0.2238
 5868TIP3   OH239094   0.733   1.291  15.207 -0.0875  0.7375 -0.5469
 5868TIP3    H139095   0.828   1.302  15.201 -0.0515  1.1521  0.6131
 5868TIP3    H239096   0.698   1.376  15.179 -0.0326  1.3643  1.2017
 5869TIP3   OH239097   5.538   3.216   5.808 -0.0605 -0.3670 -0.0955
 5869TIP3    H139098   5.544   3.120   5.807  0.0619 -0.4785  2.7961
 5869TIP3    H239099   5.623   3.245   5.775  0.2918 -1.2757 -0.0428
 5870TIP3   OH239100   3.875   3.941  11.284  0.9958 -0.2632  0.5997
 5870TIP3    H139101   3.837   3.860  11.319 -0.3875  0.4475  0.8168
 5870TIP3    H239102   3.799   3.991  11.254  1.7643  1.2670  1.1397
 5871TIP3   OH239103   5.181   3.426   6.184  0.6262 -0.7806  0.4502
 5871TIP3    H139104   5.230   3.344   6.193 -1.1126 -1.9795 -0.3675
 5871TIP3    H239105   5.117   3.423   6.256  0.4165 -0.2394  0.2869
 5872TIP3   OH239106   1.338   0.405  11.996 -0.3783 -0.1702 -0.4541
 5872TIP3    H139107   1.287   0.383  12.074  0.8866 -1.6855  0.0147
 5872TIP3    H239108   1.320   0.332  11.935  0.5194 -0.2694 -0.6116
 5873TIP3   OH239109   0.876   5.592  10.832  0.1554 -0.9976 -0.5471
 5873TIP3    H139110   0.896   5.514  10.885 -0.5955 -1.1295 -0.4378
 5873TIP3    H239111   0.809   5.562  10.770 -1.5486 -0.0059  0.7279
 5874TIP3   OH239112   2.076   6.037   3.676  0.2126 -0.5545  0.0396
 5874TIP3    H139113   2.081   6.102   3.747 -0.6108  1.7546 -1.8881
 5874TIP3    H239114   2.165   6.001   3.671  1.1987  1.6797  0.1187
 5875TIP3   OH239115   4.707   5.679   4.841 -0.7143 -0.1816 -0.1423
 5875TIP3    H139116   4.639   5.746   4.831 -0.1748  0.6078  1.2720
 5875TIP3    H239117   4.707   5.633   4.757 -0.2813  2.3763 -1.6498
 5876TIP3   OH239118   0.324   4.959  15.818  0.0127 -0.3841 -0.1966
 5876TIP3    H139119   0.312   4.923  15.730 -0.7072  1.3027 -0.8343
 5876TIP3    H239120   0.382   5.034  15.805 -1.4443  0.9055  0.4750
 5877TIP3   OH239121   0.316   0.849   3.690 -0.1901  0.1142 -0.0802
 5877TIP3    H139122   0.357   0.764   3.705 -0.3226  0.0174 -0.2663
 5877TIP3    H239123   0.378   0.896   3.633 -0.3223 -0.0204 -0.3359
 5878TIP3   OH239124   4.059   2.466   2.647  0.3037 -0.2140 -0.4140
 5878TIP3    H139125   4.009   2.512   2.715 -1.1434  0.5264 -1.9335
 5878TIP3    H239126   3.994   2.418   2.596  1.2610 -0.2105 -1.6929
 5879TIP3   OH239127   5.455   5.397  13.371  0.3868 -0.1038 -0.3452
 5879TIP3    H139128   5.511   5.472  13.352 -0.0229  0.2642 -0.1180
 5879TIP3    H239129   5.468   5.381  13.465 -0.2083  0.2541 -0.1978
 5880TIP3   OH239130   2.575   5.483  14.919  0.0536 -0.0840  0.4624
 5880TIP3    H139131   2.586   5.493  15.014  0.9552  0.7847  0.2879
 5880TIP3    H239132   2.527   5.561  14.892 -1.4324 -0.9817  0.3610
 5881TIP3   OH239133   1.910   0.180  16.664  0.4080  0.0166 -0.0221
 5881TIP3    H139134   1.991   0.133  16.686  1.2218  1.6327  0.6308
 5881TIP3    H239135   1.940   0.268  16.642 -1.1740  0.6050  0.1119
 5882TIP3   OH239136   2.261   3.944   5.066 -0.4991  0.3957 -0.6198
 5882TIP3    H139137   2.222   3.868   5.023  1.1249 -0.7343 -0.1867
 5882TIP3    H239138   2.192   3.979   5.121 -1.1866 -0.9683 -0.5754
 5883TIP3   OH239139   0.718   1.691  15.540  0.0312  0.7850  0.3156
 5883TIP3    H139140   0.634   1.735  15.534 -0.8562 -0.9984 -1.3823
 5883TIP3    H239141   0.741   1.695  15.633 -2.5852  0.1353  1.0542
 5884TIP3   OH239142   3.743   4.846  16.001 -0.1654 -0.1134  0.1603
 5884TIP3    H139143   3.808   4.854  15.932 -0.1610  0.7244  0.2534
 5884TIP3    H239144   3.664   4.887  15.965 -0.1805  0.2739  0.6169
 5885TIP3   OH239145   0.873   4.363   2.004 -1.0098 -0.3837  0.5929
 5885TIP3    H139146   0.795   4.309   2.017 -0.7545 -0.6845  0.8815
 5885TIP3    H239147   0.840   4.446   1.969 -1.2750 -1.3241 -1.5257
 5886TIP3   OH239148   1.211   0.958  13.178 -0.2510  0.2571  0.1125
 5886TIP3    H139149   1.283   0.989  13.124  0.2527  1.6179  1.4897
 5886TIP3    H239150   1.248   0.888  13.231 -0.0487  0.6506  0.4967
 5887TIP3   OH239151   5.857   3.712  13.642  0.1575 -0.3231 -0.2436
 5887TIP3    H139152   5.791   3.773  13.676 -0.3014 -1.2888  0.6810
 5887TIP3    H239153   5.814   3.626  13.647  1.2743 -0.8952 -0.1956
 5888TIP3   OH239154   6.727   6.282  16.891  0.6718 -0.3206 -0.0761
 5888TIP3    H139155   6.690   6.205  16.847 -1.1502  0.8162 -0.6380
 5888TIP3    H239156   6.773   6.329  16.821  3.0859 -1.5606  0.5527
 5889TIP3   OH239157   2.682   0.673   3.874  0.0336  0.4299  0.1061
 5889TIP3    H139158   2.727   0.725   3.806  1.6029 -0.1791  0.6341
 5889TIP3    H239159   2.589   0.679   3.851  0.2001  2.9361 -0.2211
 5890TIP3   OH239160   3.422   1.413   2.561 -0.0706  0.5587  0.7072
 5890TIP3    H139161   3.471   1.428   2.480  1.3264  0.2100  1.4515
 5890TIP3    H239162   3.336   1.453   2.546 -1.6134 -3.3281 -2.6780
 5891TIP3   OH239163   4.677   0.978  15.903  0.3234 -0.3718  0.4104
 5891TIP3    H139164   4.619   0.975  15.979 -0.4372  0.0496 -0.1434
 5891TIP3    H239165   4.739   0.907  15.918 -0.4536 -0.9600  0.9234
 5892TIP3   OH239166   2.008   5.573  12.033 -0.5233  0.1831 -0.3392
 5892TIP3    H139167   2.029   5.590  11.941 -0.5499 -0.2076 -0.4204
 5892TIP3    H239168   1.979   5.482  12.035 -0.3600  0.1334  0.0828
 5893TIP3   OH239169   0.580   5.635  12.543  0.3621 -0.0068 -0.1418
 5893TIP3    H139170   0.670   5.607  12.527  0.8460  1.2893  0.1984
 5893TIP3    H239171   0.587   5.728  12.563 -1.2390  0.5449 -1.8270
 5894TIP3   OH239172   3.977   3.679  12.189  0.3569 -0.6239 -0.7391
 5894TIP3    H139173   3.946   3.613  12.128  2.3181 -1.9650 -0.4021
 5894TIP3    H239174   3.998   3.629  12.269 -1.4748  0.9624  0.8382
 5895TIP3   OH239175   3.582   4.723  12.735 -0.7929  0.1091  0.0278
 5895TIP3    H139176   3.671   4.753  12.754 -0.8969  0.0739  0.6068
 5895TIP3    H239177   3.561   4.761  12.651 -0.0103 -0.3492 -0.3928
 5896TIP3   OH239178   2.546   1.383  15.174  0.2094 -0.2144 -0.5400
 5896TIP3    H139179   2.541   1.478  15.181 -0.7567 -0.3146  0.3552
 5896TIP3    H239180   2.635   1.362  15.200  0.4660  0.4523 -0.8570
 5897TIP3   OH239181   3.901   4.672   4.023 -0.0226 -0.6212 -0.3041
 5897TIP3    H139182   3.838   4.632   3.964  0.1939  0.5732 -1.4177
 5897TIP3    H239183   3.963   4.716   3.964 -0.1702  1.1804  0.8166
 5898TIP3   OH239184   4.836   6.796   2.577 -0.1808  0.4183 -0.0902
 5898TIP3    H139185   4.789   6.738   2.517 -0.7939 -0.3277  1.0815
 5898TIP3    H239186   4.923   6.805   2.537 -0.6219  0.0816 -1.1733
 5899TIP3   OH239187   4.670   2.391  15.342  0.1392 -0.0598  0.0777
 5899TIP3    H139188   4.722   2.408  15.421  0.0169  0.2281  0.0968
 5899TIP3    H239189   4.579   2.397  15.371  0.0621 -2.0722  0.3747
 5900TIP3   OH239190   6.446   3.794  14.923 -0.4448 -0.2657 -0.1782
 5900TIP3    H139191   6.351   3.794  14.909 -0.5657 -2.5422  0.3305
 5900TIP3    H239192   6.481   3.742  14.851  0.1725 -1.2615  0.8189
 5901TIP3   OH239193   1.213   1.446   1.365 -0.4076 -0.1123  0.3407
 5901TIP3    H139194   1.271   1.496   1.308 -1.7965  1.2130  0.0206
 5901TIP3    H239195   1.141   1.418   1.308 -0.5253 -1.0052  0.8987
 5902TIP3   OH239196   6.311   0.572   1.874  0.4855  0.3158 -0.1739
 5902TIP3    H139197   6.367   0.527   1.937  0.3286  0.1264 -0.1695
 5902TIP3    H239198   6.271   0.643   1.924 -0.8582 -0.7813  0.3512
 5903TIP3   OH239199   0.263   5.295  15.739 -0.5606  0.1481  0.9131
 5903TIP3    H139200   0.341   5.243  15.757  1.3744  2.8242  0.8530
 5903TIP3    H239201   0.283   5.381  15.776 -2.1504  1.8599 -1.8923
 5904TIP3   OH239202   2.794   6.603   3.822 -0.4964  0.3303  0.1326
 5904TIP3    H139203   2.701   6.626   3.811 -0.5950 -0.4276 -0.7458
 5904TIP3    H239204   2.797   6.509   3.808  0.5953  0.5357 -1.1811
 5905TIP3   OH239205   0.452   5.390   2.685 -0.2369  0.1334  0.0414
 5905TIP3    H139206   0.529   5.399   2.629  0.0267  3.2104  0.7215
 5905TIP3    H239207   0.483   5.343   2.762 -0.5989 -4.1649 -2.1162
 5906TIP3   OH239208   0.432   0.763   2.723 -0.4136 -0.1594  0.3027
 5906TIP3    H139209   0.412   0.704   2.650  1.3277  1.0618 -1.2598
 5906TIP3    H239210   0.374   0.735   2.794 -2.4020 -1.2152 -1.6392
 5907TIP3   OH239211   2.201   6.554  16.227 -0.0035 -0.6147  0.0613
 5907TIP3    H139212   2.272   6.535  16.288 -0.8687 -0.0117  1.3013
 5907TIP3    H239213   2.205   6.483  16.163  1.9232 -0.3898 -0.1260
 5908TIP3   OH239214   3.762   0.877   2.547 -0.2824  0.5424  0.7915
 5908TIP3    H139215   3.705   0.801   2.538 -1.1809  0.9606  2.4564
 5908TIP3    H239216   3.848   0.840   2.567  0.2193 -0.1096 -2.0971
 5909TIP3   OH239217   2.174   0.651  16.461  0.5049  0.4649 -0.1394
 5909TIP3    H139218   2.143   0.655  16.370  1.9333 -1.3960 -0.7873
 5909TIP3    H239219   2.123   0.717  16.507 -0.4585  1.2740 -2.2399
 5910TIP3   OH239220   6.785   6.563  14.534 -0.1451  0.1338 -0.3931
 5910TIP3    H139221   6.712   6.534  14.480 -0.3853 -2.4615  1.1108
 5910TIP3    H239222   6.863   6.546  14.480 -0.3817 -2.3351 -0.0758
 5911TIP3   OH239223   2.759   5.945  15.897 -0.1533  0.2476 -0.6666
 5911TIP3    H139224   2.692   6.013  15.902  0.9034  1.2586  0.3578
 5911TIP3    H239225   2.839   5.987  15.928  0.6852 -1.2873 -0.6168
 5912TIP3   OH239226   0.955   1.824  16.089  0.2040 -0.2351  0.8925
 5912TIP3    H139227   0.953   1.728  16.091  0.8434 -0.3974 -1.9315
 5912TIP3    H239228   1.039   1.845  16.049 -1.1724  1.3398 -1.3574
 5913TIP3   OH239229   4.914   4.989  14.539 -0.4962  0.3803  0.0417
 5913TIP3    H139230   4.901   5.050  14.466  0.3947  0.5993  0.0557
 5913TIP3    H239231   4.977   4.925  14.506  0.3493  0.8061  0.7980
 5914TIP3   OH239232   0.628   2.467   2.445  0.8022 -0.0552  0.0641
 5914TIP3    H139233   0.707   2.495   2.397  1.1189  1.1023  1.2041
 5914TIP3    H239234   0.658   2.452   2.534  0.1773 -2.0156 -0.0026
 5915TIP3   OH239235   6.166   0.751  11.985  0.3663 -0.3296 -0.1334
 5915TIP3    H139236   6.248   0.785  12.021 -0.9891  1.4976  1.4498
 5915TIP3    H239237   6.175   0.656  11.992  1.6353 -0.1313  1.7787
 5916TIP3   OH239238   6.159   1.725   4.057  0.0177 -0.2693  0.3817
 5916TIP3    H139239   6.209   1.697   3.981  1.1185  0.2212  0.9146
 5916TIP3    H239240   6.070   1.739   4.023  0.0933 -1.5982 -0.4801
 5917TIP3   OH239241   3.889   3.731  15.595 -0.6194  0.3255  0.3198
 5917TIP3    H139242   3.813   3.780  15.562  0.1462  0.4820 -1.3278
 5917TIP3    H239243   3.854   3.677  15.666 -2.0489  1.1912  0.3007
 5918TIP3   OH239244   1.687   6.222  13.382 -0.1187 -0.4659 -0.1507
 5918TIP3    H139245   1.593   6.206  13.391 -0.1219 -0.5214 -0.2905
 5918TIP3    H239246   1.702   6.305  13.427 -0.0876 -0.9049  0.6776
 5919TIP3   OH239247   4.565   6.734  14.945 -0.2266  0.0625  0.3474
 5919TIP3    H139248   4.543   6.674  14.874 -1.2331  1.1620 -0.3153
 5919TIP3    H239249   4.543   6.821  14.911 -2.2054  0.5188  2.5124
 5920TIP3   OH239250   3.468   6.230   0.613  0.1741  0.1655  0.6496
 5920TIP3    H139251   3.457   6.135   0.601 -0.9859  0.4645 -0.9121
 5920TIP3    H239252   3.521   6.257   0.538 -0.8769  1.0024  0.1997
 5921TIP3   OH239253   6.345   4.723  15.242  0.3261 -0.7133 -0.3190
 5921TIP3    H139254   6.289   4.649  15.214  2.0809 -2.3482  0.2785
 5921TIP3    H239255   6.431   4.702  15.207  0.7360  1.4811 -0.7522
 5922TIP3   OH239256   2.110   4.048   5.918  0.1113 -0.4035 -0.0282
 5922TIP3    H139257   2.195   4.050   5.873  1.4246  0.4156  2.3361
 5922TIP3    H239258   2.101   4.135   5.956 -1.8392 -0.4773 -0.2309
 5923TIP3   OH239259   1.437   1.489   2.200 -0.0721  0.2621  0.4157
 5923TIP3    H139260   1.351   1.510   2.163 -0.9252  0.5791  2.4433
 5923TIP3    H239261   1.433   1.521   2.290  2.2551  0.4404  0.5183
 5924TIP3   OH239262   4.803   3.055   0.439  0.3992  0.0565 -0.0399
 5924TIP3    H139263   4.802   3.064   0.534 -0.2853  2.3370 -0.1845
 5924TIP3    H239264   4.723   3.098   0.410  0.8444 -0.1275 -1.6750
 5925TIP3   OH239265   0.877   3.599  15.705 -0.3015  0.3630 -0.1987
 5925TIP3    H139266   0.833   3.673  15.663  0.1790  0.7498 -0.0247
 5925TIP3    H239267   0.849   3.604  15.797 -0.7127 -0.0037 -0.3036
 5926TIP3   OH239268   6.193   0.739  14.884  0.3091  0.3156 -0.8265
 5926TIP3    H139269   6.134   0.776  14.818 -0.7102  3.6216  1.6615
 5926TIP3    H239270   6.136   0.713  14.956  1.6151  2.9801  1.3866
 5927TIP3   OH239271   5.805   4.868  13.282  0.2164 -0.1398  0.6519
 5927TIP3    H139272   5.797   4.773  13.294 -0.5384 -0.0350  1.0662
 5927TIP3    H239273   5.788   4.904  13.369 -2.6850  0.5295 -0.0810
 5928TIP3   OH239274   1.510   5.471  11.811  0.1000  0.5721 -0.2010
 5928TIP3    H139275   1.436   5.430  11.856  0.8579 -1.4783 -0.7138
 5928TIP3    H239276   1.477   5.492  11.724  0.2579 -0.9804 -0.6690
 5929TIP3   OH239277   6.691   1.178   2.275 -0.1230  0.7343  0.4794
 5929TIP3    H139278   6.722   1.269   2.270 -0.8660  1.0180  0.7573
 5929TIP3    H239279   6.722   1.147   2.360  1.3446  0.2405 -0.2007
 5930TIP3   OH239280   4.902   1.909   4.907 -0.0443  0.8082 -0.1439
 5930TIP3    H139281   4.977   1.877   4.958 -1.1486  0.1256  1.1014
 5930TIP3    H239282   4.848   1.956   4.970 -0.1631  2.2265 -1.2514
 5931TIP3   OH239283   2.037   3.300  17.099 -0.1508  0.0212 -0.6284
 5931TIP3    H139284   2.012   3.350  17.022  1.3370  1.2918 -0.3383
 5931TIP3    H239285   2.000   3.348  17.172  0.8132  0.4108 -0.3839
 5932TIP3   OH239286   2.941   1.204   3.404  0.0742  0.0239  0.2108
 5932TIP3    H139287   2.919   1.252   3.324  2.2120 -0.4254 -0.7420
 5932TIP3    H239288   2.970   1.271   3.466  0.2032  0.2237 -0.0645
 5933TIP3   OH239289   5.347   0.252  14.848 -0.3085 -0.0677  0.1418
 5933TIP3    H139290   5.436   0.244  14.881  0.6950  0.0471 -2.3009
 5933TIP3    H239291   5.300   0.177  14.886  1.1772 -0.8850  0.4443
 5934TIP3   OH239292   6.367   5.125  13.671 -0.3126 -0.6559  0.4087
 5934TIP3    H139293   6.360   5.038  13.632 -1.0345 -1.2530  1.8124
 5934TIP3    H239294   6.452   5.126  13.714  1.1274  0.5084 -2.2609
 5935TIP3   OH239295   0.463   6.256   1.162 -0.1706 -0.0932 -0.1616
 5935TIP3    H139296   0.552   6.287   1.149 -0.5343  0.5747 -1.1318
 5935TIP3    H239297   0.427   6.314   1.229  0.1390 -0.4304  0.3102
 5936TIP3   OH239298   5.775   4.352  15.494  0.5049 -0.5083 -0.3463
 5936TIP3    H139299   5.736   4.267  15.474  1.6547 -1.4859  1.3978
 5936TIP3    H239300   5.869   4.339  15.483  0.7004  0.5562 -0.0755
 5937TIP3   OH239301   2.076   0.216   5.967  0.0263  0.8807  0.0559
 5937TIP3    H139302   1.988   0.188   5.941  0.8773 -2.6656  0.4112
 5937TIP3    H239303   2.111   0.261   5.890 -1.0977 -0.2929 -1.1901
 5938TIP3   OH239304   1.264   5.815   5.711  0.8051  0.0785  1.1312
 5938TIP3    H139305   1.216   5.801   5.630  0.9191  1.8053  0.7095
 5938TIP3    H239306   1.202   5.793   5.781  0.6611 -1.2742  0.5937
 5939TIP3   OH239307   4.604   1.830  15.287  0.9656  0.6735 -0.2490
 5939TIP3    H139308   4.596   1.920  15.320  0.1539  0.0089  1.5211
 5939TIP3    H239309   4.515   1.797  15.286  1.2307 -0.0580 -1.1195
 5940TIP3   OH239310   5.186   2.292  13.089  0.1715  0.5693  0.6094
 5940TIP3    H139311   5.231   2.208  13.081  1.6441  1.1026  2.4903
 5940TIP3    H239312   5.115   2.287  13.025  0.6702 -1.7875  0.1298
 5941TIP3   OH239313   5.136   4.954   3.643  0.3799  0.1033  0.5256
 5941TIP3    H139314   5.225   4.988   3.637  0.4280  0.0340  0.8241
 5941TIP3    H239315   5.118   4.950   3.737  0.0099  0.2546  0.4640
 5942TIP3   OH239316   2.033   4.647  14.062  0.1928 -0.1947 -0.0383
 5942TIP3    H139317   2.056   4.693  13.981 -1.0189  1.0991  0.3061
 5942TIP3    H239318   2.106   4.587  14.077  0.8024  0.0663 -1.6785
 5943TIP3   OH239319   2.070   0.014   4.201 -0.6396 -0.4585 -0.0788
 5943TIP3    H139320   2.154  -0.030   4.213 -0.3127 -0.2159 -1.3464
 5943TIP3    H239321   2.062   0.026   4.106 -1.3801  0.9250  0.1276
 5944TIP3   OH239322   6.242   0.849  16.759  0.4660 -0.3179  0.1614
 5944TIP3    H139323   6.264   0.940  16.781  1.1839  0.0338 -1.7840
 5944TIP3    H239324   6.178   0.857  16.689 -3.0748 -1.3730  3.0035
 5945TIP3   OH239325   1.536   4.304  16.642 -0.7560  0.1095  0.5524
 5945TIP3    H139326   1.518   4.244  16.570 -0.0292  0.6925 -0.1441
 5945TIP3    H239327   1.498   4.262  16.719 -0.0041 -1.3915  0.1430
 5946TIP3   OH239328   3.297   1.750   5.619 -0.2581 -0.1570  0.2015
 5946TIP3    H139329   3.317   1.661   5.590 -1.0935 -0.0602 -0.7556
 5946TIP3    H239330   3.360   1.769   5.688  0.6272 -1.0988 -0.3393
 5947TIP3   OH239331   2.833   4.245  15.419  0.1132  0.4919  0.2949
 5947TIP3    H139332   2.747   4.246  15.462 -1.0365  0.0484 -1.8310
 5947TIP3    H239333   2.852   4.152  15.408  0.6232  0.5981  0.2782
 5948TIP3   OH239334   3.667   1.053  15.675  0.6314  0.3818 -0.4336
 5948TIP3    H139335   3.721   1.120  15.634  0.6796  0.5553 -0.0917
 5948TIP3    H239336   3.725   0.978  15.686  0.7129  0.4565 -0.3583
 5949TIP3   OH239337   3.419   2.970  14.718 -0.0588  0.6742  0.7267
 5949TIP3    H139338   3.423   2.878  14.692 -1.6676  0.2335  1.8920
 5949TIP3    H239339   3.507   2.990  14.750  0.3718 -0.3790  0.2338
 5950TIP3   OH239340   1.013   4.881  11.081  0.4291 -0.3266 -0.3727
 5950TIP3    H139341   1.018   4.962  11.132 -1.3505 -0.9328  0.8917
 5950TIP3    H239342   1.025   4.909  10.991  2.3001  0.9887  0.2165
 5951TIP3   OH239343   3.934   3.418   3.770 -0.6757  0.3601  0.0495
 5951TIP3    H139344   4.008   3.451   3.719 -0.1864  2.3394  1.8861
 5951TIP3    H239345   3.937   3.323   3.759  2.8004  0.2652  0.8669
 5952TIP3   OH239346   5.375   3.006   1.577 -0.1545 -0.4764  0.1101
 5952TIP3    H139347   5.417   3.067   1.517 -2.1619  0.0467 -0.8260
 5952TIP3    H239348   5.322   3.061   1.634  0.9125 -1.0563  1.7634
 5953TIP3   OH239349   2.088   2.986   5.027 -0.0235 -0.0163  0.4365
 5953TIP3    H139350   2.022   3.014   4.964  1.8260  2.8685 -0.3764
 5953TIP3    H239351   2.159   2.950   4.974  0.1832 -0.6617  1.1297
 5954TIP3   OH239352   4.631   6.030   1.017 -0.3975 -0.1997 -0.1316
 5954TIP3    H139353   4.636   5.965   0.947 -2.1892 -0.7454  0.1960
 5954TIP3    H239354   4.677   6.107   0.982  0.1662 -1.0205 -1.2403
 5955TIP3   OH239355   3.188   1.707  12.169  0.1013 -0.1967 -0.1567
 5955TIP3    H139356   3.222   1.644  12.232 -1.8250  0.0733  1.2735
 5955TIP3    H239357   3.241   1.786  12.182 -1.2508  0.4078  2.4126
 5956TIP3   OH239358   5.531   6.483  16.233 -0.8261 -0.2442  0.1035
 5956TIP3    H139359   5.586   6.427  16.179  0.0086  0.6344  0.0173
 5956TIP3    H239360   5.513   6.431  16.311 -0.2597 -0.7153 -0.0794
 5957TIP3   OH239361   2.329   3.214  14.182 -0.3784  0.1071 -0.6957
 5957TIP3    H139362   2.257   3.151  14.187 -0.3810  0.0785 -1.0506
 5957TIP3    H239363   2.379   3.187  14.104  1.1618 -1.0847  0.6378
 5958TIP3   OH239364   1.197   6.309   1.430  0.0675  0.3704 -0.2443
 5958TIP3    H139365   1.127   6.268   1.480 -0.2317  1.6051  0.3837
 5958TIP3    H239366   1.257   6.343   1.496  1.7593 -1.4488 -0.7735
 5959TIP3   OH239367   1.065   2.979  15.376  0.4171 -0.6629  0.3783
 5959TIP3    H139368   1.130   3.007  15.441 -1.3988  0.8616  1.6513
 5959TIP3    H239369   1.013   2.914  15.422  0.2159 -0.8966 -0.1803
 5960TIP3   OH239370   2.166   1.843   4.845 -0.2669 -0.1221 -0.1636
 5960TIP3    H139371   2.261   1.841   4.861 -0.0010 -0.2727 -1.5991
 5960TIP3    H239372   2.135   1.758   4.876  0.6471 -1.4715 -2.6739
 5961TIP3   OH239373   4.627   1.408   3.692  0.1195  0.1080 -0.6544
 5961TIP3    H139374   4.571   1.482   3.713  1.2187  1.0279 -0.8729
 5961TIP3    H239375   4.688   1.441   3.626 -0.6077 -1.5344 -2.2347
 5962TIP3   OH239376   4.547   1.672  13.001 -0.5294  0.4358 -0.4752
 5962TIP3    H139377   4.583   1.622  13.074 -0.8522 -2.0425 -1.8687
 5962TIP3    H239378   4.609   1.657  12.929  0.0501  3.2043 -0.6547
 5963TIP3   OH239379   6.830   5.199   0.431  0.0550  0.0354  0.2737
 5963TIP3    H139380   6.896   5.229   0.369  2.6776 -0.7223  2.4953
 5963TIP3    H239381   6.853   5.107   0.447 -1.9751 -0.4568  0.6926
 5964TIP3   OH239382   3.316   6.517  14.875  0.0692 -0.1428  0.4443
 5964TIP3    H139383   3.304   6.611  14.886  0.7272  0.1622 -1.1651
 5964TIP3    H239384   3.410   6.504  14.881  0.2771 -0.2533 -2.0497
 5965TIP3   OH239385   1.477   6.157   3.686  0.3413 -0.2421 -0.1019
 5965TIP3    H139386   1.412   6.227   3.683  0.6175  0.0669  0.8363
 5965TIP3    H239387   1.427   6.079   3.711  0.1679 -0.2267 -0.3896
 5966TIP3   OH239388   1.578   0.689   0.202 -0.2730 -0.2088  0.8500
 5966TIP3    H139389   1.523   0.767   0.195 -0.4677 -0.2726  1.6011
 5966TIP3    H239390   1.587   0.674   0.296 -1.0001 -1.6071  0.7356
 5967TIP3   OH239391   5.091   1.658   1.552 -0.2729 -0.2343 -0.2325
 5967TIP3    H139392   5.157   1.725   1.567 -1.0431  0.3022  0.8655
 5967TIP3    H239393   5.124   1.581   1.599  0.1815 -0.3705 -0.7615
 5968TIP3   OH239394   0.590   3.789  14.322 -0.2609 -0.2990  0.0122
 5968TIP3    H139395   0.646   3.840  14.381 -0.6249 -0.2595  0.3296
 5968TIP3    H239396   0.507   3.781  14.369 -0.5934 -0.1728 -0.5509
 5969TIP3   OH239397   1.590   4.583   2.687 -0.6040 -0.2267 -0.3266
 5969TIP3    H139398   1.659   4.571   2.621  0.4437 -1.7199  0.9539
 5969TIP3    H239399   1.532   4.508   2.675 -0.4182 -0.4956  0.4074
 5970TIP3   OH239400   2.467   2.664  12.452 -0.4812 -0.1149 -0.4988
 5970TIP3    H139401   2.504   2.580  12.479 -0.1685  0.3675  0.6831
 5970TIP3    H239402   2.462   2.660  12.357  1.0943 -0.8402 -0.5754
 5971TIP3   OH239403   0.956   1.023  15.021  0.1697 -0.3748 -0.6206
 5971TIP3    H139404   1.019   0.951  15.022  1.0445  0.2211 -3.3126
 5971TIP3    H239405   0.992   1.088  15.081 -0.9638 -2.3258  2.3503
 5972TIP3   OH239406   6.688   0.637   2.975 -0.1982  0.6200 -0.1635
 5972TIP3    H139407   6.735   0.688   2.909 -0.5861  0.7536 -0.3386
 5972TIP3    H239408   6.629   0.700   3.016 -2.1800 -0.0862 -1.7751
 5973TIP3   OH239409   4.658   5.795   0.890  0.1492 -0.2740  0.0868
 5973TIP3    H139410   4.690   5.748   0.813 -0.4860  0.8180 -0.8755
 5973TIP3    H239411   4.656   5.729   0.959  0.5898 -1.3201 -0.8664
 5974TIP3   OH239412   3.427   2.776   3.724 -0.4710 -0.3683  0.0536
 5974TIP3    H139413   3.346   2.729   3.744 -1.1512  0.5791 -0.4097
 5974TIP3    H239414   3.483   2.761   3.800 -1.0204 -1.1612  0.3126
 5975TIP3   OH239415   4.515   5.342   5.059  0.6842  0.2811  0.1507
 5975TIP3    H139416   4.507   5.317   5.151  0.3309  0.0852  0.0694
 5975TIP3    H239417   4.553   5.430   5.061  1.6340 -0.1347  0.4441
 5976TIP3   OH239418   0.448   3.080   1.341  0.1288 -0.3085 -0.6806
 5976TIP3    H139419   0.414   3.131   1.268 -1.1130  2.1673  1.4710
 5976TIP3    H239420   0.397   3.108   1.416  2.8156 -1.0628  1.6141
 5977TIP3   OH239421   1.140   4.558   4.659 -0.1875 -0.3961  0.3037
 5977TIP3    H139422   1.192   4.548   4.739 -1.2801 -0.4318  1.0324
 5977TIP3    H239423   1.100   4.472   4.647  0.9773 -0.7916 -1.0348
 5978TIP3   OH239424   1.928   3.437   3.713 -0.1824 -0.2947  0.0447
 5978TIP3    H139425   1.889   3.515   3.751  1.6826 -0.2189  2.0330
 5978TIP3    H239426   1.864   3.368   3.729 -0.4305  0.2037  1.3918
 5979TIP3   OH239427   3.487   3.136   3.311 -0.5000 -0.8794  0.0803
 5979TIP3    H139428   3.438   3.054   3.305 -0.3652 -0.9101 -0.6290
 5979TIP3    H239429   3.527   3.147   3.225  0.5535 -0.7337  0.5755
 5980TIP3   OH239430   2.613   0.432  15.792  0.0560 -0.1954  0.6972
 5980TIP3    H139431   2.532   0.450  15.840  0.9461  1.4590  1.6529
 5980TIP3    H239432   2.606   0.484  15.713  0.6106  0.7955  1.2776
 5981TIP3   OH239433   6.387   0.674   2.674 -0.5414  0.1031 -0.2933
 5981TIP3    H139434   6.369   0.582   2.653 -1.0959 -0.0201  0.6562
 5981TIP3    H239435   6.306   0.720   2.655  0.0539  0.6031 -1.7771
 5982TIP3   OH239436   3.669   3.953  15.994 -0.3248  0.2949 -0.2600
 5982TIP3    H139437   3.625   4.016  15.937 -0.0296 -0.2293 -1.0820
 5982TIP3    H239438   3.689   4.002  16.074 -0.1286  1.2214 -0.8735
 5983TIP3   OH239439   4.929   1.923   3.905 -0.2535  0.0247  0.5443
 5983TIP3    H139440   4.881   1.862   3.848  0.0716  0.0252  0.2665
 5983TIP3    H239441   4.863   1.986   3.933 -0.2546  0.5153 -0.5086
 5984TIP3   OH239442   0.970   2.358  14.413  0.0930  0.4782 -0.1966
 5984TIP3    H139443   0.882   2.397  14.408 -0.1432 -0.0449 -0.1687
 5984TIP3    H239444   1.029   2.429  14.389 -0.3169  0.9333  0.1297
 5985TIP3   OH239445   4.092   2.818  16.787 -0.2001  0.0882 -0.1296
 5985TIP3    H139446   4.002   2.838  16.812 -0.9281 -0.7153 -1.9162
 5985TIP3    H239447   4.139   2.900  16.799 -0.8011  0.1498  2.2249
 5986TIP3   OH239448   5.072   6.636  14.741 -0.3907  0.1037 -0.3671
 5986TIP3    H139449   5.127   6.636  14.819 -0.6298 -2.2569 -0.1303
 5986TIP3    H239450   5.133   6.654  14.669  0.3217 -0.3642  0.1058
 5987TIP3   OH239451   0.689   3.406  16.206 -0.3287  0.4238 -0.0261
 5987TIP3    H139452   0.617   3.361  16.251  0.0259 -0.4782 -0.3231
 5987TIP3    H239453   0.721   3.341  16.144  1.9638  0.0897  1.3957
 5988TIP3   OH239454   4.623   0.385  16.602 -0.2431  0.6550 -0.5457
 5988TIP3    H139455   4.585   0.309  16.559  0.4886 -0.2064  0.2799
 5988TIP3    H239456   4.714   0.360  16.620 -0.1797  1.4437  0.3727
 5989TIP3   OH239457   3.190   5.181  11.134  0.4997 -0.7390  0.2122
 5989TIP3    H139458   3.148   5.101  11.102  0.8452 -1.4149  1.3864
 5989TIP3    H239459   3.134   5.251  11.102 -0.5132 -1.5167  0.2150
 5990TIP3   OH239460   1.035   4.973   1.448  0.0909  0.7061 -0.1599
 5990TIP3    H139461   1.025   4.911   1.521  0.2443  1.9686  0.9663
 5990TIP3    H239462   0.946   5.000   1.428 -0.0175 -0.1901 -0.9578
 5991TIP3   OH239463   4.841   4.980   4.952  0.2480  0.4409  0.3012
 5991TIP3    H139464   4.811   5.069   4.972 -0.6416 -0.1170  1.5981
 5991TIP3    H239465   4.936   4.987   4.947  0.6480  0.7589  4.6870
 5992TIP3   OH239466   1.132   4.622   1.951  0.1886  0.1813 -0.6765
 5992TIP3    H139467   1.043   4.589   1.936 -0.3652  1.1388  0.3463
 5992TIP3    H239468   1.153   4.670   1.871  0.6979 -1.8997 -1.8606
 5993TIP3   OH239469   6.619   3.303  12.234 -0.8322  1.0534  0.1722
 5993TIP3    H139470   6.580   3.374  12.284 -2.1484  0.8243 -0.4645
 5993TIP3    H239471   6.554   3.232  12.240 -1.0559  1.0365 -1.8444
 5994TIP3   OH239472   1.052   5.752   0.983 -0.0313 -0.8465  0.3106
 5994TIP3    H139473   1.124   5.809   1.010  0.2942 -1.5209  0.9056
 5994TIP3    H239474   1.074   5.727   0.893  0.0087 -0.3173  0.1750
 5995TIP3   OH239475   6.385   0.482  12.307 -0.4078 -0.1118 -0.1754
 5995TIP3    H139476   6.326   0.545  12.348 -1.2772 -0.5575 -0.6927
 5995TIP3    H239477   6.380   0.405  12.363 -2.1150 -0.9616 -1.3969
 5996TIP3   OH239478   2.431   6.359  10.920 -0.6620  0.2285  0.2506
 5996TIP3    H139479   2.491   6.337  10.992  1.0191 -1.7862 -1.6052
 5996TIP3    H239480   2.401   6.447  10.940  2.6011  1.2017  1.6110
 5997TIP3   OH239481   6.434   0.142  16.081 -0.0945 -0.3906 -0.0410
 5997TIP3    H139482   6.503   0.077  16.086  1.9008  1.5345 -0.8305
 5997TIP3    H239483   6.432   0.168  15.988 -1.8688 -0.3611 -0.0360
 5998TIP3   OH239484   3.067   6.419  15.036 -0.0689  0.1008 -0.2490
 5998TIP3    H139485   3.042   6.447  14.948 -1.7219  0.3212  0.2531
 5998TIP3    H239486   3.127   6.487  15.066 -1.6769  1.5837 -0.1910
 5999TIP3   OH239487   3.424   0.294  16.982  0.0925  1.0670  0.0052
 5999TIP3    H139488   3.411   0.215  16.929  0.1626  1.3087 -0.3730
 5999TIP3    H239489   3.489   0.345  16.933 -0.0154  1.3977  0.2075
 6000TIP3   OH239490   0.965   4.278   1.337 -0.1302 -0.2187 -0.0328
 6000TIP3    H139491   0.934   4.197   1.378  1.3524 -1.0458 -0.4622
 6000TIP3    H239492   1.058   4.283   1.360  0.2260  0.4302 -1.4476
 6001TIP3   OH239493   6.654   6.265  11.516  0.4452 -0.1652 -0.3380
 6001TIP3    H139494   6.681   6.336  11.457 -1.5474  0.6850 -0.3340
 6001TIP3    H239495   6.604   6.206  11.460  1.1802 -1.0150 -0.1077
 6002TIP3   OH239496   4.496   2.117  11.893  0.4640 -0.0147  0.4643
 6002TIP3    H139497   4.567   2.123  11.829  0.5678  0.7661  0.6318
 6002TIP3    H239498   4.438   2.191  11.872 -1.0957 -1.4716 -0.5832
 6003TIP3   OH239499   2.415   6.536  16.423 -0.0736 -0.5376  0.1050
 6003TIP3    H139500   2.445   6.492  16.503  3.4379  1.5048  0.1394
 6003TIP3    H239501   2.370   6.614  16.454 -1.1742 -1.1369  0.0476
 6004TIP3   OH239502   0.089   2.319  14.506  0.4569  0.2202  0.1547
 6004TIP3    H139503   0.069   2.287  14.418  0.5611 -2.2520  0.9491
 6004TIP3    H239504   0.027   2.391  14.520 -0.4886 -0.2436 -1.4350
 6005TIP3   OH239505   6.280   4.499  14.901 -0.3802  0.2388  0.1565
 6005TIP3    H139506   6.231   4.449  14.966 -0.0053 -0.3083  0.0213
 6005TIP3    H239507   6.217   4.564  14.868 -0.4520  0.7915  1.3507
 6006TIP3   OH239508   6.212   6.273  16.082 -0.4903 -0.6757 -0.4384
 6006TIP3    H139509   6.255   6.283  15.997 -1.1898  1.0278 -0.6535
 6006TIP3    H239510   6.164   6.191  16.075  1.5593 -1.8958 -0.6909
 6007TIP3   OH239511   4.227   6.809   2.993 -0.5595 -0.7643 -0.1838
 6007TIP3    H139512   4.250   6.878   3.055 -0.7059 -0.9547  0.0840
 6007TIP3    H239513   4.292   6.740   3.010 -0.8849 -1.0078  0.0808
 6008TIP3   OH239514   1.493   0.240   2.369  0.0598  0.2128 -0.1187
 6008TIP3    H139515   1.477   0.242   2.463  0.3962  1.9709 -0.0750
 6008TIP3    H239516   1.457   0.155   2.341  1.0780 -0.9123  1.7604
 6009TIP3   OH239517   0.385   2.931  12.699  0.3259  0.2746 -0.2232
 6009TIP3    H139518   0.441   3.007  12.711  1.5008 -0.0778 -2.7482
 6009TIP3    H239519   0.296   2.964  12.714  0.9546  1.5965  0.7992
 6010TIP3   OH239520   3.191   4.145  16.562 -0.3837  0.4202  0.2651
 6010TIP3    H139521   3.212   4.147  16.469  0.3265 -0.2055  0.3994
 6010TIP3    H239522   3.099   4.118  16.565 -0.1948 -0.3321 -0.2392
 6011TIP3   OH239523   2.819   2.725  11.145  0.1890 -0.7759  0.2087
 6011TIP3    H139524   2.872   2.686  11.075  0.1421 -0.2217 -0.1477
 6011TIP3    H239525   2.739   2.754  11.100 -1.4609 -3.5955  1.1078
 6012TIP3   OH239526   6.426   1.157   3.204 -0.0254  0.6556  0.1020
 6012TIP3    H139527   6.414   1.184   3.295 -1.2614 -0.2187  0.2209
 6012TIP3    H239528   6.521   1.156   3.192  0.1387  2.8432  0.7159
 6013TIP3   OH239529   6.350   0.246  13.129  0.1727  0.4074  0.5625
 6013TIP3    H139530   6.392   0.163  13.102 -0.7593 -0.0545  0.4920
 6013TIP3    H239531   6.422   0.298  13.166  1.6448  1.1724 -2.9238
 6014TIP3   OH239532   1.040   6.186  13.382 -0.6597 -0.0929  0.1802
 6014TIP3    H139533   0.976   6.248  13.417  0.3517 -0.1930  2.3421
 6014TIP3    H239534   1.063   6.221  13.296 -2.5296  0.7113 -0.0488
 6015TIP3   OH239535   2.663   0.263   4.711  0.4499  0.2087  0.2840
 6015TIP3    H139536   2.671   0.312   4.629 -1.5835  0.3517  0.1137
 6015TIP3    H239537   2.731   0.300   4.767  1.7528  0.2541 -1.2275
 6016TIP3   OH239538   5.557   4.147   5.153  0.2506  0.4566  0.0180
 6016TIP3    H139539   5.584   4.216   5.214  0.0188 -0.1613  0.8390
 6016TIP3    H239540   5.637   4.125   5.105  0.9704 -0.5360  1.6094
 6017TIP3   OH239541   1.885   2.553   3.562 -0.4180  0.2240  0.1007
 6017TIP3    H139542   1.869   2.567   3.655  1.5118  0.0161  0.5151
 6017TIP3    H239543   1.850   2.631   3.519 -1.7409  0.1097  0.9352
 6018TIP3   OH239544   0.854   6.330  15.021  0.0494  0.0856  0.1212
 6018TIP3    H139545   0.799   6.407  15.005 -1.8686 -0.8487  1.8785
 6018TIP3    H239546   0.797   6.256  15.004  0.9183 -0.9314  1.5259
 6019TIP3   OH239547   3.144   2.708   5.223  0.3954  0.8009  0.0234
 6019TIP3    H139548   3.178   2.724   5.135 -0.6394 -1.5257 -0.8748
 6019TIP3    H239549   3.220   2.716   5.280  2.0964 -2.0181 -1.6360
 6020TIP3   OH239550   3.104   0.732   3.816 -0.2627 -0.0130  0.1270
 6020TIP3    H139551   3.022   0.684   3.826  0.0468 -0.3638  1.1200
 6020TIP3    H239552   3.165   0.669   3.778 -0.8032  0.6503 -1.9660
 6021TIP3   OH239553   2.183   4.298  14.549 -0.4065  0.1630 -0.2995
 6021TIP3    H139554   2.189   4.231  14.618 -2.1567 -0.6793 -0.8875
 6021TIP3    H239555   2.116   4.359  14.581 -1.0668 -0.1085 -1.1146
 6022TIP3   OH239556   2.671   0.453  11.440 -0.0373  0.5261 -0.2243
 6022TIP3    H139557   2.602   0.514  11.465 -0.2972  0.5811 -1.0290
 6022TIP3    H239558   2.676   0.460  11.345  0.7917  0.2091 -0.2160
 6023TIP3   OH239559   5.769   2.564   5.522 -0.1045  0.2239 -0.0788
 6023TIP3    H139560   5.747   2.479   5.484 -1.2471  0.7367 -0.6225
 6023TIP3    H239561   5.813   2.612   5.452 -0.6503  0.5404 -0.2162
 6024TIP3   OH239562   1.792   0.615   0.663  0.4027 -0.0730 -0.0297
 6024TIP3    H139563   1.847   0.542   0.635 -0.0091 -0.9670  1.3812
 6024TIP3    H239564   1.852   0.690   0.668  0.9602 -0.4431 -0.8600
 6025TIP3   OH239565   4.924   4.531  15.393 -0.4152  0.2374 -0.0267
 6025TIP3    H139566   4.953   4.441  15.379 -1.6940 -0.2156  0.1373
 6025TIP3    H239567   4.914   4.567  15.304  1.1491  0.5865 -0.0810
 6026TIP3   OH239568   3.117   6.289  17.141 -0.0082  0.1741  0.0400
 6026TIP3    H139569   3.075   6.238  17.211  0.5561 -0.6515 -0.2132
 6026TIP3    H239570   3.046   6.343  17.105 -1.3000 -2.4160 -1.5212
 6027TIP3   OH239571   4.655   2.679   0.734  0.3190  0.0039  0.6815
 6027TIP3    H139572   4.713   2.700   0.807  0.1679  0.7620  0.5968
 6027TIP3    H239573   4.714   2.658   0.662  0.5233  1.5035  0.3817
 6028TIP3   OH239574   3.056   6.215  15.464  0.3448  0.7560  0.4731
 6028TIP3    H139575   3.065   6.199  15.558  1.6921 -1.6465  0.0413
 6028TIP3    H239576   3.134   6.266  15.441  0.9775 -0.1951  0.4234
 6029TIP3   OH239577   4.561   2.875  12.439 -0.1665  0.6933 -0.1589
 6029TIP3    H139578   4.574   2.782  12.458 -1.3070  0.5703  0.1017
 6029TIP3    H239579   4.598   2.888  12.352 -0.6673 -0.1826 -0.5100
 6030TIP3   OH239580   3.424   0.378  12.689  0.2428 -0.6260 -0.5561
 6030TIP3    H139581   3.472   0.425  12.620  0.0195 -1.8288 -1.5826
 6030TIP3    H239582   3.449   0.421  12.770  0.7604  0.6502 -1.3629
 6031TIP3   OH239583   5.572   4.203   1.626  0.2120 -0.0900  0.4756
 6031TIP3    H139584   5.604   4.200   1.536  1.7179  2.4260  0.8343
 6031TIP3    H239585   5.632   4.147   1.675  1.1571  0.7811  0.3451
 6032TIP3   OH239586   4.602   1.473   0.972  0.3530  0.2261 -0.1451
 6032TIP3    H139587   4.556   1.506   1.049 -0.6329  1.1164 -1.0788
 6032TIP3    H239588   4.581   1.380   0.969  1.9341 -0.2522  1.6781
 6033TIP3   OH239589   3.173   2.824   3.523  0.8860 -0.3056  0.0883
 6033TIP3    H139590   3.159   2.772   3.444 -0.1009  0.8620 -0.5413
 6033TIP3    H239591   3.267   2.841   3.524  0.9115 -0.3701 -0.8247
 6034TIP3   OH239592   3.496   2.912   4.818 -0.6476 -0.0997 -0.2647
 6034TIP3    H139593   3.534   2.931   4.732 -1.8994 -0.3814 -0.8971
 6034TIP3    H239594   3.402   2.922   4.805 -0.9844 -1.8746  0.6311
 6035TIP3   OH239595   5.706   3.484  11.388 -0.1208  0.3571  0.1738
 6035TIP3    H139596   5.642   3.414  11.397 -0.6461  1.0336  2.6185
 6035TIP3    H239597   5.725   3.489  11.295 -2.5786 -0.7820 -0.4481
 6036TIP3   OH239598   5.788   6.606   2.827  0.2073 -0.4757  0.4076
 6036TIP3    H139599   5.749   6.668   2.765  1.7086  0.9515  0.8190
 6036TIP3    H239600   5.870   6.579   2.786  0.1891 -1.2055  0.8246
 6037TIP3   OH239601   5.384   0.547   0.136 -0.0257 -0.3828  0.2071
 6037TIP3    H139602   5.394   0.488   0.211  1.6362 -1.5736 -0.8837
 6037TIP3    H239603   5.289   0.552   0.123 -0.2584 -3.4453 -0.0517
 6038TIP3   OH239604   1.989   5.187  13.550 -0.0823  0.6481 -0.5468
 6038TIP3    H139605   2.052   5.151  13.612 -0.8802 -0.0718 -0.1310
 6038TIP3    H239606   1.956   5.111  13.502 -0.2889  1.0677 -1.0927
 6039TIP3   OH239607   4.876   4.829   0.152  0.4085  0.0980  0.3182
 6039TIP3    H139608   4.877   4.733   0.150 -0.5071  0.0483  1.2483
 6039TIP3    H239609   4.942   4.855   0.088  0.4554 -1.1513 -0.1722
 6040TIP3   OH239610   0.092   5.574  10.821  0.2342 -0.5319 -0.0541
 6040TIP3    H139611   0.147   5.637  10.774 -0.3079  0.6110  0.8109
 6040TIP3    H239612   0.088   5.498  10.762  0.1762  0.5659 -1.5207
 6041TIP3   OH239613   4.023   5.784   2.571  0.3301 -0.7316 -0.7991
 6041TIP3    H139614   4.045   5.875   2.550  0.7095 -0.7429 -0.4663
 6041TIP3    H239615   3.996   5.788   2.663 -2.1105 -0.5380 -1.4605
 6042TIP3   OH239616   1.171   4.926  12.111  0.3089  0.3292 -0.0463
 6042TIP3    H139617   1.210   4.983  12.177 -0.1623  0.9008 -0.2525
 6042TIP3    H239618   1.237   4.920  12.042  1.6232 -1.8182  1.2772
 6043TIP3   OH239619   1.054   3.072  15.127  0.2400  0.5774  0.4319
 6043TIP3    H139620   0.995   3.087  15.201  0.6628  1.3839  0.6220
 6043TIP3    H239621   1.118   3.008  15.159  0.8566  1.4728  1.0256
 6044TIP3   OH239622   6.069   3.000   1.903 -0.0203 -0.1885 -0.0767
 6044TIP3    H139623   6.028   3.027   1.821  0.4697 -0.7701 -0.5090
 6044TIP3    H239624   6.139   3.063   1.917  0.1526 -0.3325 -0.3053
 6045TIP3   OH239625   6.222   6.522  15.654 -0.9560  0.4431  0.1158
 6045TIP3    H139626   6.204   6.523  15.748 -3.1018  1.8292 -0.2574
 6045TIP3    H239627   6.219   6.614  15.628  0.7852  0.1853 -1.1412
 6046TIP3   OH239628   6.803   4.872  13.765 -0.3959 -0.6668 -0.9361
 6046TIP3    H139629   6.829   4.938  13.700 -0.0616  0.6078  0.4372
 6046TIP3    H239630   6.766   4.923  13.837 -1.2530 -2.0870 -0.3327
 6047TIP3   OH239631   1.486   4.223  12.701 -0.0159  0.4916  0.3539
 6047TIP3    H139632   1.466   4.280  12.776 -0.3577  1.6584 -0.5903
 6047TIP3    H239633   1.497   4.284  12.627  0.5002 -0.6162 -0.5084
 6048TIP3   OH239634   4.286   1.488   3.699  0.2602  0.0809 -0.5453
 6048TIP3    H139635   4.287   1.392   3.702 -0.0111  0.0912  0.1253
 6048TIP3    H239636   4.295   1.514   3.791  1.9977  0.7224 -0.8664
 6049TIP3   OH239637   6.094   5.743   5.334  0.3288 -0.0950 -0.0508
 6049TIP3    H139638   6.161   5.684   5.300  0.6083 -0.2708  0.7643
 6049TIP3    H239639   6.012   5.697   5.319  0.2710  0.5319 -1.9157
 6050TIP3   OH239640   6.238   2.197  11.558  0.3351  0.8807  0.2775
 6050TIP3    H139641   6.144   2.214  11.552  0.2532  0.5514  0.6285
 6050TIP3    H239642   6.279   2.275  11.521 -0.0942  0.5860 -0.8719
 6051TIP3   OH239643   0.615   2.442   0.203  0.3436 -0.5949 -1.0213
 6051TIP3    H139644   0.541   2.420   0.259  0.5898  2.7569  0.8730
 6051TIP3    H239645   0.581   2.509   0.144  0.9640 -1.7535 -2.7776
 6052TIP3   OH239646   1.575   1.324   5.141  0.4976 -0.1887 -0.3365
 6052TIP3    H139647   1.546   1.334   5.050  0.3448  1.0523 -0.1743
 6052TIP3    H239648   1.654   1.270   5.136  0.9094  0.4799 -1.2866
 6053TIP3   OH239649   3.649   5.896  13.444  0.0121  0.8611 -0.5340
 6053TIP3    H139650   3.559   5.868  13.459  0.4177  0.8716  2.5546
 6053TIP3    H239651   3.701   5.816  13.453  0.5286  1.3224  0.9399
 6054TIP3   OH239652   2.424   5.073   5.809 -0.1203  0.3943  0.7217
 6054TIP3    H139653   2.460   4.993   5.771  1.3824  1.1614  0.4335
 6054TIP3    H239654   2.345   5.090   5.758  1.2039  0.7469 -1.3394
 6055TIP3   OH239655   0.606   3.445   6.582  0.2421 -0.5839 -0.4513
 6055TIP3    H139656   0.627   3.454   6.489  0.4714 -1.1331 -0.4574
 6055TIP3    H239657   0.654   3.516   6.624  0.5906 -0.6722 -0.6918
 6056TIP3   OH239658   1.226   5.343   5.940  0.2283  0.6285 -0.3334
 6056TIP3    H139659   1.269   5.401   6.004  1.4643  0.2213 -0.7797
 6056TIP3    H239660   1.265   5.367   5.856 -0.3294  0.1554 -0.7333
 6057TIP3   OH239661   3.274   4.565  11.331  0.2471  0.0352  0.1619
 6057TIP3    H139662   3.328   4.638  11.362  0.2035 -0.0042  0.3357
 6057TIP3    H239663   3.327   4.522  11.265  0.6282 -0.2903  0.6682
 6058TIP3   OH239664   5.917   0.277   0.181  0.3651  0.1691 -0.2647
 6058TIP3    H139665   5.991   0.312   0.131 -0.2000  1.1191 -0.4598
 6058TIP3    H239666   5.881   0.208   0.125 -0.6188  1.6106 -1.4827
 6059TIP3   OH239667   4.356   2.227  16.398 -0.3554 -0.4945 -0.5246
 6059TIP3    H139668   4.303   2.175  16.336 -0.6821 -2.6712  1.4340
 6059TIP3    H239669   4.430   2.170  16.419  0.4360  0.7389  0.1246
 6060TIP3   OH239670   4.790   4.423  14.065 -0.3690 -0.3580  0.1230
 6060TIP3    H139671   4.713   4.438  14.010  0.5903  0.7080 -0.9862
 6060TIP3    H239672   4.754   4.404  14.152 -1.8591  1.2148 -0.1104
 6061TIP3   OH239673   1.943   5.638  16.130  0.3821 -0.0417 -0.4646
 6061TIP3    H139674   2.024   5.587  16.139  0.7670  0.5612 -0.3751
 6061TIP3    H239675   1.950   5.680  16.044  0.8338  1.1022  0.0981
 6062TIP3   OH239676   4.185   0.970  14.169  0.7479 -0.1823  0.1208
 6062TIP3    H139677   4.266   0.945  14.215  1.8717  2.1273 -0.4540
 6062TIP3    H239678   4.191   0.924  14.085 -0.7593 -3.4961  1.6298
 6063TIP3   OH239679   5.896   2.440   0.194 -0.0736  0.5943  0.0406
 6063TIP3    H139680   5.866   2.427   0.104  1.0971  2.3767 -0.6606
 6063TIP3    H239681   5.986   2.408   0.195 -0.3367 -0.1534  0.8074
 6064TIP3   OH239682   1.109   3.440   4.154 -0.0490 -0.0588 -0.2311
 6064TIP3    H139683   1.105   3.349   4.182  0.9631 -0.6762 -1.9170
 6064TIP3    H239684   1.021   3.460   4.122 -0.6632  0.0407  1.4219
 6065TIP3   OH239685   2.198   4.638   3.933 -0.1194 -0.3009  0.0241
 6065TIP3    H139686   2.135   4.705   3.905 -0.6444 -0.6658  0.3068
 6065TIP3    H239687   2.202   4.577   3.860 -1.4091 -1.1958  0.6523
 6066TIP3   OH239688   6.813   5.142   3.253  0.2583  0.3253 -0.4786
 6066TIP3    H139689   6.850   5.228   3.276 -0.3328  0.8350 -1.3795
 6066TIP3    H239690   6.777   5.154   3.165 -1.5953 -0.2772  0.1423
 6067TIP3   OH239691   3.368   5.126  11.333 -0.3122 -0.3357  0.8454
 6067TIP3    H139692   3.339   5.151  11.421 -2.0054 -0.7712  0.4612
 6067TIP3    H239693   3.298   5.157  11.276 -0.2518 -1.8462 -0.1099
 6068TIP3   OH239694   3.378   0.263  12.950  0.1761  0.2503 -0.6238
 6068TIP3    H139695   3.462   0.308  12.957  0.2088  0.3257 -1.3850
 6068TIP3    H239696   3.373   0.236  12.858 -0.0397 -0.9143 -0.2877
 6069TIP3   OH239697   4.726   0.151  16.976 -0.1501 -0.1455  0.3023
 6069TIP3    H139698   4.683   0.144  16.891  0.7781  0.6456 -0.2576
 6069TIP3    H239699   4.732   0.246  16.991  0.8543 -0.2537  0.6353
 6070TIP3   OH239700   0.458   5.134   6.021  0.6609 -0.4111  0.4931
 6070TIP3    H139701   0.544   5.097   6.003  1.0330 -0.2066  1.7890
 6070TIP3    H239702   0.475   5.221   6.056 -0.0829 -0.2921  0.5890
 6071TIP3   OH239703   5.268   3.321  14.249 -0.1044  0.0793  0.5992
 6071TIP3    H139704   5.310   3.379  14.312  1.7482  1.0090 -1.3754
 6071TIP3    H239705   5.328   3.247  14.240  1.2437  1.3782 -2.1894
 6072TIP3   OH239706   3.828   5.784  11.537 -0.1847 -0.0204 -0.1109
 6072TIP3    H139707   3.834   5.782  11.441  0.3845  1.7217 -0.1469
 6072TIP3    H239708   3.824   5.692  11.563  0.6619 -0.5593 -1.7549
 6073TIP3   OH239709   5.641   1.147  15.726  0.4872 -0.0885 -0.0849
 6073TIP3    H139710   5.677   1.235  15.720  0.3029  0.0613  0.8864
 6073TIP3    H239711   5.714   1.089  15.705  1.1943  0.2227  1.3809
 6074TIP3   OH239712   5.832   0.617  11.709  0.2873  0.2948 -0.4571
 6074TIP3    H139713   5.762   0.565  11.670  0.5445  0.8505 -1.7227
 6074TIP3    H239714   5.794   0.704  11.721  0.6462  0.5077 -0.8289
 6075TIP3   OH239715   4.670   1.018   3.734 -0.0194  0.2335  0.0467
 6075TIP3    H139716   4.574   1.013   3.733  0.0162 -0.5446 -0.0349
 6075TIP3    H239717   4.699   0.935   3.697  0.6930  0.3985  0.2122
 6076TIP3   OH239718   1.446   6.345  12.396 -0.0735  0.2750 -0.1086
 6076TIP3    H139719   1.528   6.312  12.360 -0.3920  0.7818 -1.3606
 6076TIP3    H239720   1.419   6.413  12.334 -0.2901  1.7094  1.4917
 6077TIP3   OH239721   1.625   1.775  12.219  0.1537 -0.2614 -0.4391
 6077TIP3    H139722   1.568   1.833  12.269  0.7287  0.6690 -0.8392
 6077TIP3    H239723   1.688   1.742  12.284  0.0249 -0.1819 -0.2725
 6078TIP3   OH239724   0.315   3.093  15.978  0.0683  0.0698 -0.0937
 6078TIP3    H139725   0.403   3.067  15.950  0.4256  1.0398  0.0882
 6078TIP3    H239726   0.289   3.161  15.916  0.3708  1.3691  1.1561
 6079TIP3   OH239727   0.377   2.358   4.711  0.0530 -0.1751  0.3143
 6079TIP3    H139728   0.453   2.307   4.683  1.5103  2.1630 -0.2495
 6079TIP3    H239729   0.306   2.330   4.652  0.8147 -1.4445 -0.0289
 6080TIP3   OH239730   6.425   2.598   6.037  0.2548  0.0946 -0.1598
 6080TIP3    H139731   6.427   2.687   6.002  2.9596  0.5806  0.9619
 6080TIP3    H239732   6.335   2.570   6.026 -0.1252  1.9674 -3.0048
 6081TIP3   OH239733   3.875   4.242  13.678  0.1996  0.2320 -0.1023
 6081TIP3    H139734   3.931   4.278  13.747 -0.3051 -1.2508  1.1198
 6081TIP3    H239735   3.880   4.307  13.607  0.2466  2.1044  1.5454
 6082TIP3   OH239736   4.414   3.237  16.745  0.2158 -0.4340 -0.1576
 6082TIP3    H139737   4.455   3.321  16.723  2.0403 -1.2218  0.0154
 6082TIP3    H239738   4.376   3.207  16.663  1.3781 -0.3817 -0.7361
 6083TIP3   OH239739   1.572   5.457  15.039 -0.0503  0.3689  0.1506
 6083TIP3    H139740   1.557   5.400  15.115  2.2432  0.6051  0.8550
 6083TIP3    H239741   1.531   5.540  15.063  1.5899  0.8051  1.6883
 6084TIP3   OH239742   0.072   3.786   4.192 -0.1573  0.2144 -0.9119
 6084TIP3    H139743   0.067   3.866   4.245  2.1816 -0.9518  1.2976
 6084TIP3    H239744   0.157   3.792   4.150  0.1567 -1.1958 -0.5150
 6085TIP3   OH239745   6.635   4.209  13.908 -0.0662  0.7197  0.0159
 6085TIP3    H139746   6.556   4.166  13.878 -2.1839  3.4571  1.2624
 6085TIP3    H239747   6.671   4.252  13.831 -0.3286  0.2975 -0.3456
 6086TIP3   OH239748   5.138   6.166  13.515 -0.0258  0.0436  0.2378
 6086TIP3    H139749   5.060   6.139  13.465 -1.0433  0.9228  1.2911
 6086TIP3    H239750   5.117   6.254  13.546  1.0563 -0.0256  1.2144
 6087TIP3   OH239751   1.103   3.164   4.270 -0.6790 -0.8884  0.2553
 6087TIP3    H139752   1.076   3.121   4.351  1.8230 -2.4762  0.3512
 6087TIP3    H239753   1.152   3.096   4.222  0.4529  0.8728 -1.2234
 6088TIP3   OH239754   3.419   1.301   2.807 -0.2084 -0.0048 -0.4931
 6088TIP3    H139755   3.451   1.351   2.732  0.1521  2.8924  1.4373
 6088TIP3    H239756   3.499   1.269   2.850 -0.3581 -0.5451 -0.6053
 6089TIP3   OH239757   3.413   5.594   5.356 -0.0115  0.1199 -0.2653
 6089TIP3    H139758   3.393   5.644   5.435 -0.4759 -1.6662  0.7832
 6089TIP3    H239759   3.440   5.508   5.387  2.2966  0.1181 -1.9572
 6090TIP3   OH239760   4.998   4.425   6.455  0.0488 -0.0675 -0.6450
 6090TIP3    H139761   4.920   4.451   6.407  0.6586  0.6111 -1.2875
 6090TIP3    H239762   5.054   4.502   6.455  1.0823 -0.7885 -0.9339
 6091TIP3   OH239763   1.641   6.040   3.482 -0.1517  0.6542  0.0667
 6091TIP3    H139764   1.598   6.098   3.545 -0.6153  0.8394 -0.4052
 6091TIP3    H239765   1.692   5.980   3.535  0.1350  1.3392  0.5745
 6092TIP3   OH239766   1.725   1.752   0.432  0.1427  0.0995 -0.6757
 6092TIP3    H139767   1.790   1.688   0.461  2.6696  2.0456 -1.6454
 6092TIP3    H239768   1.700   1.723   0.345 -2.4482 -2.1033  0.6529
 6093TIP3   OH239769   0.564   3.388  15.795  0.9253  0.1303  0.7889
 6093TIP3    H139770   0.566   3.426  15.707  0.1303 -0.2774  0.5912
 6093TIP3    H239771   0.565   3.293  15.780  0.6752  0.0603  1.2154
 6094TIP3   OH239772   4.359   0.271   1.987  0.0120 -0.1659  0.4696
 6094TIP3    H139773   4.328   0.230   1.906  0.9610  0.5622 -0.2964
 6094TIP3    H239774   4.326   0.215   2.057 -2.1462  0.0006 -0.3106
 6095TIP3   OH239775   3.904   2.470  15.670 -0.5214  0.4741  0.4078
 6095TIP3    H139776   3.814   2.447  15.694 -0.9191  1.3601 -0.1787
 6095TIP3    H239777   3.948   2.385  15.661 -1.4533 -0.0016  0.0998
 6096TIP3   OH239778   5.612   1.213   1.699 -0.8934  0.1335 -0.4784
 6096TIP3    H139779   5.647   1.292   1.657 -1.2695 -0.1596 -1.3838
 6096TIP3    H239780   5.541   1.244   1.755  0.2002  0.6345  0.6738
 6097TIP3   OH239781   1.723   5.270  12.392  0.1181  0.0069  0.5031
 6097TIP3    H139782   1.756   5.257  12.303  0.6500  1.2899  0.4891
 6097TIP3    H239783   1.650   5.332  12.381  0.9938  1.1772  1.0712
 6098TIP3   OH239784   1.866   2.985   0.011  0.0128  0.6270 -0.9351
 6098TIP3    H139785   1.818   2.927  -0.047  0.3849  0.0952 -0.7151
 6098TIP3    H239786   1.868   2.939   0.095  1.2837  0.4314 -1.0553
 6099TIP3   OH239787   0.765   4.798  15.017 -1.1035  0.0583 -0.3979
 6099TIP3    H139788   0.697   4.752  14.968 -0.3109 -1.7144  0.0653
 6099TIP3    H239789   0.831   4.820  14.951 -1.1096 -0.2359 -0.5060
 6100TIP3   OH239790   3.742   5.703   4.947  0.1583  0.2692  0.1289
 6100TIP3    H139791   3.767   5.795   4.954 -1.3573  0.6533  0.8774
 6100TIP3    H239792   3.692   5.698   4.865  0.1434  0.1328  0.1458
 6101TIP3   OH239793   2.150   1.963  14.119  0.1659  0.1264  0.3319
 6101TIP3    H139794   2.074   1.936  14.068 -0.0599  0.1671  0.6452
 6101TIP3    H239795   2.205   2.011  14.058  0.1990 -0.3750 -0.0373
 6102TIP3   OH239796   1.948   5.773  11.198  0.0629 -0.0752 -0.4071
 6102TIP3    H139797   2.036   5.806  11.211  1.0085 -2.2007 -0.9826
 6102TIP3    H239798   1.919   5.747  11.286  1.4064 -2.4927 -0.5830
 6103TIP3   OH239799   1.526   3.420  11.259 -0.3551 -0.2565  0.4689
 6103TIP3    H139800   1.446   3.471  11.274 -1.3549 -1.7953  0.6171
 6103TIP3    H239801   1.525   3.401  11.165  1.5377  2.3425 -0.1911
 6104TIP3   OH239802   6.325   6.429   0.070 -0.4888 -0.4491  0.3200
 6104TIP3    H139803   6.381   6.432  -0.007 -1.2962  0.2502 -0.2555
 6104TIP3    H239804   6.351   6.506   0.121 -0.5113 -0.4637  0.3532
 6105TIP3   OH239805   4.628   6.583   2.166 -0.3874 -0.2803  0.0366
 6105TIP3    H139806   4.706   6.541   2.203  0.0479 -0.4997 -1.1125
 6105TIP3    H239807   4.590   6.630   2.240  1.3285  0.5786  0.4315
 6106TIP3   OH239808   3.279   1.407   3.828  0.2307  0.6640 -0.2345
 6106TIP3    H139809   3.202   1.409   3.884  1.1237 -4.0429  1.6868
 6106TIP3    H239810   3.249   1.369   3.745  0.2505 -0.0675  0.0887
 6107TIP3   OH239811   2.951   4.472   0.158 -0.0346  0.3982  0.2787
 6107TIP3    H139812   2.991   4.393   0.119  1.0246  1.4929 -0.9656
 6107TIP3    H239813   2.859   4.449   0.168  0.5195 -1.5642  1.5022
 6108TIP3   OH239814   2.673   3.907  14.597  0.6043  0.1413  0.0610
 6108TIP3    H139815   2.588   3.884  14.635 -0.0695 -0.3903 -1.6906
 6108TIP3    H239816   2.676   3.860  14.514  1.7756  1.6985 -0.8253
 6109TIP3   OH239817   5.925   2.213   0.459 -0.0338 -0.6739 -0.2735
 6109TIP3    H139818   5.841   2.259   0.447  1.0076  1.5722  0.4466
 6109TIP3    H239819   5.916   2.134   0.406 -2.4793 -0.3506 -0.4879
 6110TIP3   OH239820   3.012   3.446  13.579  0.4031  0.4731 -0.6454
 6110TIP3    H139821   3.061   3.439  13.661 -1.2891 -1.5443  0.2682
 6110TIP3    H239822   3.045   3.527  13.539  1.9238  1.0490  1.5697
 6111TIP3   OH239823   0.576   3.855   3.967 -0.1030  0.0320 -0.5742
 6111TIP3    H139824   0.504   3.910   3.998  0.0885  0.2595 -0.5276
 6111TIP3    H239825   0.644   3.864   4.035 -0.9901 -2.2113  0.7328
 6112TIP3   OH239826   4.284   0.121  16.687  0.2589 -0.2283  0.2513
 6112TIP3    H139827   4.256   0.032  16.710  0.9457 -1.4175 -2.9081
 6112TIP3    H239828   4.255   0.176  16.760 -1.6077 -2.7953  1.5836
 6113TIP3   OH239829   2.628   4.790  11.988  0.2332 -0.2263 -1.1728
 6113TIP3    H139830   2.580   4.851  11.933 -0.4715 -0.2058 -0.5420
 6113TIP3    H239831   2.561   4.748  12.042  0.9293 -0.0492 -0.1405
 6114TIP3   OH239832   6.095   0.542  10.139 -0.2606 -0.2872 -0.3468
 6114TIP3    H139833   6.006   0.508  10.135  0.2241 -1.8801  1.0538
 6114TIP3    H239834   6.150   0.464  10.140  1.1506  0.6560 -0.8646
 6115TIP3   OH239835   2.710   3.190   0.007 -0.1805  0.3225 -0.5527
 6115TIP3    H139836   2.738   3.119   0.064 -0.8354  0.9474  0.5932
 6115TIP3    H239837   2.615   3.181   0.002 -0.3138  1.3114 -0.0889
 6116TIP3   OH239838   0.263   5.061   0.904  0.1783  0.0829 -0.7042
 6116TIP3    H139839   0.307   4.987   0.860 -0.4511  0.5647 -2.2277
 6116TIP3    H239840   0.170   5.049   0.883 -0.3994 -0.5114  1.8583
 6117TIP3   OH239841   3.323   3.418   1.607 -0.0969 -0.1037  0.0237
 6117TIP3    H139842   3.351   3.415   1.516 -1.7891 -2.1707 -0.5285
 6117TIP3    H239843   3.229   3.437   1.602  0.2625  2.4454  1.5264
 6118TIP3   OH239844   2.495   6.006  15.545 -0.4944  0.3596  1.1564
 6118TIP3    H139845   2.442   5.939  15.502  0.9378 -0.6531  0.8814
 6118TIP3    H239846   2.498   6.079  15.483 -0.1453 -0.2682  0.4264
 6119TIP3   OH239847   0.734   4.057  16.032 -0.7905  0.7763  0.2949
 6119TIP3    H139848   0.814   4.039  15.983 -2.4640 -1.3527 -1.8695
 6119TIP3    H239849   0.736   3.995  16.105 -0.6929  0.4236 -0.0087
 6120TIP3   OH239850   5.965   1.761  14.837 -0.3842 -0.1239 -0.2750
 6120TIP3    H139851   5.954   1.824  14.908 -0.6290 -0.5525  0.0735
 6120TIP3    H239852   6.010   1.687  14.877 -1.5965 -0.8836 -0.2457
 6121TIP3   OH239853   6.707   1.785   4.941  0.0144 -0.0576  0.0188
 6121TIP3    H139854   6.636   1.721   4.939 -1.2708  1.3114 -0.9827
 6121TIP3    H239855   6.724   1.800   5.034 -0.7767 -0.6762  0.2767
 6122TIP3   OH239856   1.991   3.903   1.254 -0.7131  0.2430 -0.3165
 6122TIP3    H139857   1.911   3.860   1.223 -0.2568 -0.5135 -0.4818
 6122TIP3    H239858   2.059   3.872   1.194  0.2628 -1.5246  1.5827
 6123TIP3   OH239859   5.657   4.231  15.788  0.5064  0.4286 -0.2259
 6123TIP3    H139860   5.677   4.238  15.695  3.1373  1.3373  0.3236
 6123TIP3    H239861   5.642   4.321  15.816  0.3704  0.2297  0.3487
 6124TIP3   OH239862   0.109   0.437  17.047 -0.4921  0.0187 -0.1329
 6124TIP3    H139863   0.148   0.525  17.053 -0.5302  0.0036  0.3796
 6124TIP3    H239864   0.140   0.392  17.125  1.5049 -1.2441 -1.5733
 6125TIP3   OH239865   6.366   1.521   4.382 -0.4478 -0.4735  0.0402
 6125TIP3    H139866   6.453   1.485   4.400 -1.0916 -1.5284  1.1213
 6125TIP3    H239867   6.383   1.613   4.360  0.7999 -0.1854  1.9715
 6126TIP3   OH239868   0.573   1.449   1.658  0.5668  0.6247  0.3418
 6126TIP3    H139869   0.499   1.391   1.641  1.6650 -0.7089 -0.0780
 6126TIP3    H239870   0.580   1.503   1.579 -0.5366  1.4461  0.7849
 6127TIP3   OH239871   1.200   0.520   5.756  0.5326 -0.1980  0.0056
 6127TIP3    H139872   1.264   0.480   5.698  0.2170 -1.7445  0.6623
 6127TIP3    H239873   1.142   0.448   5.781 -1.1962  1.0593 -0.2095
 6128TIP3   OH239874   6.111   6.542   5.316  0.4306  0.2985  0.0556
 6128TIP3    H139875   6.041   6.545   5.381  1.0741 -0.3020  0.7947
 6128TIP3    H239876   6.168   6.471   5.346  1.5569  1.0302 -0.3185
 6129TIP3   OH239877   4.615   3.152  16.292  0.0452 -0.5405  0.0050
 6129TIP3    H139878   4.634   3.121  16.380  1.7626 -0.2599 -0.2478
 6129TIP3    H239879   4.545   3.217  16.303  1.2429  0.5583  1.3290
 6130TIP3   OH239880   5.745   6.719   4.002 -0.6473  0.4053 -0.1679
 6130TIP3    H139881   5.694   6.777   3.946 -0.1338  1.9504  0.8971
 6130TIP3    H239882   5.702   6.724   4.087  0.2172  0.3237  0.2888
 6131TIP3   OH239883   3.942   1.333  12.747 -0.3119 -0.0096 -0.0697
 6131TIP3    H139884   3.944   1.349  12.653  1.2730 -1.4757 -0.3424
 6131TIP3    H239885   3.932   1.419  12.786 -0.6646  0.6621 -1.5638
 6132TIP3   OH239886   2.050   0.620   3.946  0.2268 -0.4827  0.6449
 6132TIP3    H139887   2.000   0.633   4.027  2.3794 -1.4088  2.2498
 6132TIP3    H239888   2.047   0.525   3.930 -3.4455 -0.0332 -2.7521
 6133TIP3   OH239889   1.190   3.837  12.575  0.3459  1.1093 -0.0015
 6133TIP3    H139890   1.203   3.806  12.664  0.8430 -0.2229 -0.5190
 6133TIP3    H239891   1.277   3.833  12.535 -0.3722 -1.4491 -1.5011
 6134TIP3   OH239892   0.073   5.102  16.774  0.0536 -0.1904  0.2274
 6134TIP3    H139893  -0.005   5.082  16.721 -0.5862  0.4868  0.8819
 6134TIP3    H239894   0.089   5.195  16.757  0.3008 -0.1589  0.6366
 6135TIP3   OH239895   2.151   6.132  15.663 -0.0971 -0.5113 -0.2400
 6135TIP3    H139896   2.064   6.145  15.624  0.7365  2.0728 -1.4390
 6135TIP3    H239897   2.182   6.049  15.625 -1.8223 -1.2620 -0.0994
 6136TIP3   OH239898   1.276   2.981  11.374 -0.1182  0.6196 -0.4217
 6136TIP3    H139899   1.193   2.941  11.401 -0.5100  1.0312 -1.0078
 6136TIP3    H239900   1.314   3.015  11.455 -0.5149  0.4271 -0.1533
 6137TIP3   OH239901   5.943   2.052   5.890 -0.0501  0.3517  0.1980
 6137TIP3    H139902   6.008   2.082   5.826  1.0115  1.4767  1.7514
 6137TIP3    H239903   5.994   2.019   5.963 -1.2513 -1.1443  0.4223
 6138TIP3   OH239904   5.369   1.284  13.866 -0.5220  0.2366 -0.4783
 6138TIP3    H139905   5.278   1.309  13.851 -1.0772 -2.1206 -1.6697
 6138TIP3    H239906   5.387   1.219  13.797  1.2590 -1.1776  1.2086
 6139TIP3   OH239907   1.080   1.043  16.234  0.4962 -0.4797 -0.1016
 6139TIP3    H139908   1.121   1.114  16.283  0.9361 -0.0175 -1.1218
 6139TIP3    H239909   1.147   0.975  16.231  0.9416 -0.0070 -1.1467
 6140TIP3   OH239910   1.746   0.649   1.833  0.1417  0.3771 -0.8686
 6140TIP3    H139911   1.756   0.698   1.752  0.2878  0.4866 -0.7850
 6140TIP3    H239912   1.651   0.643   1.847 -0.0025 -1.6569 -2.2707
 6141TIP3   OH239913   1.635   3.503   5.419  0.0531 -0.3443  0.6427
 6141TIP3    H139914   1.688   3.467   5.490 -1.4611 -1.0772  1.4441
 6141TIP3    H239915   1.565   3.438   5.406 -0.4344  0.4045 -0.6365
 6142TIP3   OH239916   5.253   1.963  11.976  0.2882  0.0190 -0.0033
 6142TIP3    H139917   5.217   1.931  11.894  2.1603 -1.9453 -0.1300
 6142TIP3    H239918   5.296   2.046  11.953  1.0778 -0.6744 -1.0863
 6143TIP3   OH239919   2.938   5.246  15.194 -0.2291 -0.7193 -0.4671
 6143TIP3    H139920   2.936   5.186  15.269  0.8155  0.2946  0.4129
 6143TIP3    H239921   2.859   5.300  15.206  0.1827 -0.2391  0.2163
 6144TIP3   OH239922   3.958   0.100   0.692 -0.2958 -0.4465  0.5414
 6144TIP3    H139923   4.002   0.166   0.639 -1.6666 -0.7104 -0.9681
 6144TIP3    H239924   3.991   0.116   0.781 -1.1543  2.7796  0.4074
 6145TIP3   OH239925   4.913   1.056  10.930  0.3242  0.4079  0.2758
 6145TIP3    H139926   4.953   1.126  10.982 -1.1867  0.2271  1.7371
 6145TIP3    H239927   4.848   1.100  10.875  1.3967  0.4930 -1.0033
 6146TIP3   OH239928   4.917   1.810   3.320 -0.0843  0.1026 -0.5921
 6146TIP3    H139929   4.951   1.829   3.233  1.0470  0.6571 -0.0521
 6146TIP3    H239930   4.996   1.791   3.373 -0.8324 -1.7672 -0.0507
 6147TIP3   OH239931   2.884   3.752   6.555 -0.1831 -0.0885 -0.0573
 6147TIP3    H139932   2.793   3.767   6.578 -0.0157  1.3641 -0.2097
 6147TIP3    H239933   2.885   3.666   6.512 -1.4293 -0.2087  0.1245
 6148TIP3   OH239934   4.706   1.117  16.213  0.1499  0.0941 -0.4226
 6148TIP3    H139935   4.670   1.126  16.125 -1.3806  0.3772  0.1967
 6148TIP3    H239936   4.692   1.024  16.235 -1.9847  0.5663  0.4975
 6149TIP3   OH239937   6.212   4.165   2.568  0.0195 -0.4923 -0.0368
 6149TIP3    H139938   6.276   4.124   2.509  0.4763  0.2217 -0.0502
 6149TIP3    H239939   6.216   4.258   2.546  0.0350 -0.2470  0.9675
 6150TIP3   OH239940   6.219   1.702   5.094  0.0559  0.0822 -0.2956
 6150TIP3    H139941   6.266   1.785   5.089  0.8666 -0.3000  0.5653
 6150TIP3    H239942   6.127   1.725   5.082  0.1979  1.1939  0.6068
 6151TIP3   OH239943   0.317   6.725   3.207 -0.4694  0.2733  0.4603
 6151TIP3    H139944   0.361   6.764   3.132 -1.5604  1.6273  0.4861
 6151TIP3    H239945   0.383   6.670   3.248  0.3413  0.0242 -1.1006
 6152TIP3   OH239946   4.908   4.496   4.418  0.3932 -0.4424  0.4921
 6152TIP3    H139947   4.937   4.527   4.332  0.8536 -0.6466  0.5735
 6152TIP3    H239948   4.850   4.566   4.450  0.2070 -0.3717  0.0138
 6153TIP3   OH239949   6.438   4.521  16.719 -0.1964 -0.2476  0.7625
 6153TIP3    H139950   6.448   4.465  16.641 -2.0498  3.1924 -2.2615
 6153TIP3    H239951   6.481   4.602  16.695 -2.1246  1.4659  2.7021
 6154TIP3   OH239952   2.472   2.292  14.745  0.7497 -0.1329 -0.4550
 6154TIP3    H139953   2.556   2.339  14.747  0.2441  0.8041 -0.3201
 6154TIP3    H239954   2.424   2.331  14.672 -0.0827  0.3002  0.2928
 6155TIP3   OH239955   6.571   3.044   3.257  0.0844 -0.0174 -0.5565
 6155TIP3    H139956   6.552   3.062   3.164 -0.4346  0.2260 -0.4077
 6155TIP3    H239957   6.491   3.003   3.290 -0.7493  2.1747  0.3983
 6156TIP3   OH239958   2.422   0.610   2.972 -0.7185  0.8155  0.1907
 6156TIP3    H139959   2.408   0.605   3.067  1.7419  0.9182  0.6107
 6156TIP3    H239960   2.342   0.652   2.939 -1.5700  0.9328  2.2283
 6157TIP3   OH239961   2.011   4.647  17.106 -0.1368  0.1914  0.1628
 6157TIP3    H139962   1.918   4.665  17.096  0.1347  1.1824 -0.7599
 6157TIP3    H239963   2.035   4.690  17.188 -0.2713  0.8910 -0.1599
 6158TIP3   OH239964   1.819   0.069   5.325  0.2863 -0.6163 -0.4084
 6158TIP3    H139965   1.799   0.136   5.260  0.1653  2.2825  2.3470
 6158TIP3    H239966   1.896   0.101   5.371 -0.7325 -1.4581  2.0999
 6159TIP3   OH239967   1.088   3.964   0.456  0.6261  0.3342 -0.5517
 6159TIP3    H139968   1.172   3.988   0.416 -0.2570 -0.5427 -3.1041
 6159TIP3    H239969   1.048   3.904   0.394 -0.7613 -1.4162  1.8642
 6160TIP3   OH239970   6.529   4.502   0.695  0.1254 -0.5850 -0.0567
 6160TIP3    H139971   6.471   4.470   0.763  2.4340 -0.9837  1.8617
 6160TIP3    H239972   6.516   4.597   0.696  0.3861 -0.5427  1.2352
 6161TIP3   OH239973   6.316   1.668   1.505 -0.2851 -0.9612 -0.0115
 6161TIP3    H139974   6.341   1.726   1.433  0.4556 -0.1509  0.8832
 6161TIP3    H239975   6.308   1.582   1.464 -0.9524 -0.3249 -1.2707
 6162TIP3   OH239976   4.795   1.912  15.817 -0.4363 -0.6717  0.3571
 6162TIP3    H139977   4.734   1.974  15.776  0.4109  0.6045  0.9526
 6162TIP3    H239978   4.783   1.926  15.911  0.4545 -0.6963  0.4872
 6163TIP3   OH239979   2.316   4.809   4.152 -0.2404 -0.5128 -0.4491
 6163TIP3    H139980   2.332   4.750   4.226  1.5296 -1.0429 -1.1910
 6163TIP3    H239981   2.277   4.752   4.085  1.5482 -0.9374 -1.1968
 6164TIP3   OH239982   3.976   0.582   6.027 -0.3042  0.5771 -0.6524
 6164TIP3    H139983   3.907   0.520   6.050 -0.5840  0.4525 -1.7335
 6164TIP3    H239984   3.929   0.663   6.007 -0.0867  0.6796 -0.7503
 6165TIP3   OH239985   4.338   6.793  12.354 -0.5145  0.5724 -0.7245
 6165TIP3    H139986   4.287   6.776  12.433  2.3743 -0.3910  1.1025
 6165TIP3    H239987   4.332   6.713  12.304  1.9943 -1.0364  1.2826
 6166TIP3   OH239988   2.445   2.367   3.348  0.1833 -0.2201 -0.1944
 6166TIP3    H139989   2.403   2.415   3.276  0.1884 -0.0676 -0.0973
 6166TIP3    H239990   2.374   2.315   3.386  0.7681 -2.6627 -2.1864
 6167TIP3   OH239991   2.876   3.603   4.348 -0.4537  0.2571  0.3931
 6167TIP3    H139992   2.858   3.515   4.381  2.4185  0.5250  3.1424
 6167TIP3    H239993   2.967   3.599   4.317  0.0747  2.4151  1.4582
 6168TIP3   OH239994   0.296   0.165  16.534 -0.3535  0.3363 -0.5880
 6168TIP3    H139995   0.351   0.216  16.593 -0.4208  2.0097 -1.8914
 6168TIP3    H239996   0.250   0.104  16.592  0.4878  1.0553  0.9205
 6169TIP3   OH239997   3.073   2.611   0.242 -0.0119  0.7184  0.0681
 6169TIP3    H139998   3.122   2.540   0.282 -1.9631  0.5871  2.4962
 6169TIP3    H239999   3.065   2.586   0.150  0.5943 -1.4682  0.5536
 6170TIP3   OH240000   1.547   1.216  16.483 -0.1276 -0.1744  0.2120
 6170TIP3    H140001   1.626   1.268  16.467 -0.5515  0.3626 -0.1370
 6170TIP3    H240002   1.494   1.270  16.541 -0.1723 -0.6116  0.5889
 6171TIP3   OH240003   4.015   2.144  11.572  0.0187 -0.7985  0.0727
 6171TIP3    H140004   3.942   2.144  11.510 -0.2537  0.6487  0.3601
 6171TIP3    H240005   3.999   2.220  11.628  2.2364  0.1102 -0.4472
 6172TIP3   OH240006   0.044   0.739  14.813  0.0910  0.0062 -0.3390
 6172TIP3    H140007  -0.052   0.731  14.819  0.0919 -0.1664 -0.5385
 6172TIP3    H240008   0.060   0.761  14.722  0.2654 -0.3122 -0.3842
 6173TIP3   OH240009   6.471   6.257  16.375  0.1741 -0.3024 -0.1993
 6173TIP3    H140010   6.492   6.213  16.458 -0.2100 -0.2315 -0.0656
 6173TIP3    H240011   6.444   6.345  16.401  0.2552 -0.2139 -0.4162
 6174TIP3   OH240012   1.109   0.516  14.390 -0.2234 -0.3772  0.0032
 6174TIP3    H140013   1.039   0.531  14.327  0.0631 -0.0650 -0.2501
 6174TIP3    H240014   1.182   0.568  14.356  0.6003 -1.8297 -0.5206
 6175TIP3   OH240015   5.370   5.475  15.276 -0.9009 -0.3130  0.0371
 6175TIP3    H140016   5.406   5.563  15.285  1.3819 -1.1243 -0.7014
 6175TIP3    H240017   5.350   5.466  15.183  0.7627 -1.2466 -0.2519
 6176TIP3   OH240018   2.856   2.521  11.620 -0.2026 -0.7601  0.3683
 6176TIP3    H140019   2.892   2.576  11.690  0.9943 -0.4562 -0.4573
 6176TIP3    H240020   2.806   2.453  11.666 -0.0509 -0.1455  1.4804
 6177TIP3   OH240021   0.790   3.629   0.969 -0.1853 -0.2204  0.0090
 6177TIP3    H140022   0.840   3.710   0.976  0.1163 -0.4613  0.8230
 6177TIP3    H240023   0.812   3.593   0.883 -0.3971  0.6068 -0.3924
 6178TIP3   OH240024   0.755   6.600  14.444 -0.1586  0.0271 -0.0142
 6178TIP3    H140025   0.684   6.660  14.420  0.7114  1.4935  0.8940
 6178TIP3    H240026   0.716   6.542  14.509 -1.1916 -0.8612 -1.3664
 6179TIP3   OH240027   3.102   5.085  16.005 -0.2857 -0.5246 -0.1122
 6179TIP3    H140028   3.087   5.178  16.025  0.2013 -0.2861 -0.8023
 6179TIP3    H240029   3.029   5.062  15.947  0.0564 -0.3328 -0.6262
 6180TIP3   OH240030   2.894   1.085   1.439  0.1777  0.8183  0.4183
 6180TIP3    H140031   2.967   1.122   1.490  1.4586  0.8188 -1.3318
 6180TIP3    H240032   2.916   1.106   1.348 -0.3200 -2.0426 -0.4460
 6181TIP3   OH240033   2.207   0.127  13.757 -0.7736 -0.2259  0.0145
 6181TIP3    H140034   2.172   0.171  13.679  0.4645  1.8195  0.5334
 6181TIP3    H240035   2.262   0.057  13.722 -0.8567  0.1641 -0.9424
 6182TIP3   OH240036   2.235   5.077  16.465  0.3203 -0.4036 -0.0535
 6182TIP3    H140037   2.157   5.132  16.464  0.6754  0.2799  2.4667
 6182TIP3    H240038   2.294   5.118  16.401 -1.5641 -1.4155 -2.6404
 6183TIP3   OH240039   0.234   0.299  16.307 -0.0006  0.2142 -0.6548
 6183TIP3    H140040   0.140   0.317  16.315  0.4071  2.4535 -0.2763
 6183TIP3    H240041   0.252   0.238  16.379 -0.9015  0.9651  0.2551
 6184TIP3   OH240042   4.316   0.302  11.291 -0.0538 -0.3912 -0.1455
 6184TIP3    H140043   4.232   0.303  11.337 -1.5490  0.9178 -2.7141
 6184TIP3    H240044   4.377   0.343  11.353 -1.7492  0.4491  1.0533
 6185TIP3   OH240045   2.311   4.685   1.981  0.3451  0.0435 -0.0091
 6185TIP3    H140046   2.287   4.769   1.942 -1.1740 -1.5518 -2.8181
 6185TIP3    H240047   2.248   4.672   2.052  0.2008  0.9993  0.0414
 6186TIP3   OH240048   0.217   6.510  12.701 -0.2109  0.9281 -0.0674
 6186TIP3    H140049   0.244   6.565  12.774  0.1561  2.1314 -1.0817
 6186TIP3    H240050   0.251   6.554  12.623 -0.8799 -0.1403 -0.9988
 6187TIP3   OH240051   0.559   2.001   0.139  0.0371 -0.0451  0.0092
 6187TIP3    H140052   0.550   1.906   0.146  0.2403 -0.1527 -0.9906
 6187TIP3    H240053   0.469   2.034   0.143  0.0474  0.2030  5.2145
 6188TIP3   OH240054   6.498   3.370   3.272 -0.0520  0.1183  0.5527
 6188TIP3    H140055   6.463   3.284   3.296 -1.4931  0.4465 -0.2710
 6188TIP3    H240056   6.497   3.371   3.177 -0.1708  1.0947  0.5519
 6189TIP3   OH240057   3.560   4.381   1.790 -0.1818 -0.4250  0.3700
 6189TIP3    H140058   3.576   4.380   1.695  0.6857 -0.2569  0.5068
 6189TIP3    H240059   3.585   4.293   1.819  0.8994 -0.0488  0.6398
 6190TIP3   OH240060   6.359   3.495   0.213 -0.2948  0.3681 -0.0393
 6190TIP3    H140061   6.277   3.454   0.241 -0.5647  0.7307 -0.2969
 6190TIP3    H240062   6.350   3.504   0.119 -0.4977  1.5890  0.0852
 6191TIP3   OH240063   0.904   5.893   4.132  0.0518 -0.2942  0.3144
 6191TIP3    H140064   0.971   5.887   4.064  0.6026  1.2690  0.6728
 6191TIP3    H240065   0.900   5.804   4.170 -1.6379 -1.7555 -2.9171
 6192TIP3   OH240066   3.334   3.971  14.491  0.0422  0.1357 -0.0445
 6192TIP3    H140067   3.306   4.061  14.477  1.3292  0.5352 -0.1914
 6192TIP3    H240068   3.257   3.918  14.473 -0.9037  1.2406  0.6472
 6193TIP3   OH240069   0.946   5.609  10.516 -0.7024  0.4237 -0.0223
 6193TIP3    H140070   0.899   5.688  10.542  0.8456  1.2792  0.3017
 6193TIP3    H240071   0.903   5.538  10.563 -3.1751  0.7829 -1.5669
 6194TIP3   OH240072   2.460   4.139  16.658 -0.3124 -0.3614 -0.3276
 6194TIP3    H140073   2.495   4.134  16.747 -3.4043 -4.3733  0.9798
 6194TIP3    H240074   2.534   4.116  16.601  0.9316 -1.1619  1.5181
 6195TIP3   OH240075   4.110   1.607   5.717 -0.7410  0.0550 -0.5320
 6195TIP3    H140076   4.190   1.610   5.770  0.9759  0.1900 -2.9424
 6195TIP3    H240077   4.088   1.514   5.710  1.5556 -0.4340 -2.9399
 6196TIP3   OH240078   5.169   0.932   3.828  1.4105  0.3398 -0.2812
 6196TIP3    H140079   5.239   0.914   3.765 -0.3291 -1.6982 -1.7941
 6196TIP3    H240080   5.133   0.846   3.848 -1.3116  1.3797 -0.3461
 6197TIP3   OH240081   0.071   0.931  13.982  0.4070 -0.0323 -0.1040
 6197TIP3    H140082   0.123   0.854  14.004  0.6474  0.0497 -0.3821
 6197TIP3    H240083   0.117   0.971  13.908  1.2630  1.3437  1.1015
 6198TIP3   OH240084   3.254   4.460   1.067 -0.4426  0.0947  0.4557
 6198TIP3    H140085   3.210   4.397   1.124  0.3356 -1.3452 -0.4599
 6198TIP3    H240086   3.332   4.486   1.116  0.3414 -1.3086  0.0244
 6199TIP3   OH240087   6.310   1.754   3.810 -0.5691  0.3735  0.5770
 6199TIP3    H140088   6.362   1.832   3.828  0.5324  0.2636 -1.7383
 6199TIP3    H240089   6.234   1.787   3.760 -0.8801  0.1320  0.8848
 6200TIP3   OH240090   5.819   2.540   3.540 -0.2078 -0.6111  0.0417
 6200TIP3    H140091   5.773   2.611   3.585 -0.0318  0.1082 -0.8726
 6200TIP3    H240092   5.775   2.460   3.568 -2.2201  0.0669 -1.0239
 6201TIP3   OH240093   2.273   6.094  14.432  0.0939  0.2879 -0.5048
 6201TIP3    H140094   2.258   6.055  14.345  1.9639  1.8236 -1.5844
 6201TIP3    H240095   2.254   6.187  14.420  2.2655  0.8795  0.1567
 6202TIP3   OH240096   3.855   4.989   1.090 -0.3111 -0.6401  0.7492
 6202TIP3    H140097   3.910   4.965   1.164 -1.1418  1.1927  2.0453
 6202TIP3    H240098   3.902   5.061   1.047 -1.8691  1.4311  2.2884
 6203TIP3   OH240099   0.815   0.081  12.815  0.1115  0.0039  0.2378
 6203TIP3    H140100   0.740   0.114  12.864 -0.0773  0.2003 -0.1792
 6203TIP3    H240101   0.879   0.057  12.882  0.0818  0.8160  0.5704
 6204TIP3   OH240102   2.456   5.417   6.101 -0.4424  0.0771  0.7576
 6204TIP3    H140103   2.420   5.476   6.168 -0.1951 -0.6359  1.5220
 6204TIP3    H240104   2.382   5.360   6.078 -1.3721  2.0656 -1.6247
 6205TIP3   OH240105   3.018   3.224   5.368 -0.5380 -0.1858  0.7091
 6205TIP3    H140106   3.017   3.215   5.463 -1.6791  1.1920  0.8714
 6205TIP3    H240107   3.101   3.268   5.349  0.2863 -1.6069  0.9110
 6206TIP3   OH240108   1.730   1.097  16.668 -0.1202 -0.5083 -0.6868
 6206TIP3    H140109   1.680   1.094  16.749  0.3235  2.8202 -0.1502
 6206TIP3    H240110   1.665   1.113  16.600 -0.2022 -0.3689 -0.5745
 6207TIP3   OH240111   6.089   3.959   0.538  0.2341  0.5030  0.0178
 6207TIP3    H140112   6.076   3.869   0.510  1.7055  0.0680  0.6271
 6207TIP3    H240113   6.096   4.009   0.457 -1.2065  0.1993 -0.3244
 6208TIP3   OH240114   4.792   2.436   0.909 -0.2487  0.7790 -0.0971
 6208TIP3    H140115   4.884   2.415   0.923 -0.7018 -1.5789 -0.2372
 6208TIP3    H240116   4.790   2.532   0.902  2.1997  0.8771 -0.3375
 6209TIP3   OH240117   4.328   2.042   0.612  0.5256 -0.3835 -0.3091
 6209TIP3    H140118   4.255   1.981   0.604  0.3957 -0.3059  0.2355
 6209TIP3    H240119   4.349   2.067   0.522  0.9650 -1.6818 -0.5855
 6210TIP3   OH240120   6.709   1.373   5.874  0.4446  0.0816 -0.0968
 6210TIP3    H140121   6.668   1.401   5.793  1.3526  0.1387 -0.5518
 6210TIP3    H240122   6.655   1.410   5.943  1.2390  2.4840 -0.6695
 6211TIP3   OH240123   4.234   2.771  16.127 -0.3570  0.0520 -0.5020
 6211TIP3    H140124   4.254   2.836  16.059  0.9140  0.3514  0.1289
 6211TIP3    H240125   4.246   2.818  16.209  1.8835 -1.2732  0.0181
 6212TIP3   OH240126   3.704   4.966   5.249  0.4176  0.0569 -0.4892
 6212TIP3    H140127   3.774   5.023   5.220  1.6115 -1.6292 -1.0653
 6212TIP3    H240128   3.748   4.891   5.289 -1.0650 -0.7312 -0.2281
 6213TIP3   OH240129   1.814   0.644   1.356  0.3271 -0.3983  0.4680
 6213TIP3    H140130   1.852   0.718   1.308 -0.5087 -0.9049 -1.0499
 6213TIP3    H240131   1.797   0.679   1.444  2.3890  0.4048  0.5920
 6214TIP3   OH240132   5.100   0.470   5.090  0.2436 -0.1897  0.4266
 6214TIP3    H140133   5.097   0.555   5.046 -1.3663  0.1172  1.0613
 6214TIP3    H240134   5.185   0.434   5.065  0.9578  1.5748  0.1077
 6215TIP3   OH240135   4.137   2.953  11.574 -0.0524  0.1773 -0.5382
 6215TIP3    H140136   4.094   3.001  11.504 -0.1802  2.9643  1.3243
 6215TIP3    H240137   4.230   2.973  11.563  0.0153 -0.0398 -0.3799
 6216TIP3   OH240138   1.536   0.281   5.033  0.2354  0.2126 -0.9747
 6216TIP3    H140139   1.460   0.240   5.074  1.0370 -0.4646 -0.1338
 6216TIP3    H240140   1.499   0.333   4.962 -0.8977 -1.2412 -1.5019
 6217TIP3   OH240141   1.673   1.873   3.314 -0.3053 -0.4026  0.2673
 6217TIP3    H140142   1.579   1.889   3.325 -0.2251  0.3947 -0.1077
 6217TIP3    H240143   1.693   1.908   3.227  0.2140 -1.1613  0.0708
 6218TIP3   OH240144   1.713   0.601   2.511 -0.4203  0.6430  0.0445
 6218TIP3    H140145   1.760   0.628   2.432 -0.2991 -0.5789 -0.3224
 6218TIP3    H240146   1.746   0.660   2.580  1.6641 -0.1508 -0.2016
 6219TIP3   OH240147   2.142   0.053  14.987 -0.1056 -0.5343 -0.1233
 6219TIP3    H140148   2.107   0.104  15.060 -0.6829 -0.9226 -0.1181
 6219TIP3    H240149   2.181   0.118  14.928  0.9166 -0.2698  0.8114
 6220TIP3   OH240150   4.661   6.343  14.511 -0.0804  0.2350  0.2675
 6220TIP3    H140151   4.702   6.382  14.434  0.6496  2.5531  1.7052
 6220TIP3    H240152   4.718   6.271  14.536  0.3951  0.3049 -0.5978
 6221TIP3   OH240153   4.229   5.881  11.278  0.2980  0.2817  0.1420
 6221TIP3    H140154   4.143   5.919  11.259 -0.1219 -1.1940 -1.0470
 6221TIP3    H240155   4.242   5.816  11.210  0.0591 -3.2352  3.1486
 6222TIP3   OH240156   0.914   0.848  13.926  0.4403  0.4628 -0.1561
 6222TIP3    H140157   1.009   0.840  13.933  0.4428  1.3163  1.3030
 6222TIP3    H240158   0.881   0.760  13.941  1.0179 -0.0612 -1.7677
 6223TIP3   OH240159   5.595   6.441  15.901 -0.4632 -0.2223  0.1016
 6223TIP3    H140160   5.521   6.494  15.871 -0.5083 -0.8123 -0.8478
 6223TIP3    H240161   5.557   6.358  15.927 -0.1492 -0.4884 -0.2786
 6224TIP3   OH240162   1.701   2.411  16.828 -0.0092 -0.5983  0.2021
 6224TIP3    H140163   1.764   2.426  16.900  0.7099  1.3391 -0.7409
 6224TIP3    H240164   1.615   2.416  16.870  0.4146 -2.2786  1.3562
 6225TIP3   OH240165   5.384   0.634   4.873  0.2266  0.4043  0.3793
 6225TIP3    H140166   5.432   0.552   4.880  0.0693  0.2822 -0.0127
 6225TIP3    H240167   5.362   0.643   4.780 -0.0006  0.7502  0.4610
 6226TIP3   OH240168   6.572   2.725  15.977  0.1321  0.3084 -0.5125
 6226TIP3    H140169   6.577   2.782  15.900 -0.6423  0.0148 -0.7866
 6226TIP3    H240170   6.486   2.741  16.015  0.4819  0.3979  0.2627
 6227TIP3   OH240171   6.611   6.632  12.401  0.0352 -0.1451 -0.3651
 6227TIP3    H140172   6.608   6.597  12.490 -1.5569  1.3220  0.2137
 6227TIP3    H240173   6.698   6.609  12.369  0.4228 -1.2133  1.3566
 6228TIP3   OH240174   6.440   5.902  12.624 -0.5795  0.2868 -0.3965
 6228TIP3    H140175   6.461   5.965  12.556  0.8651  0.1421 -0.0991
 6228TIP3    H240176   6.408   5.825  12.576  0.1448  0.2946 -0.8917
 6229TIP3   OH240177   6.326   0.115  16.323  0.2652  0.1305 -0.5019
 6229TIP3    H140178   6.386   0.040  16.323  1.2968  0.8286  1.8997
 6229TIP3    H240179   6.329   0.148  16.234  1.0544 -1.7094 -1.2094
 6230TIP3   OH240180   1.977   2.590  15.936 -0.3637 -0.1848  0.0661
 6230TIP3    H140181   2.027   2.557  15.862  1.0368  0.1084  0.8484
 6230TIP3    H240182   1.899   2.629  15.897 -0.1629 -0.9663 -1.1640
 6231TIP3   OH240183   2.767   1.043  12.798 -0.2667  0.7963  0.4237
 6231TIP3    H140184   2.817   0.970  12.761 -1.2417 -0.0214  0.6861
 6231TIP3    H240185   2.830   1.115  12.801  0.1696  0.5885 -1.7774
 6232TIP3   OH240186   3.434   1.149  12.418 -0.0649 -0.2398  0.1348
 6232TIP3    H140187   3.500   1.219  12.420  0.1492 -0.3845 -1.0233
 6232TIP3    H240188   3.485   1.068  12.423 -0.3838 -0.3728  3.0173
 6233TIP3   OH240189   1.142   6.188   3.813 -0.1454 -0.5516 -0.1895
 6233TIP3    H140190   1.071   6.244   3.781 -0.9770 -0.6741  1.3135
 6233TIP3    H240191   1.221   6.240   3.800 -0.9109  1.0808  1.2749
 6234TIP3   OH240192   0.198   0.168  12.177  0.0365  0.8065  0.7819
 6234TIP3    H140193   0.115   0.168  12.224 -0.2721  0.4199  0.2445
 6234TIP3    H240194   0.184   0.226  12.102 -0.0121  0.1199  0.2482
 6235TIP3   OH240195   2.615   0.012   4.072 -0.0234 -0.0107 -0.4839
 6235TIP3    H140196   2.570   0.064   4.137 -0.7504 -0.7478 -0.3917
 6235TIP3    H240197   2.652  -0.062   4.121 -1.3631 -1.0725 -1.0170
 6236TIP3   OH240198   0.852   6.334  13.600 -0.4951 -0.4023 -0.0554
 6236TIP3    H140199   0.860   6.354  13.694 -2.8818 -0.7212  0.2833
 6236TIP3    H240200   0.800   6.406  13.565  0.5326 -0.1920 -1.2132
 6237TIP3   OH240201   2.116   3.919   2.931  0.7881 -0.1318  0.4464
 6237TIP3    H140202   2.076   3.872   2.858  1.6206 -0.1338 -0.0109
 6237TIP3    H240203   2.045   3.973   2.965  1.1254  2.2857 -2.3351
 6238TIP3   OH240204   6.567   5.606  14.102 -0.0462 -0.2190 -0.1612
 6238TIP3    H140205   6.570   5.589  14.196  0.6640  0.0607 -0.1239
 6238TIP3    H240206   6.659   5.607  14.075 -0.2749 -3.3214 -1.4267
 6239TIP3   OH240207   6.418   0.567  11.464 -1.0816 -0.0659  0.2733
 6239TIP3    H140208   6.506   0.591  11.494 -0.0531 -1.8293 -1.1428
 6239TIP3    H240209   6.374   0.535  11.543  0.4939 -1.6909  0.5597
 6240TIP3   OH240210   2.077   0.322  13.597 -0.1119 -0.1435 -0.4403
 6240TIP3    H140211   2.081   0.357  13.508  1.3113 -1.2038 -0.8336
 6240TIP3    H240212   2.008   0.373  13.640 -0.1963  1.0135 -1.8657
 6241TIP3   OH240213   3.823   2.153  15.577 -0.0559  0.0498  0.2110
 6241TIP3    H140214   3.774   2.232  15.554 -1.7509 -1.5835 -2.2603
 6241TIP3    H240215   3.764   2.103  15.633  0.3379 -0.2158  0.3953
 6242TIP3   OH240216   6.365   3.150  12.277  0.5184 -0.1941 -0.5719
 6242TIP3    H140217   6.372   3.093  12.200  1.1098  0.6626 -1.1845
 6242TIP3    H240218   6.273   3.147  12.302  0.6375 -1.8131 -0.2598
 6243TIP3   OH240219   5.040   6.314   4.930 -0.7084  0.1072 -0.3446
 6243TIP3    H140220   5.080   6.352   4.851  2.4874  0.0513  1.0809
 6243TIP3    H240221   4.956   6.358   4.937 -0.1955  1.6785 -2.6287
 6244TIP3   OH240222   2.784   5.671  11.663  0.1213  0.3134  0.2978
 6244TIP3    H140223   2.714   5.644  11.723 -0.5780 -1.0322 -1.0549
 6244TIP3    H240224   2.778   5.609  11.591  1.7858  1.0919 -0.5504
 6245TIP3   OH240225   2.377   3.037   1.770 -0.0487 -0.4007  0.6501
 6245TIP3    H140226   2.467   3.011   1.748 -0.1614 -0.6025  0.4235
 6245TIP3    H240227   2.387   3.121   1.815  0.2021 -0.1027  0.0443
 6246TIP3   OH240228   5.761   3.618  11.147 -0.0183 -0.3861  0.3136
 6246TIP3    H140229   5.685   3.672  11.169  0.4867  1.4689 -2.0576
 6246TIP3    H240230   5.837   3.671  11.175  0.4984 -1.7422  1.6689
 6247TIP3   OH240231   2.290   5.541   4.508  0.2473  0.4982  0.3138
 6247TIP3    H140232   2.295   5.447   4.523 -0.1900  0.6748  1.6659
 6247TIP3    H240233   2.226   5.550   4.437 -0.2224 -0.1975  0.6349
 6248TIP3   OH240234   0.443   0.531   2.964  0.1253  0.4966  0.2332
 6248TIP3    H140235   0.498   0.560   3.036 -1.0837 -1.0463  1.8777
 6248TIP3    H240236   0.364   0.583   2.971 -1.0869 -1.4024  1.7565
 6249TIP3   OH240237   0.768   1.484  10.969 -0.3201 -0.3146  0.1017
 6249TIP3    H140238   0.827   1.522  11.035 -2.7564  1.5178  1.3679
 6249TIP3    H240239   0.790   1.390  10.970  1.8023  0.1151  1.2783
 6250TIP3   OH240240   3.954   1.856   5.680 -0.1341 -0.0398  0.4555
 6250TIP3    H140241   3.998   1.771   5.686 -0.1033  0.0835  2.3594
 6250TIP3    H240242   3.865   1.834   5.653  0.4695 -0.4587 -1.3117
 6251TIP3   OH240243   5.247   1.094   0.576 -0.4151 -0.2977 -0.0486
 6251TIP3    H140244   5.166   1.127   0.538 -0.9049 -2.4879 -1.1155
 6251TIP3    H240245   5.301   1.171   0.589 -3.0460  1.3946  1.7717
 6252TIP3   OH240246   6.712   1.324   2.548  0.1470 -0.1301 -0.0075
 6252TIP3    H140247   6.717   1.351   2.639 -2.0770  1.9709 -0.3954
 6252TIP3    H240248   6.692   1.230   2.552  1.8672 -0.4819  1.5696
 6253TIP3   OH240249   1.470   1.707   6.312  0.7666 -0.4456  0.0743
 6253TIP3    H140250   1.440   1.703   6.403  0.6201  0.5621  0.0761
 6253TIP3    H240251   1.563   1.685   6.317  0.7837 -0.2809  0.4868
 6254TIP3   OH240252   1.161   0.636   6.453  0.3447  0.3549  0.5559
 6254TIP3    H140253   1.245   0.605   6.485  0.1304  1.0023  1.7943
 6254TIP3    H240254   1.110   0.655   6.532  0.1028  2.8624 -0.1124
 6255TIP3   OH240255   2.066   0.973   3.590 -0.7628  0.3316  0.2746
 6255TIP3    H140256   2.005   0.927   3.533 -2.3685  0.8114  1.5086
 6255TIP3    H240257   2.016   1.048   3.622  1.3521  2.2309 -0.6666
 6256TIP3   OH240258   3.590   1.326   3.701  0.3149 -0.8640 -0.5888
 6256TIP3    H140259   3.500   1.296   3.692  0.4583 -1.0408 -1.6000
 6256TIP3    H240260   3.597   1.356   3.791 -1.2159  0.6808 -0.9504
 6257TIP3   OH240261   1.916   6.526   5.835 -0.3552  0.4990 -0.0007
 6257TIP3    H140262   1.945   6.482   5.914  1.3434 -0.8695 -1.3165
 6257TIP3    H240263   1.981   6.503   5.769 -0.6942  3.0696 -1.3811
 6258TIP3   OH240264   1.339   5.031   4.489 -0.7168 -0.5391  0.2203
 6258TIP3    H140265   1.410   5.082   4.448 -1.1304 -0.4163 -0.3521
 6258TIP3    H240266   1.260   5.058   4.443 -1.0717 -1.0433  0.5215
 6259TIP3   OH240267   5.307   4.163  11.816 -0.1117 -0.0628 -0.0495
 6259TIP3    H140268   5.252   4.106  11.764 -0.2830 -0.3701  0.4584
 6259TIP3    H240269   5.359   4.212  11.752  0.7464 -1.4770 -0.4832
 6260TIP3   OH240270   3.429   0.562   6.640  0.5824  0.1891 -0.4192
 6260TIP3    H140271   3.412   0.549   6.546  0.4659 -2.6249 -0.1196
 6260TIP3    H240272   3.356   0.615   6.671 -0.6961 -0.8314 -1.5309
 6261TIP3   OH240273   2.683   3.200   3.779  0.4662 -1.0329  0.0627
 6261TIP3    H140274   2.723   3.282   3.807 -0.4266  0.4039 -2.4959
 6261TIP3    H240275   2.589   3.216   3.787  0.2734 -1.6256 -0.8775
 6262TIP3   OH240276   6.690   2.925  13.810 -0.4725  0.0533 -0.1067
 6262TIP3    H140277   6.720   2.966  13.728 -1.1182 -1.4737 -1.1489
 6262TIP3    H240278   6.755   2.953  13.875  0.0074  1.3833 -1.0994
 6263TIP3   OH240279   5.014   6.119   5.726  0.3149  0.6790 -0.3999
 6263TIP3    H140280   4.996   6.122   5.632  0.0894 -1.5056 -0.4642
 6263TIP3    H240281   4.931   6.097   5.766  0.4978  1.2264  0.3084
 6264TIP3   OH240282   0.285   0.450   5.822 -0.1841 -0.2461  0.1178
 6264TIP3    H140283   0.217   0.515   5.804 -0.5445 -0.3428  1.0680
 6264TIP3    H240284   0.321   0.476   5.907 -1.3199 -2.0877  1.2238
 6265TIP3   OH240285   1.490   1.825  15.037  0.3814  0.2736 -0.3935
 6265TIP3    H140286   1.514   1.907  14.994  0.0710  0.6919  0.2125
 6265TIP3    H240287   1.565   1.803  15.092  0.5322  0.0609 -0.6836
 6266TIP3   OH240288   3.297   2.987   2.489 -0.2212  0.2038  0.1000
 6266TIP3    H140289   3.278   2.894   2.492  0.9575 -0.0470  0.1143
 6266TIP3    H240290   3.392   2.993   2.486 -0.2879  1.3612 -1.2590
 6267TIP3   OH240291   2.478   6.434   3.641 -0.6553  0.1039  0.2253
 6267TIP3    H140292   2.559   6.468   3.602 -0.9815 -0.7881 -1.3337
 6267TIP3    H240293   2.486   6.454   3.734  0.4703  1.7651 -0.1768
 6268TIP3   OH240294   0.103   4.861   4.359  0.3295 -0.2301 -0.0361
 6268TIP3    H140295   0.183   4.819   4.328 -0.4819 -0.8101 -1.4486
 6268TIP3    H240296   0.077   4.917   4.286  0.9374  2.1647  1.4779
 6269TIP3   OH240297   5.437   4.759   3.973 -0.3970  0.0916  0.4640
 6269TIP3    H140298   5.446   4.848   4.005 -1.4591  0.2428  0.4028
 6269TIP3    H240299   5.504   4.750   3.905  0.7169  0.3322  1.5131
 6270TIP3   OH240300   2.551   4.697   3.006 -0.3265  0.2510 -0.2271
 6270TIP3    H140301   2.579   4.757   2.936  1.2119  0.0444  0.1812
 6270TIP3    H240302   2.630   4.651   3.031 -0.2408  1.9487  3.2849
 6271TIP3   OH240303   4.484   4.582   5.012  0.5418 -0.4977  0.4135
 6271TIP3    H140304   4.549   4.642   4.977  0.0884 -1.2672 -1.9235
 6271TIP3    H240305   4.411   4.638   5.038  1.1992  0.1666  0.8649
 6272TIP3   OH240306   1.582   3.645  11.757 -0.0990 -0.1876  0.0587
 6272TIP3    H140307   1.614   3.622  11.844 -0.9861 -2.0413 -0.0455
 6272TIP3    H240308   1.607   3.571  11.702  0.2806  0.8691 -1.2442
 6273TIP3   OH240309   3.332   3.237  13.745 -0.7403 -0.0766  0.3257
 6273TIP3    H140310   3.398   3.299  13.775 -0.5434 -1.1980  2.3675
 6273TIP3    H240311   3.329   3.170  13.813  0.7425 -3.6727 -2.7457
 6274TIP3   OH240312   4.414   4.368   5.399  0.0661  0.0398 -0.0180
 6274TIP3    H140313   4.463   4.368   5.317  1.0569  2.8398  0.4751
 6274TIP3    H240314   4.463   4.308   5.455  1.1378  0.4031 -0.5322
 6275TIP3   OH240315   1.452   6.195   2.681 -0.0178 -0.4703 -0.1984
 6275TIP3    H140316   1.470   6.251   2.606 -1.0443 -0.5576 -0.5276
 6275TIP3    H240317   1.513   6.122   2.673 -0.4983 -0.7623 -1.2557
 6276TIP3   OH240318   2.268   1.120  14.987  0.4052  0.0688 -0.3305
 6276TIP3    H140319   2.274   1.123  14.892 -1.1927  1.1220 -0.4421
 6276TIP3    H240320   2.186   1.073  15.005  0.8646 -0.4316  0.5421
 6277TIP3   OH240321   3.121   1.077   4.228  0.0919  0.2268 -0.1953
 6277TIP3    H140322   3.064   1.007   4.196  0.4083 -0.4563  0.7027
 6277TIP3    H240323   3.087   1.098   4.315  0.5741  0.5429 -0.0803
 6278TIP3   OH240324   2.586   5.025  13.537  0.0892  0.1164  0.3113
 6278TIP3    H140325   2.508   5.013  13.482 -1.0901 -0.2285  1.9833
 6278TIP3    H240326   2.647   4.959  13.507  0.2636  1.1873 -1.8730
 6279TIP3   OH240327   3.954   4.872   4.716  0.2383 -0.1057 -0.0887
 6279TIP3    H140328   3.922   4.906   4.799 -2.1778 -0.5619 -0.7338
 6279TIP3    H240329   3.975   4.950   4.664 -1.5317  0.3258 -0.2095
 6280TIP3   OH240330   2.216   0.919  13.019 -0.0173  0.5716 -0.2579
 6280TIP3    H140331   2.224   0.961  12.934  0.3894 -1.5155 -1.3057
 6280TIP3    H240332   2.302   0.932  13.060  0.9539 -1.2497 -1.5899
 6281TIP3   OH240333   5.996   2.162   4.626 -0.0583  0.0285  0.2702
 6281TIP3    H140334   5.993   2.227   4.696 -3.2273 -1.1362  1.3995
 6281TIP3    H240335   6.068   2.103   4.651  0.4380  1.0086  1.2339
 6282TIP3   OH240336   5.301   1.498  14.886 -0.2330 -0.5226  0.0509
 6282TIP3    H140337   5.273   1.588  14.900  0.8798 -0.2873  0.9559
 6282TIP3    H240338   5.248   1.467  14.813  1.2219  1.7551 -2.1665
 6283TIP3   OH240339   2.949   6.445  14.768  0.0619 -0.0869  0.3294
 6283TIP3    H140340   2.956   6.529  14.723  0.1276 -0.1084  0.3008
 6283TIP3    H240341   2.855   6.437  14.788  0.2070  0.5305  1.3463
 6284TIP3   OH240342   6.029   1.534  11.786 -0.2444 -0.5073 -0.4411
 6284TIP3    H140343   5.937   1.509  11.786 -0.5382  0.4775  0.6396
 6284TIP3    H240344   6.061   1.504  11.871  0.0918  0.3036 -0.2731
 6285TIP3   OH240345   5.378   4.919   5.288 -0.3286  0.0295  0.0566
 6285TIP3    H140346   5.284   4.902   5.284 -0.3110  0.1112 -0.8355
 6285TIP3    H240347   5.388   5.011   5.261  0.1355 -0.4423 -1.4816
 6286TIP3   OH240348   3.078   2.672  15.015 -0.1145  0.0416  0.0860
 6286TIP3    H140349   3.111   2.737  14.953  3.0816 -1.2046  0.2717
 6286TIP3    H240350   3.036   2.605  14.961 -0.4331  0.6178 -0.3888
 6287TIP3   OH240351   2.722   0.587   2.073 -0.2810  0.5411  0.0596
 6287TIP3    H140352   2.707   0.668   2.024 -0.9167  0.5171  0.2009
 6287TIP3    H240353   2.635   0.547   2.081 -0.0205 -0.0049  0.2547
 6288TIP3   OH240354   2.261   1.549   4.919  0.0872 -0.1430 -0.2056
 6288TIP3    H140355   2.316   1.517   4.990 -0.8119 -0.5178  0.3448
 6288TIP3    H240356   2.185   1.587   4.963  0.7013  2.0072 -0.8699
 6289TIP3   OH240357   0.156   3.002   2.349  0.0307 -0.3387 -0.4456
 6289TIP3    H140358   0.223   3.024   2.413 -1.6100 -1.4833  1.7748
 6289TIP3    H240359   0.081   2.973   2.400 -1.6885 -0.5275 -2.8665
 6290TIP3   OH240360   6.679   0.748   4.620 -0.3585 -0.0279 -0.1563
 6290TIP3    H140361   6.603   0.708   4.661 -0.0506 -0.6556 -0.1762
 6290TIP3    H240362   6.695   0.827   4.670 -0.0218 -0.7487  0.9132
 6291TIP3   OH240363   2.803   3.380  14.565  0.2653  0.1585  0.7824
 6291TIP3    H140364   2.897   3.372  14.581  0.7420  0.3501 -1.5030
 6291TIP3    H240365   2.776   3.291  14.544 -0.9976 -0.7236  5.1736
 6292TIP3   OH240366   5.489   4.671   5.319 -0.1372 -0.1576 -0.7658
 6292TIP3    H140367   5.452   4.759   5.327  0.6885  0.1300  0.0321
 6292TIP3    H240368   5.579   4.686   5.288  0.4384 -0.6160  0.6076
 6293TIP3   OH240369   3.752   6.398   0.182  0.0818  0.0026 -0.1271
 6293TIP3    H140370   3.752   6.338   0.256  2.6850  0.1505  0.0663
 6293TIP3    H240371   3.708   6.350   0.112  3.7693 -3.1336 -0.6294
 6294TIP3   OH240372   0.192   3.714   3.883  0.0300  0.2210 -0.3011
 6294TIP3    H140373   0.112   3.766   3.876 -0.1456  0.0646  0.4446
 6294TIP3    H240374   0.160   3.623   3.886  0.1237  0.2104  1.3449
 6295TIP3   OH240375   6.553   6.580  10.250 -0.3877  0.6109 -0.3498
 6295TIP3    H140376   6.621   6.608  10.310  0.1162  1.0490 -1.1109
 6295TIP3    H240377   6.484   6.646  10.259 -0.5880  0.3266  0.2083
 6296TIP3   OH240378   1.405   5.477  12.699 -0.0131 -0.5878  0.0499
 6296TIP3    H140379   1.382   5.568  12.715  0.9669 -0.2741 -0.2255
 6296TIP3    H240380   1.337   5.426  12.743 -0.6198  0.2746  0.1244
 6297TIP3   OH240381   1.688   6.191  12.496  0.2676  0.1926  0.2737
 6297TIP3    H140382   1.649   6.253  12.435  0.8902  2.6278  2.2091
 6297TIP3    H240383   1.774   6.171  12.459  0.2564  0.8689 -0.1368
 6298TIP3   OH240384   5.556   3.143  15.111 -0.0457  0.0455  0.2565
 6298TIP3    H140385   5.623   3.137  15.180 -0.8259 -2.9659  0.9160
 6298TIP3    H240386   5.489   3.200  15.148  1.2395  1.5219  0.3889
 6299TIP3   OH240387   6.183   3.733  16.128  0.5991 -0.0051  0.0310
 6299TIP3    H140388   6.278   3.742  16.141  0.6032  0.1775 -0.1200
 6299TIP3    H240389   6.161   3.802  16.065 -0.1500  2.1170  2.4374
 6300TIP3   OH240390   2.932   1.178  13.982  0.4851 -0.0772 -0.2030
 6300TIP3    H140391   2.978   1.155  13.902  0.4924 -0.3601 -0.1170
 6300TIP3    H240392   2.999   1.179  14.050  0.3058 -0.8580 -0.0081
 6301TIP3   OH240393   1.620   6.021   5.431  0.7646  0.2430  0.5288
 6301TIP3    H140394   1.526   6.035   5.440  0.7371  1.1939 -0.7597
 6301TIP3    H240395   1.639   5.945   5.485 -0.6517  0.3491  1.2257
 6302TIP3   OH240396   1.961   0.955   5.727  0.0076 -0.5776 -0.1382
 6302TIP3    H140397   1.979   1.042   5.763 -0.6346  0.6284 -2.5385
 6302TIP3    H240398   2.021   0.948   5.652 -2.0587 -0.8646 -1.8491
 6303TIP3   OH240399   6.574   2.854  16.807  0.2058 -0.0006  0.1296
 6303TIP3    H140400   6.617   2.822  16.728 -0.6774 -1.2349  0.1129
 6303TIP3    H240401   6.552   2.945  16.787  2.8482  0.7383  0.1930
 6304TIP3   OH240402   5.559   6.374  13.411 -0.9056 -0.3198  0.2400
 6304TIP3    H140403   5.646   6.386  13.449 -0.4679  0.6072 -0.9993
 6304TIP3    H240404   5.573   6.372  13.316 -2.3526  1.1319 -0.0532
 6305TIP3   OH240405   3.435   4.845   0.366 -0.0966  0.3729 -0.1513
 6305TIP3    H140406   3.460   4.768   0.316 -0.9288 -1.6381  2.3337
 6305TIP3    H240407   3.507   4.858   0.427 -0.1330  1.3982 -0.3022
 6306TIP3   OH240408   2.252   5.409   1.721 -0.1853  0.2852  0.1941
 6306TIP3    H140409   2.265   5.498   1.687  0.9385  0.5832  1.3139
 6306TIP3    H240410   2.159   5.392   1.709 -0.1292  0.9749 -1.5221
 6307TIP3   OH240411   0.983   5.254  11.636  0.0041 -0.1190  1.0538
 6307TIP3    H140412   1.033   5.284  11.560 -0.3474 -1.1406  0.3942
 6307TIP3    H240413   1.034   5.182  11.673  0.5078  0.8032  2.2142
 6308TIP3   OH240414   4.649   6.243   3.280 -0.1611  0.3980 -0.6066
 6308TIP3    H140415   4.635   6.244   3.185 -2.1354  0.5297 -0.3553
 6308TIP3    H240416   4.723   6.302   3.294 -1.1525  2.0342 -1.8971
 6309TIP3   OH240417   3.342   0.854   4.052  0.3350  0.2996  0.0694
 6309TIP3    H140418   3.256   0.892   4.036  0.6146  0.4245 -1.2404
 6309TIP3    H240419   3.395   0.882   3.978  1.0623 -1.0997  0.0271
 6310TIP3   OH240420   3.182   3.948   0.950 -0.3162 -0.3744  0.0210
 6310TIP3    H140421   3.212   3.863   0.982 -0.3228 -0.6672 -0.7508
 6310TIP3    H240422   3.263   4.000   0.941 -0.4337  0.2703  2.0486
 6311TIP3   OH240423   4.784   5.279  13.326 -0.0572 -0.0987  0.2399
 6311TIP3    H140424   4.754   5.203  13.376  0.3007 -0.1466  0.3793
 6311TIP3    H240425   4.801   5.346  13.392 -1.4305  0.4824  0.0563
 6312TIP3   OH240426   4.479   0.223  12.831 -0.1024 -0.2632 -0.3939
 6312TIP3    H140427   4.491   0.225  12.736 -0.1868 -1.8088 -0.4601
 6312TIP3    H240428   4.471   0.315  12.856  1.2287  0.2400 -1.6988
 6313TIP3   OH240429   0.075   2.484   2.588  0.1678 -0.8305 -0.1930
 6313TIP3    H140430   0.031   2.484   2.502  0.0744  1.5764 -0.2095
 6313TIP3    H240431   0.148   2.544   2.577  0.7028 -1.2068  1.1817
 6314TIP3   OH240432   3.922   3.167   5.450  0.5625 -0.2069  0.1813
 6314TIP3    H140433   3.834   3.130   5.455  0.8322 -0.8280  0.5039
 6314TIP3    H240434   3.963   3.142   5.532  1.0164  0.1521  0.0689
 6315TIP3   OH240435   6.139   0.907   2.886  0.4091  0.6539  0.2456
 6315TIP3    H140436   6.136   0.984   2.944  2.6369  1.1179 -0.1742
 6315TIP3    H240437   6.104   0.836   2.939  0.4242  1.5012  1.4314
 6316TIP3   OH240438   6.474   0.951  15.513 -0.1766  0.2801 -0.3082
 6316TIP3    H140439   6.569   0.965  15.515 -0.3967  1.9625  0.5289
 6316TIP3    H240440   6.460   0.892  15.440  1.3848  1.1584 -1.3771
 6317TIP3   OH240441   2.701   5.119   5.850  0.5169 -0.2298  0.0070
 6317TIP3    H140442   2.607   5.099   5.844  0.2576  0.0800  2.1787
 6317TIP3    H240443   2.731   5.119   5.760 -1.6885  0.1753 -0.7967
 6318TIP3   OH240444   5.125   3.752   0.451  0.3404  0.7402 -0.3549
 6318TIP3    H140445   5.169   3.823   0.496 -1.0533 -0.4113  3.1386
 6318TIP3    H240446   5.172   3.673   0.477 -0.4877  0.0253 -0.9453
 6319TIP3   OH240447   1.857   6.598   2.710 -0.3734  0.1402 -0.1608
 6319TIP3    H140448   1.891   6.512   2.735  3.3408  0.6100 -2.8034
 6319TIP3    H240449   1.835   6.590   2.618  0.5035  2.0805 -0.5941
 6320TIP3   OH240450   1.947   4.690   0.871  0.1012  0.1574 -0.2711
 6320TIP3    H140451   1.991   4.709   0.788  1.1572  0.9146  0.4468
 6320TIP3    H240452   1.905   4.773   0.895 -2.9545 -0.8442 -1.5942
 6321TIP3   OH240453   4.434   4.826  15.931 -0.1014  0.7267 -0.4306
 6321TIP3    H140454   4.494   4.805  15.859 -0.2765 -1.1049 -0.0642
 6321TIP3    H240455   4.348   4.832  15.889 -0.2725 -0.7911 -0.3232
 6322TIP3   OH240456   6.210   1.221  17.087 -0.4188 -0.1367 -0.2705
 6322TIP3    H140457   6.299   1.226  17.051 -0.8346  0.2624 -1.2665
 6322TIP3    H240458   6.198   1.129  17.110  0.8314  0.0676  1.4082
 6323TIP3   OH240459   0.280   4.980  11.981 -0.2335  0.2657 -0.1417
 6323TIP3    H140460   0.350   5.001  12.042 -1.5056 -0.0036  1.4950
 6323TIP3    H240461   0.281   4.884  11.975 -1.0122  0.2001  0.6071
 6324TIP3   OH240462   0.269   2.295   3.720 -0.4422  0.0145 -0.1260
 6324TIP3    H140463   0.233   2.213   3.685 -0.0116  0.7315 -2.4600
 6324TIP3    H240464   0.327   2.268   3.791 -0.9548 -1.6238 -0.2870
 6325TIP3   OH240465   2.047   2.097  16.203  0.1001  0.7331 -0.3932
 6325TIP3    H140466   2.110   2.168  16.202  1.6140 -0.4695  1.6024
 6325TIP3    H240467   2.044   2.069  16.295 -4.1180  1.3488 -0.1516
 6326TIP3   OH240468   3.745   1.851  16.737  0.3502  0.3050  0.0701
 6326TIP3    H140469   3.800   1.899  16.676  1.0539  0.5480  0.8784
 6326TIP3    H240470   3.778   1.875  16.824 -1.8283  1.4802  0.6668
 6327TIP3   OH240471   2.493   6.145  12.247  0.2385 -0.1733  0.1284
 6327TIP3    H140472   2.416   6.115  12.296  0.8569 -1.7664  0.1781
 6327TIP3    H240473   2.565   6.091  12.280  1.2636  0.8143 -0.4068
 6328TIP3   OH240474   5.813   1.960   3.846  0.5562  0.3077  0.5462
 6328TIP3    H140475   5.851   1.880   3.882  0.6153  0.6348  1.2348
 6328TIP3    H240476   5.864   2.031   3.886  2.2156  0.6848 -1.9821
 6329TIP3   OH240477   4.570   1.194  13.274  0.4729  0.2543 -0.1262
 6329TIP3    H140478   4.510   1.122  13.297  1.2518 -0.6465 -0.8243
 6329TIP3    H240479   4.629   1.200  13.350  1.3561 -0.9009 -0.6816
 6330TIP3   OH240480   0.261   1.602   4.055 -0.0591 -0.0416 -0.2018
 6330TIP3    H140481   0.267   1.694   4.078 -1.5088 -0.1258  0.6787
 6330TIP3    H240482   0.326   1.559   4.110 -0.5378  0.2721  0.6289
 6331TIP3   OH240483   0.564   0.313   4.123 -0.3029  0.5649  0.6932
 6331TIP3    H140484   0.580   0.326   4.030 -0.1873  0.8192  0.7479
 6331TIP3    H240485   0.555   0.401   4.158  0.7045  0.5087  1.1095
 6332TIP3   OH240486   2.717   4.633  16.736  0.4888 -0.0197 -0.3474
 6332TIP3    H140487   2.754   4.696  16.797  0.2059  0.4359 -0.6425
 6332TIP3    H240488   2.666   4.686  16.674 -2.6390 -0.7322  1.3605
 6333TIP3   OH240489   2.694   5.652  15.909  0.2397 -0.4527 -0.1278
 6333TIP3    H140490   2.695   5.746  15.930 -2.2558 -0.2665 -0.5452
 6333TIP3    H240491   2.712   5.648  15.815 -3.4409  0.0342 -0.9868
 6334TIP3   OH240492   5.768   1.498   0.857 -0.2103 -0.9782  0.1608
 6334TIP3    H140493   5.698   1.484   0.921  0.0291 -1.1673  0.3801
 6334TIP3    H240494   5.815   1.575   0.889  0.0193 -1.1793  0.3083
 6335TIP3   OH240495   6.112   3.986  16.281  0.0405 -0.0506  0.2588
 6335TIP3    H140496   6.108   3.963  16.188 -2.2316  1.1065 -0.0075
 6335TIP3    H240497   6.049   3.928  16.323  0.0521  0.3477  0.8391
 6336TIP3   OH240498   0.897   4.910   3.655 -0.0169 -0.1148  0.0679
 6336TIP3    H140499   0.840   4.986   3.668 -1.4407 -0.8025 -1.7189
 6336TIP3    H240500   0.905   4.902   3.560 -1.1878 -3.1009  0.1281
 6337TIP3   OH240501   0.911   2.231  15.961 -0.3806 -0.1527  0.0816
 6337TIP3    H140502   0.902   2.144  16.002  1.3620 -0.0613  0.7485
 6337TIP3    H240503   0.960   2.282  16.025 -1.1165  1.2484 -0.4494
 6338TIP3   OH240504   5.836   0.937  12.427  0.0875  0.2332  0.4992
 6338TIP3    H140505   5.876   1.016  12.391 -0.2636  0.5139  0.7125
 6338TIP3    H240506   5.743   0.948  12.410 -0.1384  0.5540  1.8080
 6339TIP3   OH240507   4.584   5.306  17.202 -0.9705 -0.4877  0.0311
 6339TIP3    H140508   4.667   5.260  17.192 -1.5367 -1.3990 -0.6129
 6339TIP3    H240509   4.529   5.247  17.252 -0.4832  1.1284  2.6282
 6340TIP3   OH240510   4.375   2.132   0.328 -0.2596 -0.2558 -0.1605
 6340TIP3    H140511   4.469   2.150   0.319 -0.4191  1.1715  0.8130
 6340TIP3    H240512   4.367   2.038   0.310  0.9810  0.0612 -2.8669
 6341TIP3   OH240513   4.845   6.203   3.770 -0.5622  0.1915  0.4831
 6341TIP3    H140514   4.923   6.242   3.810 -0.1171  0.2778 -0.4514
 6341TIP3    H240515   4.868   6.190   3.678 -0.8933 -1.7753  0.6329
 6342TIP3   OH240516   5.630   1.966   1.616 -0.5172  0.1952 -0.2513
 6342TIP3    H140517   5.682   2.007   1.546  0.8954 -1.4707 -0.2428
 6342TIP3    H240518   5.691   1.960   1.690 -1.6410  0.8679  0.7704
 6343TIP3   OH240519   1.964   1.834   2.607 -0.6179  0.2573  0.7247
 6343TIP3    H140520   2.008   1.749   2.613 -0.3301  0.4787  1.9560
 6343TIP3    H240521   2.024   1.888   2.555  0.1474  0.2862  1.6237
 6344TIP3   OH240522   0.068   5.455  12.702 -0.4180  0.1407 -0.4807
 6344TIP3    H140523   0.138   5.519  12.712 -1.3948  1.3788 -1.1772
 6344TIP3    H240524   0.111   5.376  12.668  1.1921 -0.4841  2.6319
 6345TIP3   OH240525   5.591   4.523  11.502 -0.4430  0.1279 -0.5190
 6345TIP3    H140526   5.614   4.571  11.423 -0.0609 -0.3785 -0.7156
 6345TIP3    H240527   5.499   4.501  11.491 -0.3079 -0.2070 -0.9561
 6346TIP3   OH240528   4.519   2.075  12.451  0.3661  0.5185  0.3146
 6346TIP3    H140529   4.469   2.139  12.503  0.9294  1.0474  0.2179
 6346TIP3    H240530   4.568   2.025  12.516  0.7253  0.8828  0.3288
 6347TIP3   OH240531   4.172   0.827  10.943 -0.1705 -0.1958  0.1536
 6347TIP3    H140532   4.226   0.780  11.006 -0.6872 -0.1192  0.6670
 6347TIP3    H240533   4.087   0.783  10.948 -0.5832  0.6206  0.4560
 6348TIP3   OH240534   3.468   0.312   0.829  0.2503  0.3540 -0.1165
 6348TIP3    H140535   3.482   0.274   0.916  0.1935 -0.0851 -0.2979
 6348TIP3    H240536   3.554   0.308   0.787  0.1013 -0.1739 -0.3725
 6349TIP3   OH240537   6.729   1.245   4.386  0.2657  0.3558  0.4186
 6349TIP3    H140538   6.803   1.271   4.441  0.6002 -1.0426  0.6528
 6349TIP3    H240539   6.767   1.185   4.322 -0.8562 -1.5051  1.4061
 6350TIP3   OH240540   4.728   6.667   3.130  0.1204  0.8500 -0.0323
 6350TIP3    H140541   4.774   6.736   3.177  1.1762 -0.3562  0.7619
 6350TIP3    H240542   4.792   6.597   3.121 -0.8477  0.0503 -1.0451
 6351TIP3   OH240543   4.194   1.391  13.732  0.0540 -0.0187 -0.0438
 6351TIP3    H140544   4.278   1.422  13.765 -0.0544  1.1767 -0.8190
 6351TIP3    H240545   4.139   1.384  13.811  0.5412  0.2948  0.3328
 6352TIP3   OH240546   2.621   6.128   3.490  0.6155  0.2177  0.3274
 6352TIP3    H140547   2.551   6.076   3.451 -0.4330 -0.0104  2.3607
 6352TIP3    H240548   2.621   6.210   3.441  1.0013 -0.9142 -1.6751
 6353TIP3   OH240549   6.746   0.557  14.506 -0.5396  0.3205 -0.5879
 6353TIP3    H140550   6.658   0.595  14.499 -0.8631  0.3511  2.2132
 6353TIP3    H240551   6.735   0.485  14.569  1.5872  1.0010  0.6564
 6354TIP3   OH240552   1.154   2.435   3.014  0.1537  0.3416 -0.1782
 6354TIP3    H140553   1.101   2.477   3.082  0.5612  1.6972 -0.6633
 6354TIP3    H240554   1.202   2.366   3.060 -0.9849 -0.0091  0.5328
 6355TIP3   OH240555   3.147   1.976  15.284 -0.1455  0.0444 -0.4282
 6355TIP3    H140556   3.095   1.978  15.203 -0.2552  0.9253 -0.3360
 6355TIP3    H240557   3.099   1.917  15.342 -0.2635 -0.2999 -0.8699
 6356TIP3   OH240558   4.253   5.775  16.135  0.3073  0.4745 -0.6019
 6356TIP3    H140559   4.261   5.695  16.188  2.5229 -0.3214 -1.9819
 6356TIP3    H240560   4.161   5.776  16.107  0.1627 -1.4721 -0.3382
 6357TIP3   OH240561   0.287   5.624  15.619  0.1208  0.2848  0.2919
 6357TIP3    H140562   0.340   5.560  15.572 -0.0979 -0.2969  0.8241
 6357TIP3    H240563   0.274   5.695  15.557 -0.7629 -0.7760 -0.7846
 6358TIP3   OH240564   3.627   2.395  12.887 -0.2880  0.6250  0.4214
 6358TIP3    H140565   3.646   2.379  12.980  0.5194  0.1304  0.1756
 6358TIP3    H240566   3.679   2.472  12.865 -0.0762  0.4329  0.2489
 6359TIP3   OH240567   5.312   6.538  11.505 -0.5321 -0.1306 -0.2678
 6359TIP3    H140568   5.311   6.596  11.582 -1.0003 -0.9037  0.3192
 6359TIP3    H240569   5.227   6.550  11.464 -0.0873  0.6910 -1.0059
 6360TIP3   OH240570   6.018   6.701   0.657  0.5509 -0.6472  0.1720
 6360TIP3    H140571   5.972   6.767   0.709 -1.3212  0.7750 -2.9493
 6360TIP3    H240572   6.101   6.742   0.634  0.8139 -0.7383  0.9638
 6361TIP3   OH240573   3.795   0.794  15.075 -0.2041 -0.3800  0.5390
 6361TIP3    H140574   3.819   0.825  15.162  1.7716  2.7751 -0.9627
 6361TIP3    H240575   3.699   0.797  15.074 -0.2305  0.5989  2.2269
 6362TIP3   OH240576   5.252   3.389  15.829  0.6802  0.2056 -0.3649
 6362TIP3    H140577   5.336   3.348  15.850  1.7108  0.8502 -2.8849
 6362TIP3    H240578   5.243   3.460  15.893  2.2444  0.3599 -0.2929
 6363TIP3   OH240579   1.007   3.902   5.086  0.2187  0.4554 -0.2322
 6363TIP3    H140580   1.017   3.836   5.154  0.5753 -0.1489 -0.8653
 6363TIP3    H240581   1.031   3.858   5.005 -0.5212  1.0686 -0.8066
 6364TIP3   OH240582   6.409   5.528  17.069  0.5743  0.1321  0.5234
 6364TIP3    H140583   6.479   5.589  17.046 -0.4020  0.7206 -1.0987
 6364TIP3    H240584   6.350   5.579  17.125 -0.4835  0.9304 -1.2046
 6365TIP3   OH240585   5.962   2.369   3.257  0.1483 -0.1102 -0.3195
 6365TIP3    H140586   5.880   2.387   3.212 -0.0282  1.2447  0.4957
 6365TIP3    H240587   5.940   2.370   3.350  0.4435 -3.1539 -0.1065
 6366TIP3   OH240588   0.799   2.652  15.103  0.4208 -0.0967  0.1174
 6366TIP3    H140589   0.881   2.693  15.131  0.5420 -1.0905  1.2821
 6366TIP3    H240590   0.795   2.570  15.152 -1.6147  0.2642  0.6394
 6367TIP3   OH240591   2.545   4.890  17.061 -0.2299  0.1495  0.7480
 6367TIP3    H140592   2.496   4.966  17.092 -0.2028 -0.5049  2.5117
 6367TIP3    H240593   2.496   4.815  17.093  0.1659 -0.5782 -0.2936
 6368TIP3   OH240594   5.754   5.338   5.820 -0.1962 -0.2766 -0.3563
 6368TIP3    H140595   5.681   5.342   5.759 -0.5264  0.4773  0.0741
 6368TIP3    H240596   5.812   5.272   5.784 -1.0295 -0.7986 -0.7757
 6369TIP3   OH240597   4.505   1.500   0.680  0.5675  0.0119 -0.1998
 6369TIP3    H140598   4.542   1.581   0.713  0.7798 -0.1290 -0.0943
 6369TIP3    H240599   4.416   1.498   0.715 -0.1064  1.1159 -1.7029
 6370TIP3   OH240600   3.414   5.363  14.630  0.0297  0.2071 -0.5038
 6370TIP3    H140601   3.478   5.421  14.670 -1.0831  0.4608  0.9972
 6370TIP3    H240602   3.365   5.420  14.570 -0.4393  0.6411  0.2622
 6371TIP3   OH240603   4.497   4.920  14.247  0.2718  0.0146  0.4555
 6371TIP3    H140604   4.528   4.869  14.173  0.0062 -0.0445  0.3867
 6371TIP3    H240605   4.551   4.891  14.320  0.9097  0.4677  0.1711
 6372TIP3   OH240606   2.223   4.068  13.009 -0.2106 -0.0710  0.4947
 6372TIP3    H140607   2.284   4.002  13.042 -0.9314 -0.1100  1.8297
 6372TIP3    H240608   2.162   4.019  12.955  0.2413 -0.2204  0.1105
 6373TIP3   OH240609   0.625   6.394  16.768 -0.2098 -0.2115 -0.4470
 6373TIP3    H140610   0.647   6.444  16.689  1.8692 -0.6649 -0.2155
 6373TIP3    H240611   0.630   6.458  16.839 -0.8455 -0.0782 -0.5095
 6374TIP3   OH240612   0.885   3.988   5.905  0.3878 -0.1911 -0.0200
 6374TIP3    H140613   0.806   3.954   5.863  0.3359  0.6961 -0.6532
 6374TIP3    H240614   0.892   3.937   5.985 -0.1707 -1.0974 -0.5283
 6375TIP3   OH240615   2.421   2.913  15.084 -0.1496  0.0938 -0.0444
 6375TIP3    H140616   2.454   3.003  15.082 -0.6486  0.3190  1.1584
 6375TIP3    H240617   2.384   2.899  14.997  0.1604  0.9605 -0.3289
 6376TIP3   OH240618   3.546   3.478   4.307 -0.0588  0.3049 -0.8802
 6376TIP3    H140619   3.546   3.555   4.250 -2.8548  0.7764 -0.3864
 6376TIP3    H240620   3.457   3.442   4.300 -0.5313  0.2528  2.9277
 6377TIP3   OH240621   6.507   5.493  14.351 -0.2222  0.8616  0.3908
 6377TIP3    H140622   6.505   5.513  14.445 -2.2715 -1.0875  0.8419
 6377TIP3    H240623   6.436   5.430  14.339  0.5307  0.4446 -2.3479
 6378TIP3   OH240624   0.021   0.532  11.705 -0.2180 -0.4276 -0.1383
 6378TIP3    H140625  -0.058   0.499  11.747 -0.0587  0.1238  0.6094
 6378TIP3    H240626   0.029   0.480  11.625 -0.6530 -1.3359  0.3960
 6379TIP3   OH240627   1.886   5.888   5.667 -0.1540  0.4549 -0.1694
 6379TIP3    H140628   1.890   5.969   5.717  0.8509  0.1757  0.2130
 6379TIP3    H240629   1.977   5.866   5.649 -0.4454 -0.2113 -0.8891
 6380TIP3   OH240630   3.115   3.440  12.845  0.5799  0.5498  0.0779
 6380TIP3    H140631   3.146   3.523  12.879 -0.9947  0.9364  0.6417
 6380TIP3    H240632   3.024   3.435  12.872  1.1268 -2.2858  1.8509
 6381TIP3   OH240633   6.708   1.819  13.815  0.3038  0.1461 -0.3263
 6381TIP3    H140634   6.677   1.752  13.875  1.8853 -1.2417 -0.9689
 6381TIP3    H240635   6.641   1.824  13.747  0.3139 -1.0730 -0.4521
 6382TIP3   OH240636   0.868   1.156  16.863  0.1005  0.3870  0.2987
 6382TIP3    H140637   0.943   1.096  16.857 -1.8762 -2.4143  1.4795
 6382TIP3    H240638   0.862   1.196  16.776  1.7076 -0.9198 -0.4596
 6383TIP3   OH240639   1.565   5.988  15.595 -0.0423  0.1733 -0.1448
 6383TIP3    H140640   1.504   6.062  15.589  0.8301  0.8138 -2.0655
 6383TIP3    H240641   1.516   5.920  15.640 -2.8462  0.0999 -2.9384
 6384TIP3   OH240642   4.108   1.228   2.862 -0.4528  0.0374 -0.7623
 6384TIP3    H140643   4.052   1.234   2.939  1.0593 -1.2019  0.5168
 6384TIP3    H240644   4.173   1.297   2.873  0.3400 -0.7421 -0.3958
 6385TIP3   OH240645   0.153   6.268   1.847  0.0575  0.3110 -0.0373
 6385TIP3    H140646   0.062   6.284   1.820 -0.5446 -2.5423  0.0227
 6385TIP3    H240647   0.188   6.356   1.864 -2.8609  1.4975  0.5624
 6386TIP3   OH240648   3.987   3.578  13.197  0.3145 -0.2896  0.0328
 6386TIP3    H140649   3.902   3.622  13.189  1.5059  2.4774  1.4001
 6386TIP3    H240650   4.015   3.565  13.106 -1.1756 -0.5370 -0.4303
 6387TIP3   OH240651   5.632   0.735   4.343  0.5387  0.0976  1.1910
 6387TIP3    H140652   5.720   0.770   4.354  0.4422  0.8275 -0.0677
 6387TIP3    H240653   5.645   0.648   4.304  0.7122 -0.1222  1.7334
 6388TIP3   OH240654   6.254   4.055   6.035  0.3113  0.1832  0.0331
 6388TIP3    H140655   6.203   4.034   5.956 -0.3573  0.0274  0.5024
 6388TIP3    H240656   6.191   4.049   6.107  0.5990  1.6366  0.4423
 6389TIP3   OH240657   5.366   0.345  16.499  0.5284  0.3216  0.0108
 6389TIP3    H140658   5.335   0.260  16.466  1.7923 -0.2708  0.2949
 6389TIP3    H240659   5.333   0.349  16.589 -0.6560  0.7473 -0.4205
 6390TIP3   OH240660   3.946   2.628   0.737 -0.1061  0.0861 -0.1783
 6390TIP3    H140661   3.876   2.609   0.799  0.1325  1.6299  0.6075
 6390TIP3    H240662   4.027   2.611   0.786  0.0875 -0.3558 -0.6388
 6391TIP3   OH240663   4.889   0.931  15.279 -0.1255  0.0172  0.4357
 6391TIP3    H140664   4.829   0.939  15.205  1.0816 -1.6690 -0.8249
 6391TIP3    H240665   4.952   1.002  15.268 -1.1114  0.9897  1.0109
 6392TIP3   OH240666   1.988   5.708   1.727 -0.2440  0.5525 -0.0027
 6392TIP3    H140667   2.015   5.653   1.801  0.4148 -1.8991 -1.9160
 6392TIP3    H240668   2.070   5.727   1.680 -0.8979 -0.2447 -1.5473
 6393TIP3   OH240669   0.772   4.609   1.629  0.2703  0.0818 -0.3160
 6393TIP3    H140670   0.752   4.516   1.640  0.1830  0.2174  0.8287
 6393TIP3    H240671   0.701   4.643   1.574  0.2731 -0.5157 -0.6911
 6394TIP3   OH240672   2.372   1.651   0.603 -0.6715 -0.8699  0.2291
 6394TIP3    H140673   2.347   1.603   0.524 -1.3508  1.9621 -1.3969
 6394TIP3    H240674   2.467   1.663   0.594 -0.9124  0.5314 -0.9028
 6395TIP3   OH240675   4.908   1.334  12.233  0.2886  0.3272  0.0598
 6395TIP3    H140676   4.954   1.323  12.316  0.8885 -1.6318 -0.4655
 6395TIP3    H240677   4.978   1.333  12.167 -0.0279  3.3464 -0.4517
 6396TIP3   OH240678   3.753   3.366  16.378  0.8575 -0.1342  0.3764
 6396TIP3    H140679   3.707   3.293  16.418  1.0096 -0.0900  0.6358
 6396TIP3    H240680   3.823   3.387  16.440  0.0246  1.0686  0.9467
 6397TIP3   OH240681   4.726   4.074  16.865 -0.0373  0.5121  0.1790
 6397TIP3    H140682   4.761   4.081  16.776  0.4313 -0.1368  0.3077
 6397TIP3    H240683   4.709   3.981  16.878 -4.7868  0.9624 -0.9780
 6398TIP3   OH240684   4.630   2.788  13.571 -0.8297  0.0902 -0.1620
 6398TIP3    H140685   4.599   2.746  13.651 -0.6403  0.7698  0.2659
 6398TIP3    H240686   4.717   2.752  13.557 -0.7347  0.2126  0.1131
 6399TIP3   OH240687   6.394   3.436  14.987  0.3421 -0.2050 -0.4605
 6399TIP3    H140688   6.468   3.478  14.943  0.6744 -1.0301 -0.7042
 6399TIP3    H240689   6.388   3.349  14.947 -0.4394 -0.3352 -0.0809
 6400TIP3   OH240690   3.979   3.262  11.715 -0.1103  0.1957 -0.1127
 6400TIP3    H140691   4.011   3.206  11.786  0.7060  0.6168 -0.1329
 6400TIP3    H240692   3.939   3.201  11.652  2.4122 -0.6328 -1.0395
 6401TIP3   OH240693   0.846   2.114   1.170 -0.2309 -0.0709  0.0866
 6401TIP3    H140694   0.911   2.182   1.152  0.1368 -0.5560 -0.4509
 6401TIP3    H240695   0.766   2.163   1.191 -0.9472  0.6609 -3.5659
 6402TIP3   OH240696   0.793   6.636   1.392  0.0951  0.1662  0.0894
 6402TIP3    H140697   0.773   6.577   1.465  0.8776 -0.2033  0.0161
 6402TIP3    H240698   0.796   6.579   1.316 -0.7736  0.5596 -0.2478
 6403TIP3   OH240699   4.714   5.584   5.086 -0.5950  0.1187 -0.1134
 6403TIP3    H140700   4.742   5.598   4.995  0.3354 -0.0563  0.1355
 6403TIP3    H240701   4.643   5.646   5.099 -0.8327  0.0432 -1.0115
 6404TIP3   OH240702   0.342   5.689  12.390  0.3572 -0.7322  0.2238
 6404TIP3    H140703   0.337   5.785  12.385  0.1871 -0.7979 -2.0281
 6404TIP3    H240704   0.410   5.672  12.455  1.7999  0.9854 -0.7460
 6405TIP3   OH240705   4.534   5.227  16.488  0.0276 -0.1525 -0.6201
 6405TIP3    H140706   4.557   5.320  16.490 -0.5076 -0.0286  0.1395
 6405TIP3    H240707   4.449   5.222  16.531 -0.9395 -0.7308 -2.4924
 6406TIP3   OH240708   5.073   1.994  15.899  0.1265  0.2076  0.0743
 6406TIP3    H140709   5.009   1.971  15.833 -0.0663 -2.7905  1.1671
 6406TIP3    H240710   5.155   2.005  15.851  0.3483 -3.4441 -0.6718
 6407TIP3   OH240711   3.661   2.374  10.941  0.7627  0.2844 -0.0524
 6407TIP3    H140712   3.641   2.360  10.849  1.5385 -0.1210 -0.1661
 6407TIP3    H240713   3.704   2.460  10.944  1.1425  0.1031 -0.1417
 6408TIP3   OH240714   5.869   5.259  13.485 -0.5953  0.3431 -0.6510
 6408TIP3    H140715   5.943   5.320  13.477 -1.2168  1.2567  0.2944
 6408TIP3    H240716   5.871   5.208  13.404 -0.3248  1.9365 -1.6924
 6409TIP3   OH240717   0.554   5.414   3.472 -0.4082  0.1006  0.7104
 6409TIP3    H140718   0.502   5.439   3.396 -0.3828 -0.2686  0.5691
 6409TIP3    H240719   0.637   5.382   3.437 -0.3020  0.1584  0.9048
 6410TIP3   OH240720   5.595   6.566   1.486 -0.2470  0.2790  0.2292
 6410TIP3    H140721   5.688   6.557   1.507 -0.7698 -0.5399  2.4227
 6410TIP3    H240722   5.582   6.507   1.412  0.6793 -0.8384  0.9167
 6411TIP3   OH240723   4.708   0.680  13.312 -0.0407  0.0921 -0.2128
 6411TIP3    H140724   4.726   0.669  13.405  0.1103 -1.2629 -0.3848
 6411TIP3    H240725   4.662   0.600  13.287 -1.0272  0.8961 -1.0777
 6412TIP3   OH240726   1.254   6.107  16.710  0.2433 -0.1433  0.3205
 6412TIP3    H140727   1.234   6.200  16.704  2.0117  0.2128 -0.9959
 6412TIP3    H240728   1.303   6.088  16.630  2.2627 -1.5683  1.7857
 6413TIP3   OH240729   2.959   6.083   5.214 -0.4381 -0.1625 -0.6588
 6413TIP3    H140730   3.017   6.149   5.175 -0.9122 -0.3032 -1.6149
 6413TIP3    H240731   3.016   6.007   5.227  0.1340  0.4364  0.5286
 6414TIP3   OH240732   3.952   5.901  16.798 -0.1252  0.0929 -0.0363
 6414TIP3    H140733   3.884   5.848  16.756  0.1506 -0.9226  0.7462
 6414TIP3    H240734   3.965   5.859  16.883  1.6715  0.1006 -0.2736
 6415TIP3   OH240735   0.172   5.904  11.971 -0.0835  0.5680 -0.0882
 6415TIP3    H140736   0.173   5.809  11.960 -0.3078  0.5280  0.2473
 6415TIP3    H240737   0.153   5.937  11.883  0.1496  0.3108 -0.2397
 6416TIP3   OH240738   1.139   6.363   0.988 -0.0652 -0.0462 -0.1602
 6416TIP3    H140739   1.152   6.420   1.064 -1.4912  1.2267 -0.8194
 6416TIP3    H240740   1.055   6.320   1.004  0.5676 -1.2984 -0.1075
 6417TIP3   OH240741   0.656   2.450  16.415 -0.1410  0.1885  0.9362
 6417TIP3    H140742   0.659   2.538  16.378  4.8167  0.9243  2.3621
 6417TIP3    H240743   0.672   2.392  16.340 -1.8697  0.5171  0.2515
 6418TIP3   OH240744   0.492   4.609   2.075 -0.0504 -0.6007 -0.3131
 6418TIP3    H140745   0.570   4.581   2.121 -0.0589 -1.6691 -0.9230
 6418TIP3    H240746   0.521   4.684   2.022  0.0030  0.4996  1.2125
 6419TIP3   OH240747   4.563   2.051  10.820  0.5434  0.0239 -0.3896
 6419TIP3    H140748   4.604   2.137  10.827  0.4147  0.2906 -2.4099
 6419TIP3    H240749   4.470   2.070  10.810  0.3751 -0.4108  0.3299
 6420TIP3   OH240750   4.483   3.927   5.401 -0.2636 -0.1513 -0.1213
 6420TIP3    H140751   4.498   3.844   5.356  3.7220  1.6921 -2.7851
 6420TIP3    H240752   4.421   3.974   5.344 -1.2930 -0.6311  0.5654
 6421TIP3   OH240753   4.745   5.249   0.868 -0.8759 -0.3204 -0.2463
 6421TIP3    H140754   4.728   5.157   0.847  1.6280 -0.8093 -0.4519
 6421TIP3    H240755   4.725   5.296   0.787 -1.2064 -0.8243 -0.4631
 6422TIP3   OH240756   0.537   5.061  12.320 -0.5325 -0.0375 -0.2509
 6422TIP3    H140757   0.576   4.992  12.374  2.1865  1.6118  0.0949
 6422TIP3    H240758   0.535   5.025  12.232  0.5793 -0.7062 -0.0267
 6423TIP3   OH240759   5.777   1.502  12.580 -0.1546 -0.3221  0.1261
 6423TIP3    H140760   5.838   1.521  12.508  0.5357  0.0013  0.7818
 6423TIP3    H240761   5.775   1.583  12.631 -0.4471 -0.6288  0.6059
 6424TIP3   OH240762   2.827   1.114  11.128  0.1599  0.5065 -0.5986
 6424TIP3    H140763   2.733   1.129  11.118  0.1087  0.0613 -0.8063
 6424TIP3    H240764   2.836   1.077  11.215  0.0354 -0.2969 -0.9200
 6425TIP3   OH240765   5.775   4.845   2.604  0.0618  0.1975  0.2594
 6425TIP3    H140766   5.686   4.863   2.635  0.5765  2.1302  0.7634
 6425TIP3    H240767   5.771   4.757   2.567 -2.3012  0.6255 -0.6440
 6426TIP3   OH240768   0.801   2.536   4.331  0.0796  0.4996 -0.5534
 6426TIP3    H140769   0.815   2.581   4.248 -1.2947  0.6798 -0.7060
 6426TIP3    H240770   0.811   2.443   4.310  4.0078  0.6286 -0.0292
 6427TIP3   OH240771   6.383   5.110   2.869  0.1643 -0.3604 -0.4847
 6427TIP3    H140772   6.308   5.058   2.839 -1.2650  0.1610  1.8855
 6427TIP3    H240773   6.424   5.056   2.937  2.8386 -1.2001 -2.6213
 6428TIP3   OH240774   2.858   1.691   4.385 -0.3064  0.7574 -0.4468
 6428TIP3    H140775   2.949   1.722   4.380 -0.0147  0.4193  1.7772
 6428TIP3    H240776   2.867   1.595   4.388 -0.6188  0.7549  1.0262
 6429TIP3   OH240777   6.776   5.288  12.253  0.0769 -0.0757  0.5744
 6429TIP3    H140778   6.866   5.308  12.230  0.8285 -0.4189  2.9220
 6429TIP3    H240779   6.753   5.354  12.318 -1.4072  0.0523 -0.0474
 6430TIP3   OH240780   5.824   1.244   5.639 -0.5206  0.1880  0.2628
 6430TIP3    H140781   5.790   1.155   5.629 -1.0588  0.5117 -0.8818
 6430TIP3    H240782   5.884   1.238   5.714  0.9367 -1.5822 -0.9567
 6431TIP3   OH240783   2.552   0.009   3.287  0.3334  0.1164  0.2840
 6431TIP3    H140784   2.626  -0.052   3.292 -0.3062 -0.6632  0.5150
 6431TIP3    H240785   2.522   0.004   3.197  1.4580  1.5451 -0.1998
 6432TIP3   OH240786   2.954   4.905  10.746 -0.0245  0.0894  0.0763
 6432TIP3    H140787   2.953   4.919  10.651 -1.4074 -0.6222 -0.0424
 6432TIP3    H240788   3.031   4.954  10.776  0.7988 -0.1458 -1.4742
 6433TIP3   OH240789   4.842   1.291  14.648 -0.3414  1.0052  0.5272
 6433TIP3    H140790   4.893   1.372  14.656 -0.1696  1.0788 -1.0665
 6433TIP3    H240791   4.753   1.317  14.671 -0.2268  1.5811  0.3486
 6434TIP3   OH240792   0.775   5.162  11.088 -0.2968  0.0174 -0.1613
 6434TIP3    H140793   0.743   5.101  11.155 -1.3017 -0.1090 -0.7404
 6434TIP3    H240794   0.791   5.107  11.012  1.0718  0.1253  0.0295
 6435TIP3   OH240795   2.730   3.032  12.151  0.0422 -0.1980 -0.4116
 6435TIP3    H140796   2.795   3.089  12.109 -0.7498  0.1926 -1.1445
 6435TIP3    H240797   2.725   2.956  12.094 -1.0321  0.3301 -1.0494
 6436TIP3   OH240798   2.302   1.209   3.775  0.3284  0.2316 -0.8026
 6436TIP3    H140799   2.226   1.202   3.833  0.5547  0.1063 -0.5176
 6436TIP3    H240800   2.296   1.298   3.738  1.4240  1.2134  1.1812
 6437TIP3   OH240801   5.145   6.091  14.328 -0.1357  0.3484 -0.7341
 6437TIP3    H140802   5.232   6.115  14.359  0.2503 -0.7104 -0.9698
 6437TIP3    H240803   5.098   6.064  14.408 -0.1854  0.7029 -0.6398
 6438TIP3   OH240804   3.105   5.988  12.795  0.0520  0.2811  0.2549
 6438TIP3    H140805   3.032   6.046  12.774 -2.3212 -2.3626  0.6895
 6438TIP3    H240806   3.161   5.991  12.717 -1.4710  0.9771 -0.8674
 6439TIP3   OH240807   4.390   6.092  12.082 -0.6284  0.3480 -0.1524
 6439TIP3    H140808   4.311   6.144  12.067 -0.5581  0.3766 -0.4307
 6439TIP3    H240809   4.396   6.085  12.177 -1.4004 -0.3015 -0.1342
 6440TIP3   OH240810   0.938   1.123  14.772 -0.1528 -0.1751  0.3031
 6440TIP3    H140811   1.025   1.164  14.769  0.1367 -0.7392  0.7865
 6440TIP3    H240812   0.921   1.110  14.866 -0.8870  0.1837  0.2321
 6441TIP3   OH240813   3.294   6.781  12.062  0.0446 -0.0995  0.2494
 6441TIP3    H140814   3.347   6.702  12.047 -0.0749 -0.2309  0.5038
 6441TIP3    H240815   3.291   6.825  11.977  0.2039 -0.3139  0.1327
 6442TIP3   OH240816   4.212   2.336  12.286  0.6119 -0.0986  0.8292
 6442TIP3    H140817   4.245   2.296  12.366  1.8486  1.7505  1.3242
 6442TIP3    H240818   4.251   2.285  12.215 -0.6086 -1.8433  1.3646
 6443TIP3   OH240819   4.593   2.614  12.458  0.1921 -0.9974 -0.0792
 6443TIP3    H140820   4.653   2.556  12.505  1.7254 -0.4668 -1.2832
 6443TIP3    H240821   4.587   2.576  12.370 -0.1084 -0.2640 -0.3845
 6444TIP3   OH240822   6.729   1.810   3.391 -0.7341 -0.0246  0.2442
 6444TIP3    H140823   6.682   1.729   3.369  0.5487 -0.6048 -0.5102
 6444TIP3    H240824   6.820   1.792   3.364 -0.3680  1.5531  0.3711
 6445TIP3   OH240825   1.556   4.432  12.082 -0.4643  0.5688  0.4476
 6445TIP3    H140826   1.616   4.366  12.116 -1.5582 -1.9288 -2.0955
 6445TIP3    H240827   1.592   4.456  11.996 -2.3417 -0.0789 -0.5926
 6446TIP3   OH240828   1.668   6.818   4.473 -0.7365  0.1301 -0.0589
 6446TIP3    H140829   1.586   6.848   4.435  0.4192  1.9440 -1.2819
 6446TIP3    H240830   1.696   6.746   4.417 -0.8947  0.3351 -0.4075
 6447TIP3   OH240831   3.555   6.045  15.573 -0.2839  0.3773 -0.2742
 6447TIP3    H140832   3.527   6.072  15.486  2.1297 -0.7236 -1.4747
 6447TIP3    H240833   3.501   5.968  15.593  1.6752 -1.7353 -2.5369
 6448TIP3   OH240834   5.820   3.757   1.268 -0.3134 -0.4378 -0.2251
 6448TIP3    H140835   5.853   3.777   1.181  0.4886 -1.3879 -0.1503
 6448TIP3    H240836   5.751   3.692   1.253 -0.0455 -0.7426 -0.1364
 6449TIP3   OH240837   2.673   0.296   3.207  0.1223  0.0509  0.5543
 6449TIP3    H140838   2.757   0.341   3.194 -0.0448  1.0945  2.6421
 6449TIP3    H240839   2.642   0.276   3.119  2.6641 -0.5743 -0.2770
 6450TIP3   OH240840   4.910   0.462   0.378  0.2152  0.0269 -0.8119
 6450TIP3    H140841   4.853   0.455   0.302 -1.1877  1.5076  0.0398
 6450TIP3    H240842   4.881   0.542   0.422 -0.1078 -1.5852  2.1451
 6451TIP3   OH240843   0.733   2.395   3.335  0.4352  0.4655 -0.0253
 6451TIP3    H140844   0.691   2.323   3.289 -0.4300  0.2977  0.9893
 6451TIP3    H240845   0.774   2.354   3.412 -0.6855  1.1350  0.9554
 6452TIP3   OH240846   2.096   2.912  17.101 -0.0884  0.0557  0.0749
 6452TIP3    H140847   2.008   2.936  17.131 -0.3010 -0.0196 -0.4727
 6452TIP3    H240848   2.132   2.860  17.172 -0.1343  0.8644  0.7040
 6453TIP3   OH240849   1.042   3.768  12.294 -0.2158  0.1552  0.2328
 6453TIP3    H140850   1.038   3.864  12.291 -0.7754  0.1452  0.5868
 6453TIP3    H240851   1.104   3.749  12.365 -0.2884  0.2570  0.3248
 6454TIP3   OH240852   0.720   5.243   5.320  1.1590 -0.0789  0.2301
 6454TIP3    H140853   0.723   5.239   5.224 -1.3216  0.0302  0.0881
 6454TIP3    H240854   0.789   5.305   5.343  1.0251  0.8320 -1.5883
 6455TIP3   OH240855   5.631   3.307  11.797 -0.3065  0.2428 -0.0781
 6455TIP3    H140856   5.656   3.215  11.794 -0.4990  0.2125 -0.9199
 6455TIP3    H240857   5.695   3.352  11.742 -1.9211  0.1876 -2.1185
 6456TIP3   OH240858   0.288   0.716   5.677 -0.5337  0.1525 -0.1551
 6456TIP3    H140859   0.250   0.632   5.652 -1.8885  0.9244 -0.8223
 6456TIP3    H240860   0.382   0.705   5.663 -0.7564 -1.0534 -0.8369
 6457TIP3   OH240861   6.207   2.120   4.816 -0.2227 -0.0345  0.2126
 6457TIP3    H140862   6.216   2.026   4.799  0.8244 -0.2708  1.8458
 6457TIP3    H240863   6.255   2.134   4.898  1.5771  2.3405 -1.1323
 6458TIP3   OH240864   2.050   4.004  16.630  0.6786 -0.0479  0.5446
 6458TIP3    H140865   1.989   4.075  16.649  1.9157  1.0592  0.5128
 6458TIP3    H240866   2.064   3.961  16.715  0.4112  0.1449  0.6877
 6459TIP3   OH240867   3.573   3.446   5.629  0.8192  0.4610 -0.5126
 6459TIP3    H140868   3.562   3.522   5.686 -0.9116  0.5710 -0.9524
 6459TIP3    H240869   3.495   3.393   5.643  1.3529 -0.5683 -1.2322
 6460TIP3   OH240870   2.323   5.638  11.400 -0.3146 -0.0725  0.2021
 6460TIP3    H140871   2.294   5.686  11.322 -1.0402 -0.8494 -0.0197
 6460TIP3    H240872   2.399   5.686  11.430 -0.6807  0.8897 -0.3502
 6461TIP3   OH240873   1.672   1.406   2.936 -0.1083 -0.0218  0.0566
 6461TIP3    H140874   1.747   1.430   2.990 -0.5388 -1.3951  1.3385
 6461TIP3    H240875   1.688   1.448   2.851  2.7080 -1.2392 -0.1229
 6462TIP3   OH240876   0.461   1.612   3.313  0.2655 -0.5294  0.3402
 6462TIP3    H140877   0.532   1.557   3.281  0.7553  0.4525 -0.3338
 6462TIP3    H240878   0.482   1.626   3.405  0.9784 -0.2312  0.1457
 6463TIP3   OH240879   6.529   6.339   2.264  0.3496 -0.2088  0.5240
 6463TIP3    H140880   6.505   6.264   2.319  0.7921  0.5474  1.7979
 6463TIP3    H240881   6.625   6.340   2.266  0.4464 -1.0219 -1.4870
 6464TIP3   OH240882   5.360   4.403   1.049  0.2831  0.6697 -0.0062
 6464TIP3    H140883   5.346   4.310   1.069 -0.2202  1.5089  4.8698
 6464TIP3    H240884   5.451   4.419   1.072 -0.3563  1.7941  2.0337
 6465TIP3   OH240885   0.289   0.269   4.931  0.0386  0.1218  0.2343
 6465TIP3    H140886   0.350   0.291   5.002  1.3617 -2.6420  0.0674
 6465TIP3    H240887   0.229   0.205   4.969 -0.1045 -0.3451 -0.7431
 6466TIP3   OH240888   6.084   0.596   0.272  0.1921  0.0442  0.2863
 6466TIP3    H140889   6.089   0.679   0.224  1.5607 -0.2303 -0.0959
 6466TIP3    H240890   6.171   0.587   0.312 -0.1597 -0.8918  0.8489
 6467TIP3   OH240891   0.685   5.591  12.089 -0.1848  0.0482 -0.6140
 6467TIP3    H140892   0.597   5.578  12.122  0.4498  1.6137  1.9937
 6467TIP3    H240893   0.715   5.503  12.064 -1.5746 -0.9212  0.9219
 6468TIP3   OH240894   0.416   3.214   6.408 -0.3569  0.3862  0.3281
 6468TIP3    H140895   0.494   3.170   6.442  0.3381  0.7536 -0.7344
 6468TIP3    H240896   0.444   3.305   6.394  0.1567 -0.1447 -3.2486
 6469TIP3   OH240897   2.416   0.588  11.600 -0.1821 -0.0472  0.3919
 6469TIP3    H140898   2.370   0.668  11.628 -1.7717 -1.0687  0.8039
 6469TIP3    H240899   2.385   0.573  11.511 -0.3720 -0.5450  0.5421
 6470TIP3   OH240900   2.354   5.725  13.405 -0.4653 -0.0704  0.1444
 6470TIP3    H140901   2.337   5.645  13.355  0.8306  0.2981 -0.9520
 6470TIP3    H240902   2.397   5.695  13.484  0.2306 -0.4679 -0.3727
 6471TIP3   OH240903   3.498   0.307   4.615 -0.3459  0.1106 -0.5148
 6471TIP3    H140904   3.592   0.300   4.630 -0.7811 -1.7635  2.0918
 6471TIP3    H240905   3.481   0.401   4.612  1.4300  0.5138  0.5418
 6472TIP3   OH240906   4.910   2.408  12.307 -0.0933 -0.3214  0.1906
 6472TIP3    H140907   4.850   2.376  12.375 -0.1083 -1.6567 -0.4110
 6472TIP3    H240908   4.994   2.415  12.351 -0.5958  1.3075  0.9750
 6473TIP3   OH240909   4.300   5.729  14.423  0.3499 -0.1913 -0.2299
 6473TIP3    H140910   4.374   5.716  14.483 -0.6632  2.4901  1.8509
 6473TIP3    H240911   4.233   5.668  14.455  0.3110  0.2224  0.5180
 6474TIP3   OH240912   2.209   2.298   4.460  0.0699 -0.0065 -0.2147
 6474TIP3    H140913   2.242   2.388   4.458  0.3470 -0.0930  0.3042
 6474TIP3    H240914   2.252   2.256   4.385  0.3059  0.1664 -0.1779
 6475TIP3   OH240915   5.660   1.727  12.122  0.0182 -0.1318  0.2273
 6475TIP3    H140916   5.695   1.722  12.033 -1.7164  0.0547 -0.4992
 6475TIP3    H240917   5.596   1.799  12.119 -0.9924 -0.9552  1.2809
 6476TIP3   OH240918   5.297   1.715  16.765 -0.1786 -0.3663 -0.5721
 6476TIP3    H140919   5.241   1.714  16.688 -0.1599  0.0045 -0.5906
 6476TIP3    H240920   5.289   1.627  16.802 -0.9440 -0.2516 -0.4564
 6477TIP3   OH240921   3.337   1.201   1.784  0.2335  0.2083 -0.4083
 6477TIP3    H140922   3.394   1.255   1.839  1.5652  0.1895 -1.7303
 6477TIP3    H240923   3.298   1.138   1.845  0.8057  0.8894  0.6876
 6478TIP3   OH240924   4.111   4.062  13.372 -0.7463  0.3953  0.0947
 6478TIP3    H140925   4.132   4.155  13.375  1.2767  0.0181 -0.7967
 6478TIP3    H240926   4.051   4.054  13.298 -2.0613  1.1567  1.0440
 6479TIP3   OH240927   2.525   6.221   5.726 -0.1912 -0.1718 -0.3071
 6479TIP3    H140928   2.577   6.293   5.691 -0.3747  0.5071  0.7660
 6479TIP3    H240929   2.582   6.179   5.792 -0.4428 -0.3816 -0.2182
 6480TIP3   OH240930   5.015   0.659  11.060  0.3838 -0.0130  0.0865
 6480TIP3    H140931   5.025   0.573  11.101  1.0669 -0.1372 -0.3144
 6480TIP3    H240932   4.922   0.665  11.040 -0.1531  0.4414  2.4365
 6481TIP3   OH240933   1.616   3.143   6.783  0.3419  0.1058  0.0738
 6481TIP3    H140934   1.624   3.059   6.828  0.3043  0.8682  1.5574
 6481TIP3    H240935   1.523   3.162   6.784  0.3747  0.2731 -0.0586
 6482TIP3   OH240936   4.777   4.978   1.090  0.3615 -0.4334  0.5289
 6482TIP3    H140937   4.699   4.957   1.141 -1.9467  1.8183 -1.7927
 6482TIP3    H240938   4.813   5.056   1.132 -1.6958  1.5851 -1.1839
 6483TIP3   OH240939   0.994   0.412   5.488  0.1940 -0.7925 -0.1985
 6483TIP3    H140940   0.908   0.388   5.453 -0.5544 -2.8529  2.6970
 6483TIP3    H240941   0.975   0.458   5.570  1.8752 -0.2040 -0.0909
 6484TIP3   OH240942   0.053   5.328  13.870 -0.3396 -0.6330 -0.1431
 6484TIP3    H140943   0.076   5.319  13.963  2.1345 -0.6443 -0.6849
 6484TIP3    H240944   0.106   5.261  13.827 -0.2683  0.4021 -1.7238
 6485TIP3   OH240945   5.783   0.444  14.191 -0.3507  0.4517  0.2700
 6485TIP3    H140946   5.864   0.405  14.159 -1.0306 -0.6518 -0.1535
 6485TIP3    H240947   5.782   0.424  14.285 -0.3331  0.0843  0.1935
 6486TIP3   OH240948   5.494   5.184  14.782 -0.7310 -0.2388 -0.0263
 6486TIP3    H140949   5.445   5.221  14.855 -3.3612 -0.3721 -1.5739
 6486TIP3    H240950   5.509   5.093  14.807  0.1532  0.1938  1.1184
 6487TIP3   OH240951   3.750   1.737  13.599 -0.2792 -0.3884  0.4376
 6487TIP3    H140952   3.744   1.820  13.646 -0.4508 -0.8480  1.2507
 6487TIP3    H240953   3.778   1.674  13.665  1.3819 -0.7001 -0.4910
 6488TIP3   OH240954   0.029   2.242  10.526 -0.3144 -1.0194  0.7581
 6488TIP3    H140955  -0.015   2.192  10.457 -1.2668 -3.2943  2.8509
 6488TIP3    H240956   0.119   2.209  10.526  0.1016  0.0612 -0.3124
 6489TIP3   OH240957   6.257   0.345   4.898  0.6215  0.1795 -0.0379
 6489TIP3    H140958   6.167   0.358   4.868  1.3344  3.6762 -1.1642
 6489TIP3    H240959   6.267   0.406   4.971  1.5477 -1.6675  1.4676
 6490TIP3   OH240960   4.161   6.268  12.751  0.3195  0.2301  0.2673
 6490TIP3    H140961   4.147   6.175  12.768 -1.0433  0.9520  3.8440
 6490TIP3    H240962   4.252   6.284  12.777  0.3855  0.0139  0.1745
 6491TIP3   OH240963   0.513   4.356  15.906  0.3121 -0.2570 -0.0521
 6491TIP3    H140964   0.425   4.327  15.930  0.2769 -0.5381 -0.5106
 6491TIP3    H240965   0.526   4.437  15.956  0.2116 -0.7827  0.8376
 6492TIP3   OH240966   3.616   5.764   4.285  0.1344  0.8576 -0.4158
 6492TIP3    H140967   3.574   5.842   4.322 -0.5041  1.6765 -2.7147
 6492TIP3    H240968   3.689   5.797   4.234  1.4071 -0.2910  0.5889
 6493TIP3   OH240969   1.564   4.535  11.554  0.0374 -0.5316  0.4299
 6493TIP3    H140970   1.513   4.614  11.540 -2.0635 -1.8900  0.0951
 6493TIP3    H240971   1.567   4.492  11.468  0.1381 -1.3823  0.8434
 6494TIP3   OH240972   6.421   2.683   3.641  0.0247 -0.2608  0.0215
 6494TIP3    H140973   6.350   2.745   3.657 -0.3614 -0.9098  0.8558
 6494TIP3    H240974   6.403   2.648   3.554  0.5012  1.1213 -0.6611
 6495TIP3   OH240975   3.675   2.650  10.829 -0.5524 -0.0650 -0.5277
 6495TIP3    H140976   3.767   2.636  10.850 -0.1771  3.0992  0.4486
 6495TIP3    H240977   3.644   2.711  10.897 -3.2771 -0.7421 -1.0471
 6496TIP3   OH240978   3.191   3.179  12.909  0.1638  0.1017  0.1790
 6496TIP3    H140979   3.166   3.257  12.859 -1.0497 -0.9657 -0.9326
 6496TIP3    H240980   3.281   3.198  12.938  0.0691  1.7057 -0.4526
 6497TIP3   OH240981   4.271   1.848   5.174  0.6027  0.1796  0.0706
 6497TIP3    H140982   4.339   1.798   5.128  0.7616 -1.1028  1.5928
 6497TIP3    H240983   4.193   1.793   5.169  0.5219  0.1908  0.9525
 6498TIP3   OH240984   0.414   1.172  15.382  0.2334 -0.1619 -0.4470
 6498TIP3    H140985   0.498   1.134  15.406  0.0583 -0.4101 -0.2132
 6498TIP3    H240986   0.428   1.266  15.388  0.3234 -0.2097  0.2022
 6499TIP3   OH240987   3.718   0.432   5.900  0.3968 -0.5265  0.5798
 6499TIP3    H140988   3.769   0.416   5.821  0.5262 -1.1682  0.7898
 6499TIP3    H240989   3.728   0.352   5.952  0.3324 -0.1046  1.2543
 6500TIP3   OH240990   0.186   0.075   0.566 -0.2790  0.9939 -0.0615
 6500TIP3    H140991   0.149  -0.004   0.526  1.1621  0.7974 -1.0782
 6500TIP3    H240992   0.200   0.051   0.657 -1.4255  0.6548  0.0437
 6501TIP3   OH240993   0.211   2.668   1.497  0.5355 -0.2589  0.7148
 6501TIP3    H140994   0.128   2.713   1.484  0.1278 -0.3634  2.6090
 6501TIP3    H240995   0.262   2.688   1.419 -0.5347  1.4275  0.3984
 6502TIP3   OH240996   1.569   3.009  11.362  0.1482  0.1957 -0.5820
 6502TIP3    H140997   1.609   2.922  11.362 -1.0532 -0.4183  1.4053
 6502TIP3    H240998   1.491   3.000  11.307 -0.2660 -0.1624  0.0465
 6503TIP3   OH240999   0.098   3.135   4.498  0.2402 -0.5649 -0.6558
 6503TIP3    H141000   0.082   3.041   4.494 -0.7944 -0.4216 -0.2302
 6503TIP3    H241001   0.154   3.153   4.423  0.6079 -1.5412 -0.6358
 6504TIP3   OH241002   1.212   5.841   1.684 -0.1652  0.1085  0.0236
 6504TIP3    H141003   1.259   5.803   1.757  1.1090  0.6600 -0.4782
 6504TIP3    H241004   1.222   5.936   1.696 -0.2116  0.2102 -0.6945
 6505TIP3   OH241005   6.619   5.120   3.485 -0.4520  0.7433 -0.9094
 6505TIP3    H141006   6.674   5.183   3.438 -2.3663  2.4711 -0.9992
 6505TIP3    H241007   6.571   5.174   3.549 -4.3456  0.0036 -2.9025
 6506TIP3   OH241008   4.088   2.105   2.541 -0.3924 -0.3348 -0.4507
 6506TIP3    H141009   4.160   2.055   2.502  0.0825  1.2010 -1.6689
 6506TIP3    H241010   4.035   2.040   2.586  1.0420 -1.6939 -0.6466
 6507TIP3   OH241011   2.536   2.174   1.562 -0.1435 -0.2295 -0.9574
 6507TIP3    H141012   2.526   2.129   1.478 -3.3016  0.1305 -0.8968
 6507TIP3    H241013   2.453   2.159   1.607 -0.3305  3.3569  0.1952
 6508TIP3   OH241014   4.332   4.091   5.235 -0.2436 -0.0753 -0.0076
 6508TIP3    H141015   4.357   4.177   5.201  1.4057 -0.3690  0.3742
 6508TIP3    H241016   4.237   4.095   5.243 -0.3954  1.0405 -1.8157
 6509TIP3   OH241017   5.181   1.791  14.232  0.2295 -0.5213  0.5107
 6509TIP3    H141018   5.101   1.771  14.183  0.6083  0.3214 -0.4946
 6509TIP3    H241019   5.251   1.785  14.167  0.4427  3.5705  0.0465
 6510TIP3   OH241020   1.633   1.142   6.149  0.3077 -0.6983  0.1337
 6510TIP3    H141021   1.702   1.082   6.122  0.5532 -1.6654  2.6763
 6510TIP3    H241022   1.603   1.109   6.233 -2.3872  0.4414 -0.2543
 6511TIP3   OH241023   4.115   2.234  15.643  0.3866  0.2629 -0.4871
 6511TIP3    H141024   4.041   2.172  15.642  0.2049  0.4658 -0.0705
 6511TIP3    H241025   4.192   2.178  15.656  0.1528  0.1702  0.6620
 6512TIP3   OH241026   0.007   5.123   6.615  0.3319  0.0074 -0.1725
 6512TIP3    H141027  -0.080   5.133   6.654  1.3579 -0.6892  2.5274
 6512TIP3    H241028   0.019   5.202   6.563 -1.4190  0.7193  0.4108
 6513TIP3   OH241029   1.982   4.973  16.326  0.2548 -0.2528  0.3837
 6513TIP3    H141030   2.060   4.987  16.273  0.8190 -1.8189  0.7315
 6513TIP3    H241031   1.964   5.058  16.366  1.0839  0.4167 -0.6186
 6514TIP3   OH241032   3.311   5.479   6.168 -0.4386 -0.0365 -0.1926
 6514TIP3    H141033   3.258   5.546   6.210  1.1375 -0.7072  3.1556
 6514TIP3    H241034   3.274   5.396   6.197  1.2718 -0.5142  0.7646
 6515TIP3   OH241035   6.576   2.205  12.484  0.1664  0.2637 -0.1421
 6515TIP3    H141036   6.559   2.134  12.422 -1.0169 -0.8408  1.3628
 6515TIP3    H241037   6.583   2.283  12.429 -3.5239 -0.1877 -1.5989
 6516TIP3   OH241038   1.125   0.272   5.784 -0.1957 -0.2444  0.2535
 6516TIP3    H141039   1.177   0.213   5.731  1.7590 -0.2304  2.0274
 6516TIP3    H241040   1.089   0.217   5.853  0.5657  0.3653  1.1684
 6517TIP3   OH241041   2.463   1.468   5.100  0.2154  0.3498  0.2529
 6517TIP3    H141042   2.527   1.399   5.119 -1.3958 -1.2015  0.3367
 6517TIP3    H241043   2.450   1.512   5.184  1.5743  1.0904  0.1064
 6518TIP3   OH241044   3.104   4.396  13.535 -0.0767  0.1277  0.1992
 6518TIP3    H141045   3.131   4.324  13.477 -1.1954 -0.5567  0.4948
 6518TIP3    H241046   3.065   4.351  13.610  2.5817  0.9068  2.2132
 6519TIP3   OH241047   3.981   2.748   2.475 -0.0254 -0.0437 -0.5350
 6519TIP3    H141048   3.931   2.766   2.396 -0.6630 -1.8248 -0.5858
 6519TIP3    H241049   4.051   2.689   2.447 -1.3266 -2.1940  0.4481
 6520TIP3   OH241050   6.000   0.226   3.036 -0.1878 -0.4729 -0.4073
 6520TIP3    H141051   6.063   0.250   3.104 -0.5868  0.9119 -0.5067
 6520TIP3    H241052   5.915   0.230   3.080 -0.7004  2.5803 -1.4188
 6521TIP3   OH241053   5.647   0.935   3.563  0.3540  0.1385  0.3605
 6521TIP3    H141054   5.715   0.905   3.502  2.8895  2.6331  1.7540
 6521TIP3    H241055   5.689   0.935   3.648 -1.3060  2.0862  1.2570
 6522TIP3   OH241056   0.267   1.071  16.777  0.1145 -0.5079  0.1173
 6522TIP3    H141057   0.283   0.979  16.795 -0.7537 -0.2841  2.4743
 6522TIP3    H241058   0.184   1.090  16.822  0.3146  1.4306 -0.2436
 6523TIP3   OH241059   2.255   4.334   0.869 -1.0073  0.1725  0.1522
 6523TIP3    H141060   2.300   4.390   0.805  0.8196 -0.5350  0.7578
 6523TIP3    H241061   2.273   4.374   0.954 -0.7780 -0.5897  0.4758
 6524TIP3   OH241062   4.172   0.637  16.066 -0.3988 -0.6123  0.5979
 6524TIP3    H141063   4.204   0.686  16.142  0.3060 -0.4123  0.1759
 6524TIP3    H241064   4.187   0.545  16.090 -0.3354 -0.5568  0.7732
 6525TIP3   OH241065   0.039   6.677  15.207 -0.0580 -0.5373 -0.4224
 6525TIP3    H141066   0.121   6.726  15.216 -1.2473  1.4722  0.2628
 6525TIP3    H241067  -0.024   6.727  15.260 -1.0444 -3.7552  1.7189
 6526TIP3   OH241068   2.965   3.219  10.701 -0.2804  0.8449 -0.3493
 6526TIP3    H141069   2.884   3.167  10.697 -0.8515  1.2880  2.7997
 6526TIP3    H241070   3.034   3.158  10.675 -1.2382 -0.7034  0.5773
 6527TIP3   OH241071   2.285   0.020  12.901 -0.0925 -0.6354  0.2866
 6527TIP3    H141072   2.331   0.099  12.928  0.1409 -0.7177  0.1305
 6527TIP3    H241073   2.198   0.051  12.874 -0.2851 -0.5384  1.0055
 6528TIP3   OH241074   0.411   6.096  12.707  0.2816  0.0841  0.1231
 6528TIP3    H141075   0.320   6.124  12.711 -0.1473 -1.3217  0.8784
 6528TIP3    H241076   0.461   6.177  12.710 -0.9326  0.8594  0.0859
 6529TIP3   OH241077   6.588   6.502   3.822 -0.3404 -0.1922 -0.2110
 6529TIP3    H141078   6.523   6.561   3.784  0.5394  0.8247 -0.1883
 6529TIP3    H241079   6.640   6.471   3.748 -0.4670 -0.5158 -0.1641
 6530TIP3   OH241080   1.166   3.464  12.936 -0.0432  0.0660 -0.1266
 6530TIP3    H141081   1.143   3.378  12.902  1.0031 -0.9740  1.6651
 6530TIP3    H241082   1.251   3.452  12.978 -0.4052  1.6809  1.1946
 6531TIP3   OH241083   2.073   2.276   1.148  0.1178  0.3250 -0.0173
 6531TIP3    H141084   2.161   2.303   1.175  0.2796 -0.0834 -0.1287
 6531TIP3    H241085   2.015   2.343   1.184  0.3095 -0.2758  1.4789
 6532TIP3   OH241086   4.624   6.666  13.716 -0.3881 -0.7741 -0.0110
 6532TIP3    H141087   4.694   6.603  13.729 -0.2872 -0.9443 -1.2722
 6532TIP3    H241088   4.634   6.696  13.626 -1.4215 -0.1744  0.0500
 6533TIP3   OH241089   1.138   6.562   0.770  0.0609  0.4168  0.7072
 6533TIP3    H141090   1.068   6.519   0.720  0.5361 -0.6250  0.9220
 6533TIP3    H241091   1.125   6.533   0.860  1.5194 -0.8393  0.5498
 6534TIP3   OH241092   3.017   3.622  14.889 -0.2655 -0.1105 -0.1575
 6534TIP3    H141093   2.997   3.608  14.796 -0.3055 -0.5542 -0.0863
 6534TIP3    H241094   2.938   3.662  14.925 -0.2130  0.1543 -0.3360
 6535TIP3   OH241095   1.384   2.474  15.502  0.2216 -0.9210 -0.4896
 6535TIP3    H141096   1.313   2.538  15.493 -0.0728 -1.0280  0.8124
 6535TIP3    H241097   1.443   2.494  15.430 -1.7729 -1.7148 -2.4943
 6536TIP3   OH241098   2.544   2.139  15.829  0.2874 -0.9717 -0.0009
 6536TIP3    H141099   2.504   2.072  15.773  0.9511 -1.2784 -0.1156
 6536TIP3    H241100   2.500   2.129  15.913  0.2473 -1.4254 -0.0716
 6537TIP3   OH241101   6.467   0.534  15.308 -0.0864 -0.1878  0.0220
 6537TIP3    H141102   6.446   0.462  15.367 -1.4588 -1.3592 -1.7841
 6537TIP3    H241103   6.531   0.497  15.247 -0.5247  0.2257 -0.6992
 6538TIP3   OH241104   1.742   1.306   1.184  0.3345  0.0343  0.1583
 6538TIP3    H141105   1.822   1.351   1.155 -0.2761  0.7029 -0.5020
 6538TIP3    H241106   1.714   1.354   1.262  0.5370 -0.1623  0.3541
 6539TIP3   OH241107   5.951   1.134   4.699  0.2121  0.2017 -0.2131
 6539TIP3    H141108   5.927   1.120   4.608 -0.1038 -1.4246  0.0917
 6539TIP3    H241109   5.883   1.192   4.734 -0.8241 -0.8128 -0.5001
 6540TIP3   OH241110   4.130   2.557   5.846  0.0648 -0.0058 -0.1922
 6540TIP3    H141111   4.098   2.535   5.933  0.5780 -1.8886 -0.4341
 6540TIP3    H241112   4.225   2.560   5.855  0.1038  0.2305 -0.6094
 6541TIP3   OH241113   5.163   5.984   3.278  0.4336  0.0109 -0.2072
 6541TIP3    H141114   5.121   5.953   3.358  0.8305 -0.5339 -0.2014
 6541TIP3    H241115   5.256   5.985   3.299  0.6743 -1.4462 -1.0782
 6542TIP3   OH241116   2.422   3.742  15.072  0.3115 -0.0811  0.5107
 6542TIP3    H141117   2.502   3.756  15.123  0.7312 -1.0439  0.1433
 6542TIP3    H241118   2.452   3.741  14.981 -0.0353 -1.0023  0.4029
 6543TIP3   OH241119   4.450   3.842  15.452  0.1053  0.7145  0.2209
 6543TIP3    H141120   4.409   3.852  15.366 -0.5297 -0.2070  0.4068
 6543TIP3    H241121   4.507   3.766  15.443  1.9397  2.0205 -0.0650
 6544TIP3   OH241122   6.443   1.931  14.305  0.0980 -0.2472 -0.7981
 6544TIP3    H141123   6.473   1.904  14.392 -0.9283 -1.9048 -0.9201
 6544TIP3    H241124   6.499   2.005  14.283  2.8152 -1.9807 -0.2099
 6545TIP3   OH241125   0.609   1.694  12.309 -0.1121 -0.7324  0.1729
 6545TIP3    H141126   0.693   1.722  12.272 -1.3273  0.9552 -1.5376
 6545TIP3    H241127   0.599   1.604  12.279  0.6956 -0.6533 -0.3706
 6546TIP3   OH241128   3.702   6.323   2.032  0.3942  0.3810  0.1386
 6546TIP3    H141129   3.663   6.248   2.078 -2.4575  0.6337 -1.6521
 6546TIP3    H241130   3.676   6.399   2.084 -0.0482  0.4257 -0.1497
 6547TIP3   OH241131   2.513   5.679   3.614 -0.1235 -0.1020  0.0846
 6547TIP3    H141132   2.569   5.714   3.683  0.3283 -0.8206  0.0981
 6547TIP3    H241133   2.572   5.625   3.561 -0.2887  1.0611 -1.3290
 6548TIP3   OH241134   6.691   2.042   0.933 -0.2864  0.1439 -0.7473
 6548TIP3    H141135   6.599   2.060   0.910 -1.0468  0.4673  2.1570
 6548TIP3    H241136   6.734   2.128   0.925 -0.2470  0.0410 -1.8719
 6549TIP3   OH241137   6.578   3.548  15.434 -0.2311 -0.4796  0.5227
 6549TIP3    H141138   6.543   3.505  15.355 -0.5496 -0.3589  0.5961
 6549TIP3    H241139   6.626   3.623  15.401 -0.2134 -0.5310  0.4306
 6550TIP3   OH241140   6.322   0.011  14.847 -0.5628 -0.3116  0.3526
 6550TIP3    H141141   6.370   0.090  14.872  1.3744 -1.0504 -0.7925
 6550TIP3    H241142   6.318   0.016  14.751 -2.4262 -0.5134  0.3962
 6551TIP3   OH241143   2.828   0.662  10.752 -0.1122  0.0133  0.5003
 6551TIP3    H141144   2.845   0.677  10.845 -0.4903 -1.7741  0.8865
 6551TIP3    H241145   2.762   0.593  10.751  0.9519 -1.0285 -1.1092
 6552TIP3   OH241146   1.383   4.412  13.233 -0.0467 -0.4643  0.3693
 6552TIP3    H141147   1.344   4.484  13.183  0.6086 -0.8582 -0.7495
 6552TIP3    H241148   1.471   4.443  13.254  0.2900 -0.9803 -0.2411
 6553TIP3   OH241149   4.992   0.187  14.596  0.5373  0.2270 -0.2680
 6553TIP3    H141150   4.980   0.245  14.521  1.5072  1.6288  0.6106
 6553TIP3    H241151   5.085   0.161  14.592  0.1724 -1.1041 -0.5192
 6554TIP3   OH241152   4.570   2.472  17.070 -0.1322 -0.3875  0.0981
 6554TIP3    H141153   4.483   2.509  17.055 -0.5121 -1.1084  0.4472
 6554TIP3    H241154   4.619   2.493  16.991 -1.1108 -1.3100 -0.7887
 6555TIP3   OH241155   0.030   4.813   5.481 -0.3642  0.1291  0.0292
 6555TIP3    H141156  -0.011   4.865   5.550 -1.8752  0.1891 -0.8800
 6555TIP3    H241157   0.070   4.739   5.528 -0.9939  0.3934  1.0040
 6556TIP3   OH241158   1.102   5.094   3.736 -0.5042  0.1747 -0.2497
 6556TIP3    H141159   1.082   5.133   3.651  0.2911  1.3928  0.0923
 6556TIP3    H241160   1.042   5.019   3.743  0.5176 -0.9487 -2.5639
 6557TIP3   OH241161   5.104   6.511   3.306 -0.1244  0.0087  0.1881
 6557TIP3    H141162   5.148   6.574   3.363 -1.5512 -0.5049  1.9201
 6557TIP3    H241163   5.175   6.458   3.270  0.8076  0.2829  1.5528
 6558TIP3   OH241164   3.052   0.440   5.094 -1.0378 -0.6275 -0.1837
 6558TIP3    H141165   3.014   0.394   5.168 -0.1899 -2.4400 -0.8146
 6558TIP3    H241166   3.140   0.403   5.085  0.1045  1.8518 -0.1194
 6559TIP3   OH241167   2.355   0.027   6.258 -0.3587  0.3792 -0.0743
 6559TIP3    H141168   2.268  -0.012   6.246  0.2758 -1.2132  0.3322
 6559TIP3    H241169   2.337   0.120   6.273 -2.0626 -0.0558  0.8091
 6560TIP3   OH241170   6.411   0.243   6.370 -0.2000 -0.2184 -0.8135
 6560TIP3    H141171   6.440   0.185   6.440  1.3465  2.6347  1.1118
 6560TIP3    H241172   6.474   0.229   6.299  0.7051 -0.2960 -0.0218
 6561TIP3   OH241173   4.957   0.218  10.949  0.5165 -0.7499  0.0372
 6561TIP3    H141174   4.865   0.241  10.936  1.0663  1.1141 -0.8747
 6561TIP3    H241175   4.966   0.205  11.044 -0.9042 -2.1290  0.0189
 6562TIP3   OH241176   6.128   2.701   4.566  0.0641  0.0345 -0.1097
 6562TIP3    H141177   6.207   2.719   4.618  0.9460  0.6377 -1.5911
 6562TIP3    H241178   6.056   2.727   4.623  1.0337  1.7411  0.4178
 6563TIP3   OH241179   3.955   6.155   2.269  0.1317 -0.0908  0.3493
 6563TIP3    H141180   3.949   6.236   2.320 -0.5474  0.2853 -0.3054
 6563TIP3    H241181   3.992   6.183   2.185  1.1778 -0.6927  0.5823
 6564TIP3   OH241182   3.550   0.673  12.780 -0.2680  0.1895  0.0899
 6564TIP3    H141183   3.578   0.636  12.696 -0.3377 -0.0555  0.1765
 6564TIP3    H241184   3.459   0.698  12.765 -0.4677 -0.4219  0.2833
 6565TIP3   OH241185   6.806   4.419  14.530  0.2231  0.6287 -0.0536
 6565TIP3    H141186   6.827   4.473  14.606 -0.0811  1.1256 -0.3213
 6565TIP3    H241187   6.846   4.464  14.456  0.5401  0.1352 -0.1919
 6566TIP3   OH241188   1.824   4.391   4.939  0.2554 -0.1113  0.6060
 6566TIP3    H141189   1.774   4.473   4.947  1.2291  0.5308  0.3407
 6566TIP3    H241190   1.900   4.415   4.885  0.6388 -1.1569  0.6606
 6567TIP3   OH241191   1.511   6.756  15.440 -0.5182 -0.0811 -0.2739
 6567TIP3    H141192   1.535   6.686  15.501 -2.5059 -1.5779 -1.0995
 6567TIP3    H241193   1.556   6.834  15.474  1.1136 -1.5523  1.1422
 6568TIP3   OH241194   6.693   2.429  17.080 -0.4638 -0.5028 -0.4871
 6568TIP3    H141195   6.715   2.382  17.160  1.2255  1.6124  0.3652
 6568TIP3    H241196   6.629   2.372  17.036  0.3285 -2.8238  1.1778
 6569TIP3   OH241197   5.143   4.506   2.405 -0.8665  0.2942  0.0329
 6569TIP3    H141198   5.088   4.584   2.417  1.9481  2.2220  1.4919
 6569TIP3    H241199   5.202   4.530   2.334 -0.2826 -0.7202  0.1623
 6570TIP3   OH241200   3.548   6.173   4.964 -0.1954 -0.1666 -0.0404
 6570TIP3    H141201   3.606   6.213   4.899 -0.6182 -0.2281 -0.4638
 6570TIP3    H241202   3.530   6.086   4.930 -1.6495  0.3252 -0.6520
 6571TIP3   OH241203   3.780   0.273   1.154  0.1702 -0.4044  0.1662
 6571TIP3    H141204   3.761   0.231   1.069 -0.1874  1.2607 -0.6154
 6571TIP3    H241205   3.873   0.256   1.168  0.3013 -0.4743 -0.6920
 6572TIP3   OH241206   1.803   2.890  12.379  0.4743  0.3806  0.1037
 6572TIP3    H141207   1.818   2.914  12.471  0.2945 -1.1272  0.5652
 6572TIP3    H241208   1.890   2.877  12.343  0.5288  0.2018  0.2948
 6573TIP3   OH241209   4.044   5.691  12.856 -0.2282 -0.4263  0.0641
 6573TIP3    H141210   4.053   5.725  12.945  1.9661  1.0704 -0.6541
 6573TIP3    H241211   3.953   5.660  12.851 -0.6626  0.2742  2.5114
 6574TIP3   OH241212   2.766   1.195  12.534  0.2020 -0.1773 -0.5053
 6574TIP3    H141213   2.672   1.191  12.515  0.2730 -3.5992 -0.7122
 6574TIP3    H241214   2.794   1.103  12.536  3.4972  0.7211 -0.1037
 6575TIP3   OH241215   6.815   0.066   5.298  0.3642 -0.0765 -0.1941
 6575TIP3    H141216   6.899   0.049   5.256  0.8745 -1.0212  1.1316
 6575TIP3    H241217   6.839   0.096   5.386 -0.6739  1.1682 -0.3100
 6576TIP3   OH241218   1.709   5.197  15.928 -0.1280 -0.4518 -0.0440
 6576TIP3    H141219   1.700   5.269  15.990 -0.7896  0.4927 -1.1901
 6576TIP3    H241220   1.802   5.174  15.931  0.3121  1.1760 -0.4076
 6577TIP3   OH241221   3.504   2.844   1.320 -0.3440  0.1803 -0.3798
 6577TIP3    H141222   3.499   2.822   1.413  0.3270 -0.5525 -0.5016
 6577TIP3    H241223   3.418   2.880   1.299 -0.3267  0.8417  0.6385
 6578TIP3   OH241224   2.513   0.972  14.461 -0.9158 -0.1496  0.5211
 6578TIP3    H141225   2.442   1.010  14.410  0.2488  0.6584 -0.5746
 6578TIP3    H241226   2.484   0.979  14.552 -3.0595 -1.6536  0.0250
 6579TIP3   OH241227   2.422   0.012   0.132  0.2709 -0.3103 -0.0385
 6579TIP3    H141228   2.517   0.002   0.127  0.2556 -0.5043  0.0407
 6579TIP3    H241229   2.401   0.075   0.063  0.7150  1.4821  1.3732
 6580TIP3   OH241230   2.750   2.193  16.693  0.1543  0.6645 -0.2619
 6580TIP3    H141231   2.750   2.145  16.610 -0.7568  2.7574 -1.5718
 6580TIP3    H241232   2.657   2.204  16.714  0.3052  2.2208 -0.2857
 6581TIP3   OH241233   5.967   6.060   4.194 -0.1385 -0.3859  0.5782
 6581TIP3    H141234   5.925   6.132   4.240 -2.6631 -0.4283 -1.4703
 6581TIP3    H241235   6.036   6.102   4.142  0.0701  0.1644  1.2723
 6582TIP3   OH241236   4.527   0.395  11.430 -0.3072  0.1870  0.4046
 6582TIP3    H141237   4.564   0.397  11.519 -0.2489  1.0532  0.3741
 6582TIP3    H241238   4.604   0.393  11.372 -0.3501 -0.7231  0.3750
 6583TIP3   OH241239   1.345   6.113  16.304 -0.5209 -0.2125  0.2120
 6583TIP3    H141240   1.384   6.044  16.358  1.1019  0.0410 -0.5567
 6583TIP3    H241241   1.297   6.066  16.237  0.8433 -0.6571 -0.5015
 6584TIP3   OH241242   3.791   6.704  14.706  0.2164  0.1302  0.6554
 6584TIP3    H141243   3.839   6.622  14.716  1.4764  0.6016 -1.0677
 6584TIP3    H241244   3.855   6.772  14.725 -0.3712  0.7631  0.4229
 6585TIP3   OH241245   6.082   3.763  14.305  0.7268  0.0813  0.3092
 6585TIP3    H141246   6.092   3.708  14.383  1.8512  0.6772  0.6174
 6585TIP3    H241247   6.120   3.711  14.234  1.6957  0.3959  0.5803
 6586TIP3   OH241248   5.442   1.562  13.105 -0.2503 -0.0694 -0.7040
 6586TIP3    H141249   5.500   1.505  13.054  2.0877  1.4694  0.0539
 6586TIP3    H241250   5.416   1.509  13.180  0.0383 -0.8548 -1.1446
 6587TIP3   OH241251   0.230   4.677   6.001 -0.0755  0.2905  0.3386
 6587TIP3    H141252   0.188   4.662   6.086 -1.4868  1.1755 -0.1547
 6587TIP3    H241253   0.312   4.722   6.022  0.9505 -1.9423  1.3673
 6588TIP3   OH241254   5.866   6.458  14.422 -0.1451  0.6326 -0.4241
 6588TIP3    H141255   5.946   6.426  14.381  0.9064  2.6523 -0.0456
 6588TIP3    H241256   5.809   6.482  14.349 -0.2868 -0.4325 -0.6873
 6589TIP3   OH241257   5.035   0.486  16.863 -0.5110 -0.3863  0.0759
 6589TIP3    H141258   5.019   0.538  16.783 -0.7706 -0.8670 -0.1878
 6589TIP3    H241259   5.099   0.538  16.912  0.7829 -0.7768 -1.1230
 6590TIP3   OH241260   3.909   6.414   5.682  0.2129 -0.2048  0.0944
 6590TIP3    H141261   3.980   6.357   5.712 -1.3946 -0.9402  2.9372
 6590TIP3    H241262   3.851   6.356   5.633  0.2267 -0.2567  0.1389
 6591TIP3   OH241263   0.721   0.867  11.215 -0.6407  0.4293  0.0918
 6591TIP3    H141264   0.723   0.943  11.274  1.4217  1.5768 -1.3084
 6591TIP3    H241265   0.812   0.837  11.211 -1.3218 -1.8051  0.1600
 6592TIP3   OH241266   5.144   4.030   3.039 -0.7154  0.4389 -0.0117
 6592TIP3    H141267   5.128   4.029   3.134 -2.4973  0.5817 -0.2773
 6592TIP3    H241268   5.174   4.119   3.021 -2.4383  1.0949  0.1490
 6593TIP3   OH241269   4.229   4.346   1.002  0.0777  0.5646 -0.0809
 6593TIP3    H141270   4.208   4.358   1.095 -0.6213  0.9164 -0.2791
 6593TIP3    H241271   4.246   4.434   0.969  0.4061  0.4311 -0.2722
 6594TIP3   OH241272   1.010   1.397   1.813  0.2978  0.0842 -0.1701
 6594TIP3    H141273   1.000   1.328   1.878  1.7636  0.0354  0.0382
 6594TIP3    H241274   0.931   1.449   1.821  0.0004 -0.5098  0.9516
 6595TIP3   OH241275   3.938   5.113   1.883 -0.3450  0.3356 -0.2476
 6595TIP3    H141276   3.900   5.196   1.909 -2.5820 -0.1667 -1.5561
 6595TIP3    H241277   3.869   5.071   1.831  1.8064 -0.9970 -2.2379
 6596TIP3   OH241278   5.217   6.111   1.957 -0.3412 -0.1264 -0.2311
 6596TIP3    H141279   5.160   6.034   1.954 -1.0469  0.3858 -0.2712
 6596TIP3    H241280   5.296   6.081   2.001 -0.2325 -1.1170 -1.0511
 6597TIP3   OH241281   6.593   2.911   0.614 -0.3916  0.5576 -0.4816
 6597TIP3    H141282   6.650   2.952   0.548 -2.4262  1.1871 -1.9221
 6597TIP3    H241283   6.584   2.821   0.585  1.3350 -0.1107  0.8290
 6598TIP3   OH241284   2.811   5.541  12.853  0.1368  0.2262  0.0377
 6598TIP3    H141285   2.895   5.493  12.855 -0.1194 -0.3171  3.1928
 6598TIP3    H241286   2.837   5.633  12.849  0.7912  0.0211 -0.9982
 6599TIP3   OH241287   4.443   2.911  11.969 -0.1183  0.1221 -0.2521
 6599TIP3    H141288   4.450   2.935  12.062 -0.6209 -0.2045 -0.1271
 6599TIP3    H241289   4.533   2.901  11.940  0.0264 -0.3724  0.3607
 6600TIP3   OH241290   2.941   2.135   5.738  0.3800 -0.5552 -0.4930
 6600TIP3    H141291   3.026   2.112   5.775  0.9851  1.0764 -0.7810
 6600TIP3    H241292   2.947   2.108   5.646  0.0395 -1.7376 -0.1825
 6601TIP3   OH241293   2.720   6.414  13.869  0.4145  0.5793  0.1756
 6601TIP3    H141294   2.684   6.470  13.800 -1.3691  0.5266  1.0236
 6601TIP3    H241295   2.688   6.326  13.848  1.8185  0.1277 -0.2071
 6602TIP3   OH241296   4.892   4.925  12.945  0.3491  0.5228  0.1615
 6602TIP3    H141297   4.940   4.868  12.885  0.2215 -2.1745  2.4184
 6602TIP3    H241298   4.820   4.959  12.893 -0.5225 -2.7144 -1.0168
 6603TIP3   OH241299   4.927   0.379  14.413  0.1337  0.5919 -1.0798
 6603TIP3    H141300   4.901   0.414  14.327  0.3916  0.6005 -1.1566
 6603TIP3    H241301   4.981   0.449  14.451  0.7900  0.2099 -1.3029
 6604TIP3   OH241302   2.116   5.440   2.925 -0.2013  0.1051  0.2349
 6604TIP3    H141303   2.067   5.358   2.916  2.2813 -1.3296 -1.1742
 6604TIP3    H241304   2.164   5.429   3.007 -0.8118  0.7486  0.6954
 6605TIP3   OH241305   2.848   0.850  13.471 -1.1746 -0.2449 -0.5012
 6605TIP3    H141306   2.910   0.846  13.544 -2.6597 -1.8576  0.7636
 6605TIP3    H241307   2.847   0.761  13.435 -2.1742 -0.0541 -0.9819
 6606TIP3   OH241308   6.483   0.226  14.914  0.2462 -0.1861  0.0942
 6606TIP3    H141309   6.560   0.269  14.877  0.4158  0.2910  0.9794
 6606TIP3    H241310   6.417   0.296  14.919 -0.2812 -0.6077 -0.7360
 6607TIP3   OH241311   0.841   3.327   4.416 -0.0491  0.0689 -0.4073
 6607TIP3    H141312   0.876   3.242   4.390 -4.0389 -2.0309  0.2605
 6607TIP3    H241313   0.817   3.316   4.508 -2.1530  1.3045 -0.7433
 6608TIP3   OH241314   1.425   5.703  10.699 -0.0765 -0.2432 -0.6425
 6608TIP3    H141315   1.374   5.668  10.771  0.1226 -0.4690 -0.6075
 6608TIP3    H241316   1.449   5.791  10.726 -1.9989  0.5701 -1.4447
 6609TIP3   OH241317   1.968   5.931   1.901  0.4184 -0.0410 -0.0869
 6609TIP3    H141318   2.000   5.883   1.825  0.0655  0.8451 -0.8112
 6609TIP3    H241319   2.039   5.990   1.923  1.0884 -1.2505  1.1655
 6610TIP3   OH241320   2.056   3.534   1.056 -0.7905  0.1144  0.4803
 6610TIP3    H141321   2.128   3.585   1.019 -0.9472 -0.1017 -0.1373
 6610TIP3    H241322   2.000   3.514   0.981 -1.6625  0.5420  1.0001
 6611TIP3   OH241323   6.668   3.984  13.385 -0.0768 -0.4097  0.4885
 6611TIP3    H141324   6.683   4.021  13.299 -0.3754 -1.0109  0.1694
 6611TIP3    H241325   6.665   3.889  13.370  2.0032 -0.6907  1.4730
 6612TIP3   OH241326   4.428   3.650  16.665 -0.6474  0.3286  0.1645
 6612TIP3    H141327   4.374   3.589  16.716 -0.2468  1.0998  1.5532
 6612TIP3    H241328   4.501   3.597  16.634 -1.3305 -0.3448 -0.3638
 6613TIP3   OH241329   1.147   3.297  14.976  0.2831 -0.2917 -0.7562
 6613TIP3    H141330   1.084   3.367  14.993  2.0004  1.0392  0.5173
 6613TIP3    H241331   1.119   3.225  15.033 -1.4735 -0.6943 -2.0401
 6614TIP3   OH241332   3.871   3.780   4.073  0.2166  0.2981 -0.4868
 6614TIP3    H141333   3.966   3.792   4.070  0.1421  0.9210 -3.0901
 6614TIP3    H241334   3.857   3.693   4.036 -0.2062  0.1011  0.1416
 6615TIP3   OH241335   6.221   4.492   0.402  0.0625  0.0684 -0.2356
 6615TIP3    H141336   6.191   4.408   0.438 -0.5911  0.0002 -0.9212
 6615TIP3    H241337   6.182   4.557   0.461  1.4890 -0.1176  0.9700
 6616TIP3   OH241338   6.066   1.853   2.375 -0.3148  0.7557  0.0813
 6616TIP3    H141339   6.122   1.775   2.385 -0.7970  0.2079 -1.3250
 6616TIP3    H241340   6.089   1.907   2.450  0.7318 -0.3115  0.5792
 6617TIP3   OH241341   5.143   4.866  14.380  0.1773 -0.0295 -0.1794
 6617TIP3    H141342   5.206   4.927  14.341 -0.3056 -0.5494 -1.8567
 6617TIP3    H241343   5.198   4.796  14.417  0.6318 -0.0350 -0.8394
 6618TIP3   OH241344   2.320   0.300  11.788  0.1566 -0.0132 -0.2049
 6618TIP3    H141345   2.402   0.347  11.807 -1.6313  3.3696  0.0616
 6618TIP3    H241346   2.319   0.289  11.693  2.0753 -2.6986 -0.0235
 6619TIP3   OH241347   3.589   5.483   5.779 -0.2822  0.6297 -0.1680
 6619TIP3    H141348   3.499   5.466   5.807 -0.2326 -0.6750 -0.7500
 6619TIP3    H241349   3.590   5.463   5.686  0.3482  1.7575 -0.4217
 6620TIP3   OH241350   2.666   3.089  12.401 -0.2548 -0.7146  0.1181
 6620TIP3    H141351   2.690   3.073  12.310 -0.2877 -1.1867  0.1892
 6620TIP3    H241352   2.711   3.169  12.425  0.1537 -0.8599 -0.1625
 6621TIP3   OH241353   4.855   2.237   3.062 -0.4438  0.3139  0.6029
 6621TIP3    H141354   4.889   2.254   2.974 -0.6561 -0.3253  0.3941
 6621TIP3    H241355   4.798   2.312   3.080 -1.6662 -0.3284 -0.4525
 6622TIP3   OH241356   1.438   5.322   0.714  0.4780  0.0376 -0.2770
 6622TIP3    H141357   1.522   5.276   0.716  0.5748  0.2311  0.1879
 6622TIP3    H241358   1.374   5.254   0.737  0.5959  0.0773  0.1736
 6623TIP3   OH241359   0.464   5.436  12.685  0.2738  0.1697 -0.1048
 6623TIP3    H141360   0.383   5.426  12.635  0.4040 -0.9507 -0.1211
 6623TIP3    H241361   0.523   5.482  12.626 -0.1572  0.4492 -0.3186
 6624TIP3   OH241362   6.744   4.704   0.388 -0.6294 -0.0003 -0.5422
 6624TIP3    H141363   6.718   4.779   0.333 -0.6873  2.4695  2.5966
 6624TIP3    H241364   6.662   4.674   0.428 -0.4545 -1.1583 -1.0081
 6625TIP3   OH241365   1.854   1.852  15.394 -0.0029  0.6085  0.1866
 6625TIP3    H141366   1.889   1.925  15.445 -2.2907  1.2674  0.9245
 6625TIP3    H241367   1.764   1.878  15.373 -0.6477 -1.6833 -0.1678
 6626TIP3   OH241368   3.968   1.731  11.437  0.6037 -0.4687 -0.8108
 6626TIP3    H141369   4.011   1.720  11.352  1.2796  1.8209 -0.8398
 6626TIP3    H241370   4.015   1.673  11.496  0.8234 -1.2932 -1.7542
 6627TIP3   OH241371   0.566   0.017   4.893 -0.3394 -0.3851  0.2064
 6627TIP3    H141372   0.492  -0.037   4.865  0.6501 -1.5865 -0.1365
 6627TIP3    H241373   0.539   0.107   4.872 -0.9891 -0.9526 -1.5466
 6628TIP3   OH241374   6.337   6.597   2.833  0.1232  0.2786 -0.4144
 6628TIP3    H141375   6.428   6.579   2.808  0.0116 -0.8204 -0.0939
 6628TIP3    H241376   6.325   6.690   2.816  1.6079  0.6646  0.4461
 6629TIP3   OH241377   5.059   2.057   1.939 -0.0727  0.1695  0.1322
 6629TIP3    H141378   5.117   2.122   1.901  0.0126 -1.0696 -2.0533
 6629TIP3    H241379   5.114   1.979   1.951 -0.7012 -0.2481  0.4020
 6630TIP3   OH241380   5.798   3.195   0.078 -0.4829  0.1545 -0.4798
 6630TIP3    H141381   5.881   3.189   0.030 -0.3139  0.6059 -0.2610
 6630TIP3    H241382   5.823   3.236   0.161 -0.8045 -0.4204 -0.0980
 6631TIP3   OH241383   1.907   4.139  13.503 -0.3060 -0.1839 -0.0173
 6631TIP3    H141384   1.987   4.102  13.542 -0.8238 -2.0597 -0.6126
 6631TIP3    H241385   1.860   4.178  13.576  0.1560 -0.9813  0.7277
 6632TIP3   OH241386   4.850   2.797   2.195 -0.0280 -0.2042  0.3156
 6632TIP3    H141387   4.900   2.854   2.253  0.1282 -1.0951  1.0861
 6632TIP3    H241388   4.909   2.724   2.175  0.1489  0.3900 -1.5057
 6633TIP3   OH241389   6.567   2.025  15.986 -0.5686 -0.2810  0.2553
 6633TIP3    H141390   6.654   1.991  15.966 -0.4974 -0.4455  0.8322
 6633TIP3    H241391   6.576   2.120  15.981 -0.1107 -0.2640  1.3162
 6634TIP3   OH241392   5.113   6.809   2.491 -0.4398  0.5020 -0.2181
 6634TIP3    H141393   5.127   6.789   2.399 -0.2513 -1.8835  0.2508
 6634TIP3    H241394   5.194   6.852   2.518 -0.2625  0.6904 -1.0180
 6635TIP3   OH241395   5.103   4.418   3.744 -0.5031  0.5258 -0.1009
 6635TIP3    H141396   5.127   4.483   3.810  0.7418  0.8990 -0.8988
 6635TIP3    H241397   5.186   4.384   3.712 -1.1170 -0.3990 -0.7526
 6636TIP3   OH241398   2.413   3.191  12.892 -0.2830 -0.0739  0.0365
 6636TIP3    H141399   2.365   3.247  12.831 -2.8026  0.0517  1.9397
 6636TIP3    H241400   2.447   3.251  12.958  2.6901 -0.1655 -1.2626
 6637TIP3   OH241401   1.285   2.938   1.932 -0.5414 -0.4649  0.4232
 6637TIP3    H141402   1.325   2.891   1.859  0.8947 -0.3309  1.0956
 6637TIP3    H241403   1.201   2.968   1.898 -0.1991 -0.9928 -0.9467
 6638TIP3   OH241404   1.715   1.877   2.373  0.2196 -0.2027 -0.1443
 6638TIP3    H141405   1.784   1.850   2.433  0.1889 -0.8189 -0.3758
 6638TIP3    H241406   1.761   1.901   2.293  0.2329  0.2590  0.0020
 6639TIP3   OH241407   5.252   3.601  13.018 -0.1785 -0.1742 -0.0692
 6639TIP3    H141408   5.336   3.599  12.973  0.0679  1.7491  0.2314
 6639TIP3    H241409   5.201   3.667  12.972 -1.4332 -1.0894 -0.0419
 6640TIP3   OH241410   3.623   2.565  14.105  0.6494 -0.2709 -0.5047
 6640TIP3    H141411   3.563   2.568  14.030 -1.1838  0.2709  0.9047
 6640TIP3    H241412   3.566   2.550  14.180  2.0697  2.0120  1.1502
 6641TIP3   OH241413   1.792   4.057  11.910 -0.0735  0.1162 -0.1907
 6641TIP3    H141414   1.766   3.995  11.842 -0.9726  1.3629 -1.0245
 6641TIP3    H241415   1.855   4.115  11.867 -0.0943  0.4760  0.2595
 6642TIP3   OH241416   1.898   3.495   0.830  0.8312  0.5246 -0.4613
 6642TIP3    H141417   1.949   3.416   0.812  0.8048 -0.4847  3.0121
 6642TIP3    H241418   1.810   3.474   0.800  0.6971 -1.0629  0.9015
 6643TIP3   OH241419   2.364   6.269   4.594  0.0123  0.1383  0.4424
 6643TIP3    H141420   2.328   6.339   4.540  0.6086 -0.3314 -0.6142
 6643TIP3    H241421   2.438   6.309   4.639 -0.3844  0.4904  0.7886
 6644TIP3   OH241422   5.457   3.893   4.169  0.4090  0.1453 -0.2951
 6644TIP3    H141423   5.454   3.989   4.172  2.5287  0.2556 -0.1020
 6644TIP3    H241424   5.496   3.867   4.253 -0.4598 -0.9325 -0.1959
 6645TIP3   OH241425   5.772   4.016  15.886  0.2778  0.3090 -0.3938
 6645TIP3    H141426   5.732   4.102  15.877  1.5495  0.8703 -0.8746
 6645TIP3    H241427   5.713   3.967  15.943 -0.1555  1.6917  0.3647
 6646TIP3   OH241428   3.254   2.311  11.307  0.2180 -0.2591  0.2221
 6646TIP3    H141429   3.178   2.303  11.365  0.0146 -0.2354 -0.0370
 6646TIP3    H241430   3.226   2.375  11.241  0.6418  0.1236  0.4113
 6647TIP3   OH241431   2.534   2.789   0.504  0.0517  0.0700  0.8789
 6647TIP3    H141432   2.492   2.734   0.570 -0.4196 -1.3099 -0.5242
 6647TIP3    H241433   2.504   2.753   0.421  0.1978  2.1020 -0.1059
 6648TIP3   OH241434   3.190   1.466  15.603 -0.6433  0.4085 -0.0870
 6648TIP3    H141435   3.101   1.439  15.628 -0.8943  1.5524  0.3349
 6648TIP3    H241436   3.210   1.538  15.663  0.7486 -0.1136  0.1008
 6649TIP3   OH241437   4.175   2.059  12.835 -0.6461 -0.0017  0.1149
 6649TIP3    H141438   4.228   2.098  12.904  0.8341 -1.5716 -0.0531
 6649TIP3    H241439   4.085   2.062  12.868 -0.2557  1.2838  1.1096
 6650TIP3   OH241440   0.785   5.683   2.582  0.2447 -0.8498 -0.4639
 6650TIP3    H141441   0.835   5.635   2.648  0.3772  0.9141  0.7793
 6650TIP3    H241442   0.839   5.759   2.561 -1.6674  0.9169  0.6452
 6651TIP3   OH241443   1.190   1.193  17.094  0.4235 -0.0170 -0.3044
 6651TIP3    H141444   1.101   1.168  17.069  0.1262 -0.6079  1.2407
 6651TIP3    H241445   1.198   1.285  17.068 -1.0248  0.3616  0.5038
 6652TIP3   OH241446   6.197   4.314   0.625  0.3362  0.9553  0.1766
 6652TIP3    H141447   6.258   4.343   0.692  0.3127 -0.9748  1.0898
 6652TIP3    H241448   6.240   4.239   0.584 -0.6905  0.6182 -0.3243
 6653TIP3   OH241449   2.343   5.594   6.270  0.9037  0.7430 -0.0336
 6653TIP3    H141450   2.339   5.596   6.366  1.3098  0.9472 -0.0164
 6653TIP3    H241451   2.349   5.687   6.246 -0.1232  0.7531 -0.3065
 6654TIP3   OH241452   3.871   2.339  11.242 -0.3384 -0.5826  0.2366
 6654TIP3    H141453   3.795   2.300  11.198 -1.0973  0.0258  0.9511
 6654TIP3    H241454   3.925   2.373  11.171 -1.7286  0.7266 -0.2691
 6655TIP3   OH241455   3.771   4.172  13.960  0.4951 -0.0562 -0.0473
 6655TIP3    H141456   3.785   4.098  14.019 -0.3544  0.3559  0.7004
 6655TIP3    H241457   3.840   4.164  13.894  0.5833 -1.3509  0.1755
 6656TIP3   OH241458   0.450   2.629  12.305 -0.0204  0.3251  0.0834
 6656TIP3    H141459   0.517   2.615  12.372  0.7901  0.6703 -0.6361
 6656TIP3    H241460   0.404   2.545  12.301  1.2656 -0.3980 -0.3656
 6657TIP3   OH241461   6.027   3.961  14.599  0.8095  0.4006  0.0221
 6657TIP3    H141462   6.013   3.925  14.512  0.9780  2.6260 -1.0100
 6657TIP3    H241463   5.946   3.941  14.647  0.1394  0.3207 -1.1008
 6658TIP3   OH241464   2.374   0.351  13.427  0.6046  0.0097  0.1163
 6658TIP3    H141465   2.372   0.268  13.380  2.0666 -0.1965  0.3544
 6658TIP3    H241466   2.287   0.388  13.415 -0.3998 -1.9759  0.7735
 6659TIP3   OH241467   6.408   3.452   1.170  0.4376 -0.2558  0.0969
 6659TIP3    H141468   6.413   3.505   1.090  1.1355 -1.7629 -0.8854
 6659TIP3    H241469   6.448   3.369   1.147  0.4781 -0.8004  1.9804
 6660TIP3   OH241470   0.480   1.409   5.360 -0.5078 -0.1809 -0.2226
 6660TIP3    H141471   0.495   1.332   5.414 -0.0125  1.2738  1.8301
 6660TIP3    H241472   0.563   1.425   5.316 -0.2072 -0.0927  0.3672
 6661TIP3   OH241473   2.952   6.411  12.685 -0.3701 -0.1678 -0.1306
 6661TIP3    H141474   2.975   6.446  12.599 -1.2213  2.0103  0.4819
 6661TIP3    H241475   3.028   6.433  12.740 -0.8330  0.5801  0.2161
 6662TIP3   OH241476   4.626   2.325  10.813  0.5918 -0.3344  0.8808
 6662TIP3    H141477   4.563   2.378  10.861  0.8553  0.4134  0.4249
 6662TIP3    H241478   4.710   2.370  10.826  0.5674  0.2710 -0.7867
 6663TIP3   OH241479   1.586   4.657   0.566  0.0820  0.0329 -0.6203
 6663TIP3    H141480   1.549   4.579   0.525  2.1342 -1.4899  0.3251
 6663TIP3    H241481   1.649   4.690   0.501 -0.1752  0.4335 -0.6696
 6664TIP3   OH241482   0.122   2.956   4.823  0.1327 -0.3137 -0.1947
 6664TIP3    H141483   0.088   2.959   4.734 -1.7416 -1.0896  0.4537
 6664TIP3    H241484   0.103   2.867   4.854  1.5483 -0.3468  0.6968
 6665TIP3   OH241485   2.556   2.851  14.328 -0.3982  0.5876 -0.2001
 6665TIP3    H141486   2.598   2.871  14.245 -0.1209 -0.8498 -0.4216
 6665TIP3    H241487   2.626   2.856  14.393 -0.1749 -0.3884 -0.3619
 6666TIP3   OH241488   6.561   1.783   3.663 -0.3297  0.7903  0.3665
 6666TIP3    H141489   6.504   1.726   3.715 -0.4733  1.6934  1.2236
 6666TIP3    H241490   6.501   1.827   3.603 -0.4186  1.0757  0.6609
 6667TIP3   OH241491   4.247   1.855  11.002  0.4200  0.1278  0.1644
 6667TIP3    H141492   4.279   1.935  10.959 -2.4168  0.9733 -0.5969
 6667TIP3    H241493   4.185   1.818  10.940 -1.7382 -0.1452  2.3293
 6668TIP3   OH241494   0.474   1.236  13.451  0.3864  0.0376 -0.1220
 6668TIP3    H141495   0.532   1.219  13.525  1.7128  0.7680 -0.9585
 6668TIP3    H241496   0.387   1.211  13.482  1.2364 -1.8268  0.9209
 6669TIP3   OH241497   4.946   6.666   1.047  0.0547  0.0328  0.5869
 6669TIP3    H141498   4.986   6.614   0.977 -0.2528  0.3546  0.1657
 6669TIP3    H241499   5.014   6.727   1.074 -0.0261  0.3227  0.1388
 6670TIP3   OH241500   6.500   5.605  14.597 -0.6579  0.4459  0.0139
 6670TIP3    H141501   6.480   5.697  14.576 -1.5517  0.2686  0.0222
 6670TIP3    H241502   6.550   5.609  14.678 -0.0191  0.9660 -0.3976
 6671TIP3   OH241503   2.143   5.036  14.084 -0.4061 -0.3131  0.0248
 6671TIP3    H141504   2.149   5.117  14.135  2.2131 -0.6102  0.3014
 6671TIP3    H241505   2.231   4.998  14.087 -1.5277 -3.1897 -0.1140
 6672TIP3   OH241506   2.495   0.487   0.917  0.2969 -0.3278 -0.3094
 6672TIP3    H141507   2.420   0.470   0.861  0.4957 -1.5394 -0.2377
 6672TIP3    H241508   2.510   0.404   0.963 -0.3221  0.7976  2.1080
 6673TIP3   OH241509   4.536   1.568   1.952  0.4732  0.1200  0.0341
 6673TIP3    H141510   4.549   1.598   1.862  1.1226 -0.4950 -0.0800
 6673TIP3    H241511   4.587   1.488   1.959  2.2966  1.3196  1.5977
 6674TIP3   OH241512   0.506   2.453  15.634  0.5324 -0.0604 -0.2601
 6674TIP3    H141513   0.452   2.526  15.664 -0.4475 -1.0849  0.5956
 6674TIP3    H241514   0.541   2.414  15.715  0.4000 -0.9986 -0.6336
 6675TIP3   OH241515   5.580   6.126  13.662 -0.2692 -0.4394  0.6088
 6675TIP3    H141516   5.587   6.055  13.727 -0.5760 -1.1257 -0.0921
 6675TIP3    H241517   5.670   6.146  13.639 -0.1855 -0.7766  0.6345
 6676TIP3   OH241518   1.566   2.419   1.880 -0.4279  0.2610  0.4411
 6676TIP3    H141519   1.643   2.461   1.917 -0.3543  0.5423 -0.0204
 6676TIP3    H241520   1.562   2.452   1.790 -0.0394 -1.1588 -0.1214
 6677TIP3   OH241521   6.641   0.866  10.572  0.3229 -0.1277  0.3633
 6677TIP3    H141522   6.735   0.866  10.552  0.0196 -0.6680 -1.2178
 6677TIP3    H241523   6.613   0.776  10.554 -0.1774 -0.4978  2.6212
 6678TIP3   OH241524   3.181   5.710   1.335 -0.4206  0.1483  0.2230
 6678TIP3    H141525   3.260   5.760   1.356  0.1992 -0.4293 -0.6519
 6678TIP3    H241526   3.171   5.721   1.241 -0.4134 -1.1610  0.0599
 6679TIP3   OH241527   6.680   4.179  14.392  0.1871  0.6411  0.1208
 6679TIP3    H141528   6.697   4.223  14.476  1.2953  2.4773 -1.0000
 6679TIP3    H241529   6.740   4.221  14.331 -0.3188 -0.9399 -1.5275
 6680TIP3   OH241530   5.277   0.759   2.553  0.2360  0.1730  0.1954
 6680TIP3    H141531   5.275   0.783   2.645 -2.0776  0.7643  0.0499
 6680TIP3    H241532   5.327   0.829   2.510  0.6478  0.2962  0.8606
 6681TIP3   OH241533   2.591   2.032   4.699  0.6523  0.3816  0.0628
 6681TIP3    H141534   2.612   2.115   4.742 -0.3755  0.2788  0.7877
 6681TIP3    H241535   2.555   2.058   4.614  1.6028  0.6193 -0.2842
 6682TIP3   OH241536   4.995   4.512  12.638  0.3325 -0.0371  1.1269
 6682TIP3    H141537   4.933   4.549  12.700 -1.3521  1.3719 -1.2030
 6682TIP3    H241538   5.076   4.561  12.652  0.0422  0.1124  2.3276
 6683TIP3   OH241539   5.924   5.050   1.752  0.7526  0.2132 -0.4197
 6683TIP3    H141540   5.973   5.107   1.811  0.6997 -0.7080  0.5322
 6683TIP3    H241541   5.868   5.110   1.703 -2.7387  0.8401  3.6936
 6684TIP3   OH241542   6.073   6.246   3.300  0.7011  0.8480  0.6138
 6684TIP3    H141543   6.076   6.341   3.311 -0.8721  0.6915  3.3993
 6684TIP3    H241544   5.988   6.221   3.336  0.8587 -1.5875 -0.5572
 6685TIP3   OH241545   1.940   0.172  16.057 -0.1295  0.3661 -0.0966
 6685TIP3    H141546   2.019   0.150  16.106 -0.3165  0.0441  0.0618
 6685TIP3    H241547   1.940   0.110  15.983  0.7869  1.6154 -1.1922
 6686TIP3   OH241548   6.619   2.699   3.913  0.7736  0.0213  0.3002
 6686TIP3    H141549   6.680   2.673   3.982  0.0337 -1.4630  0.4364
 6686TIP3    H241550   6.534   2.665   3.942 -0.2111  2.2366  0.2345
 6687TIP3   OH241551   1.386   1.041  12.993 -0.0697  0.6468 -0.3527
 6687TIP3    H141552   1.467   1.016  12.948  0.0969  0.1413  0.2212
 6687TIP3    H241553   1.397   1.134  13.013 -0.4027  1.0408 -1.8927
 6688TIP3   OH241554   2.247   5.239  16.709  0.4180 -0.4094  0.5893
 6688TIP3    H141555   2.235   5.160  16.655 -0.0932 -0.4373  0.7366
 6688TIP3    H241556   2.276   5.305  16.647 -0.8717 -0.2488  0.1202
 6689TIP3   OH241557   0.202   3.239   2.541  0.7924 -0.3204  0.0733
 6689TIP3    H141558   0.272   3.176   2.521  1.3889 -0.1115  1.3989
 6689TIP3    H241559   0.165   3.208   2.624  0.9022  0.9096  0.6018
 6690TIP3   OH241560   1.836   0.974   6.073 -0.1510 -0.5637 -0.6063
 6690TIP3    H141561   1.913   1.028   6.053  1.8406 -2.0823  2.2802
 6690TIP3    H241562   1.854   0.891   6.028 -0.8493 -0.4709 -1.0762
 6691TIP3   OH241563   2.861   5.663  13.440  0.0340  0.0447  0.0492
 6691TIP3    H141564   2.955   5.680  13.440  0.1880 -0.7361  0.6505
 6691TIP3    H241565   2.827   5.714  13.513 -0.3972  2.1596 -1.5379
 6692TIP3   OH241566   1.774   0.811  10.817 -0.8956  0.2064 -0.2667
 6692TIP3    H141567   1.702   0.860  10.776 -0.3360  0.8713 -0.4752
 6692TIP3    H241568   1.844   0.876  10.827 -1.1557  0.1993  2.1644
 6693TIP3   OH241569   0.757   6.308  12.057  0.8208 -0.6180  0.4445
 6693TIP3    H141570   0.850   6.294  12.071  0.7773  0.0762  1.5542
 6693TIP3    H241571   0.747   6.312  11.962  2.2769  1.3781  0.3090
 6694TIP3   OH241572   4.223   1.621   4.939  0.4354 -0.2452  0.2882
 6694TIP3    H141573   4.295   1.661   4.989  1.6053 -3.5248  1.4947
 6694TIP3    H241574   4.149   1.681   4.952  1.8267  1.1646  2.5165
 6695TIP3   OH241575   6.588   3.212   1.485  0.1517 -0.0168 -0.2375
 6695TIP3    H141576   6.605   3.241   1.575 -0.0390  1.0439 -0.5303
 6695TIP3    H241577   6.524   3.141   1.495 -1.5486  1.5197  0.3686
 6696TIP3   OH241578   4.433   1.398  15.122 -0.0360  0.1240 -0.3103
 6696TIP3    H141579   4.388   1.471  15.164  2.0729  1.2411  0.1579
 6696TIP3    H241580   4.480   1.355  15.194 -2.5398 -2.8266 -0.2468
 6697TIP3   OH241581   3.319   1.928  16.050  0.0977  0.5461  0.3444
 6697TIP3    H141582   3.332   2.023  16.049 -0.1186  0.5759 -0.7408
 6697TIP3    H241583   3.224   1.917  16.054  0.0688  0.3907 -0.6075
 6698TIP3   OH241584   4.859   0.947  11.481 -0.0421 -0.2385 -0.0632
 6698TIP3    H141585   4.950   0.920  11.473  0.2413  1.1854 -2.4983
 6698TIP3    H241586   4.812   0.895  11.416 -0.3443  1.4041 -1.2271
 6699TIP3   OH241587   4.161   6.527   1.426 -0.0378 -0.5741 -0.6587
 6699TIP3    H141588   4.201   6.449   1.387  0.0329 -0.7897 -0.1560
 6699TIP3    H241589   4.069   6.505   1.437  0.1476 -0.9153  0.2952
 6700TIP3   OH241590   2.251   0.373  11.523  0.1040 -0.3287  0.4159
 6700TIP3    H141591   2.237   0.401  11.433  0.4931 -0.9830  0.1441
 6700TIP3    H241592   2.249   0.454  11.574 -2.3981 -0.1584  0.1444
 6701TIP3   OH241593   2.084   1.630  15.992 -0.2542  0.3711 -0.4668
 6701TIP3    H141594   1.995   1.598  15.981 -0.8960  2.3951 -1.8191
 6701TIP3    H241595   2.075   1.725  16.001  1.5834  0.3985  2.4743
 6702TIP3   OH241596   6.576   1.366  11.331  0.0120  0.7530 -0.4236
 6702TIP3    H141597   6.593   1.364  11.237 -1.6793 -0.5375 -0.7566
 6702TIP3    H241598   6.536   1.281  11.350  1.0799  0.6554  1.6298
 6703TIP3   OH241599   0.274   2.492   5.697  0.4543 -0.0795 -0.2701
 6703TIP3    H141600   0.224   2.531   5.626 -1.8282 -0.3209  1.0881
 6703TIP3    H241601   0.320   2.419   5.657 -0.8005 -0.2333 -1.5129
 6704TIP3   OH241602   5.665   2.961   5.198 -0.2388 -0.4193 -0.2341
 6704TIP3    H141603   5.740   3.000   5.152  0.6138 -0.7426  0.8418
 6704TIP3    H241604   5.671   2.868   5.178 -0.2223 -0.4748  0.0315
 6705TIP3   OH241605   4.695   2.487  11.322 -0.3490  0.1753 -0.0671
 6705TIP3    H141606   4.636   2.449  11.257  0.5459  0.1273 -0.8776
 6705TIP3    H241607   4.731   2.411  11.369 -1.3353  0.2302  0.8174
 6706TIP3   OH241608   6.778   4.812   2.366  0.4466  0.1560  0.2212
 6706TIP3    H141609   6.744   4.748   2.305 -0.2577 -0.5960  1.3622
 6706TIP3    H241610   6.843   4.861   2.316  0.2406 -0.7443 -0.9692
 6707TIP3   OH241611   5.901   4.089   0.102 -0.0128  0.5142  0.1189
 6707TIP3    H141612   5.882   4.101   0.196 -0.4251  0.3075  0.0628
 6707TIP3    H241613   5.973   4.151   0.085 -1.0640  1.7968  0.1886
 6708TIP3   OH241614   1.420   4.382  12.917 -0.5028  0.1538  0.3160
 6708TIP3    H141615   1.409   4.470  12.882  0.8715  0.5741  0.9050
 6708TIP3    H241616   1.399   4.390  13.010  0.1174 -0.0320  0.4712
 6709TIP3   OH241617   1.050   1.652  15.851  0.3511  0.0649  0.6279
 6709TIP3    H141618   1.100   1.728  15.883 -0.1282  0.6100  0.1175
 6709TIP3    H241619   1.116   1.595  15.812  0.3639  2.1230 -2.7654
 6710TIP3   OH241620   6.105   0.876   3.551 -0.1124 -0.0494  0.7655
 6710TIP3    H141621   6.180   0.829   3.514 -0.9924 -1.1802  0.3493
 6710TIP3    H241622   6.142   0.959   3.583  1.5481 -1.1079  1.7558
 6711TIP3   OH241623   2.718   3.974  14.315 -0.6131  0.4132 -0.0235
 6711TIP3    H141624   2.743   4.067  14.315 -0.6786  0.4362 -0.7406
 6711TIP3    H241625   2.777   3.933  14.251  0.7686 -0.4360  1.7035
 6712TIP3   OH241626   6.417   4.394  13.654  1.5200  0.6243  0.6357
 6712TIP3    H141627   6.490   4.354  13.607  1.1590  0.2386  0.4001
 6712TIP3    H241628   6.459   4.449  13.720  2.0232  0.2266  0.6570
 6713TIP3   OH241629   6.751   5.104  11.907  0.3669 -0.1335  0.1809
 6713TIP3    H141630   6.668   5.150  11.910  1.0295  1.1860 -0.7411
 6713TIP3    H241631   6.764   5.072  11.996 -0.5550  0.6967  0.6268
 6714TIP3   OH241632   0.451   0.839  14.953 -0.2870 -0.4108 -0.0934
 6714TIP3    H141633   0.471   0.758  14.906 -0.8713 -0.9385  0.5536
 6714TIP3    H241634   0.534   0.865  14.993  0.3057  0.2340 -1.6670
 6715TIP3   OH241635   1.282   4.068  16.899  0.0902  0.0795  0.7830
 6715TIP3    H141636   1.360   4.120  16.880  1.0036 -0.8447  1.8937
 6715TIP3    H241637   1.294   3.988  16.848 -0.7305  0.4028  0.0374
 6716TIP3   OH241638   5.018   4.290  15.576 -0.4057  0.4517  0.0163
 6716TIP3    H141639   5.099   4.331  15.608 -0.0653 -0.0519 -0.1769
 6716TIP3    H241640   5.042   4.254  15.490 -0.5278 -0.6299  0.4145
 6717TIP3   OH241641   0.573   2.886   0.691 -0.2218  0.1869 -0.3902
 6717TIP3    H141642   0.503   2.870   0.755  1.4636  0.4411  1.6058
 6717TIP3    H241643   0.592   2.979   0.700  1.4994 -0.2085  0.3469
 6718TIP3   OH241644   5.294   6.065   0.948  0.1856 -0.5600 -0.0947
 6718TIP3    H141645   5.209   6.033   0.921 -1.4871  0.6856  3.1408
 6718TIP3    H241646   5.282   6.159   0.961  2.2023 -0.2442 -0.0791
 6719TIP3   OH241647   3.172   3.701   5.913  0.2647 -0.3065 -0.4008
 6719TIP3    H141648   3.083   3.731   5.896  1.5942  2.6828 -3.1741
 6719TIP3    H241649   3.206   3.675   5.828  1.8771 -2.1178  0.6975
 6720TIP3   OH241650   6.014   0.357  14.925  0.2356 -0.4252 -0.0997
 6720TIP3    H141651   5.925   0.385  14.905 -0.0325 -0.4736  0.9507
 6720TIP3    H241652   6.020   0.269  14.888  0.6550  0.4441 -2.2584
 6721TIP3   OH241653   0.141   0.502   3.715  0.1221 -0.0174  0.3403
 6721TIP3    H141654   0.075   0.434   3.723 -0.3682  0.4631  0.4598
 6721TIP3    H241655   0.210   0.463   3.660 -1.3444  0.2650 -1.7998
 6722TIP3   OH241656   1.025   3.925   3.861  0.3285 -0.6062  0.0687
 6722TIP3    H141657   1.034   4.003   3.916 -0.4142  0.5868 -1.4198
 6722TIP3    H241658   0.994   3.959   3.777 -0.3716 -2.5602 -0.5107
 6723TIP3   OH241659   4.252   3.991   0.405 -0.2814  0.1228  0.7655
 6723TIP3    H141660   4.182   4.043   0.444 -0.0761  0.7465  0.2997
 6723TIP3    H241661   4.230   3.987   0.312 -0.5754 -1.0639  0.8665
 6724TIP3   OH241662   6.055   1.950  12.312 -0.2657  0.1023 -0.1648
 6724TIP3    H141663   6.059   1.932  12.406 -1.2883 -0.8504 -0.2941
 6724TIP3    H241664   6.112   2.026  12.300 -0.5372  0.5583  1.3035
 6725TIP3   OH241665   3.786   3.800  17.014  0.2360 -0.2388  0.2321
 6725TIP3    H141666   3.856   3.864  17.003 -1.3161  1.6962  0.9309
 6725TIP3    H241667   3.812   3.748  17.090 -0.6261  2.8305  2.8567
 6726TIP3   OH241668   2.982   4.996  11.063  0.1688 -0.0865  0.0847
 6726TIP3    H141669   3.027   4.968  10.983  0.2367  0.9811 -0.2684
 6726TIP3    H241670   2.902   5.038  11.032 -0.4551 -0.8272  0.6496
 6727TIP3   OH241671   4.981   3.256   4.751  0.4789 -0.3646  0.4059
 6727TIP3    H141672   5.054   3.272   4.810 -0.1675 -0.2785  1.2042
 6727TIP3    H241673   5.005   3.302   4.670 -0.1356  2.5892  1.7496
 6728TIP3   OH241674   3.843   2.564   2.076  0.0969 -0.0515  0.5362
 6728TIP3    H141675   3.800   2.599   2.154 -0.4440 -1.0344  0.7003
 6728TIP3    H241676   3.813   2.621   2.005 -0.0573  0.3570  0.9233
 6729TIP3   OH241677   3.729   6.830  15.395  0.3485  0.0392 -0.3146
 6729TIP3    H141678   3.769   6.874  15.470 -1.1237  0.5268  0.2086
 6729TIP3    H241679   3.773   6.745  15.391  1.1969  0.4304  0.4346
 6730TIP3   OH241680   2.341   4.108   4.856  0.0333 -0.3075  0.4810
 6730TIP3    H141681   2.327   4.056   4.935  0.3341  1.0319  1.4479
 6730TIP3    H241682   2.257   4.152   4.841 -0.5511 -1.7678 -0.9202
 6731TIP3   OH241683   2.305   4.804  12.960 -0.3963 -0.3186 -0.1440
 6731TIP3    H141684   2.323   4.855  12.881  0.8630  0.0704  0.3659
 6731TIP3    H241685   2.234   4.851  13.004 -0.8568 -0.3390 -0.8509
 6732TIP3   OH241686   0.628   4.591  14.002  0.7741  0.0794 -0.4566
 6732TIP3    H141687   0.573   4.669  13.993  1.3621  0.5863  0.2668
 6732TIP3    H241688   0.567   4.522  14.027  0.5842  0.8888  1.5387
 6733TIP3   OH241689   2.534   2.159   6.038 -0.4624 -0.1003  0.0641
 6733TIP3    H141690   2.614   2.142   5.989 -0.9790  1.4682 -1.4353
 6733TIP3    H241691   2.564   2.190   6.123  0.6404  1.9911 -0.9971
 6734TIP3   OH241692   5.940   4.652   3.271  0.2517 -0.1428 -0.6009
 6734TIP3    H141693   5.888   4.621   3.345 -0.0600  2.6502  0.4679
 6734TIP3    H241694   5.897   4.615   3.194 -1.0603 -0.9187  0.4549
 6735TIP3   OH241695   0.389   6.179  11.084 -0.7542 -0.4354  0.5328
 6735TIP3    H141696   0.386   6.243  11.155 -1.7060 -0.3166  0.3986
 6735TIP3    H241697   0.317   6.119  11.102 -1.0717 -0.3448 -0.3757
 6736TIP3   OH241698   5.473   1.306  11.383 -0.4643 -0.1924  0.1536
 6736TIP3    H141699   5.460   1.219  11.345 -0.8443 -0.2627  0.4326
 6736TIP3    H241700   5.384   1.341  11.393 -0.2758  0.5527 -0.7065
 6737TIP3   OH241701   6.380   2.607  12.406 -0.4275  0.1540 -0.2322
 6737TIP3    H141702   6.385   2.570  12.318 -2.4229 -0.2049 -0.2318
 6737TIP3    H241703   6.314   2.676  12.400 -0.2897  0.4098  0.8931
 6738TIP3   OH241704   2.720   0.554  16.071  0.6087  0.1452 -0.5815
 6738TIP3    H141705   2.724   0.459  16.078 -0.6897  0.0850 -0.2980
 6738TIP3    H241706   2.740   0.573  15.979 -0.0550 -0.4810 -0.8608
 6739TIP3   OH241707   6.579   3.272   5.366 -0.2231  0.2397 -0.0670
 6739TIP3    H141708   6.671   3.291   5.344  0.9022 -3.3051  0.8509
 6739TIP3    H241709   6.538   3.255   5.281  0.3513  0.4066 -0.3912
 6740TIP3   OH241710   3.633   3.543   1.414 -0.1671  0.4226  0.2616
 6740TIP3    H141711   3.662   3.464   1.368 -0.8484  0.7005 -0.6785
 6740TIP3    H241712   3.631   3.517   1.506 -1.9054 -1.1739 -0.1518
 6741TIP3   OH241713   1.517   6.387   4.819 -0.5055 -0.1780  0.0703
 6741TIP3    H141714   1.475   6.368   4.735 -1.1960 -2.4879  0.8715
 6741TIP3    H241715   1.610   6.383   4.800 -0.6492 -0.1633 -0.6893
 6742TIP3   OH241716   6.231   6.270  11.157 -0.5323 -0.4692 -0.3236
 6742TIP3    H141717   6.195   6.184  11.135 -0.7691 -0.1146 -1.3615
 6742TIP3    H241718   6.321   6.267  11.126 -0.8180 -0.0254 -1.2236
 6743TIP3   OH241719   5.775   0.228   4.037 -0.4378  0.0035 -0.0192
 6743TIP3    H141720   5.864   0.219   4.069  0.0324  2.4410 -0.4408
 6743TIP3    H241721   5.724   0.253   4.115 -0.5526 -0.3221  0.0125
 6744TIP3   OH241722   4.440   4.046   5.696 -1.0265 -0.2554 -0.2290
 6744TIP3    H141723   4.492   3.973   5.662 -0.2346  0.6523 -0.9945
 6744TIP3    H241724   4.426   4.024   5.788 -0.1478 -1.0112 -0.2629
 6745TIP3   OH241725   0.639   5.914  16.947 -0.5095 -0.0264 -0.2784
 6745TIP3    H141726   0.653   5.823  16.973 -0.2198  0.2802  0.6571
 6745TIP3    H241727   0.640   5.912  16.851 -0.0826 -0.9444 -0.2600
 6746TIP3   OH241728   6.584   4.356  11.240  0.0001 -0.2587 -0.3333
 6746TIP3    H141729   6.672   4.339  11.206 -0.7630 -2.4203 -1.4384
 6746TIP3    H241730   6.551   4.428  11.187  1.0774  0.5462  0.0695
 6747TIP3   OH241731   3.799   4.004  16.253 -0.0434 -0.1253  0.2585
 6747TIP3    H141732   3.732   4.017  16.320  0.8957 -1.4638  1.5339
 6747TIP3    H241733   3.869   4.065  16.276  1.8280 -2.9283  2.7566
 6748TIP3   OH241734   4.508   3.894   1.794  0.3619  0.1563 -0.0157
 6748TIP3    H141735   4.427   3.934   1.762 -0.8232 -1.1764  1.2227
 6748TIP3    H241736   4.483   3.805   1.820  2.3636 -0.5095 -0.2072
 6749TIP3   OH241737   6.205   3.842  16.806 -0.5098 -0.4476  0.0538
 6749TIP3    H141738   6.142   3.887  16.750 -1.2553 -1.0064  0.4436
 6749TIP3    H241739   6.227   3.907  16.874 -0.2746 -0.0827 -0.3607
 6750TIP3   OH241740   5.633   4.118   1.379 -0.1262  0.5871  0.1372
 6750TIP3    H141741   5.719   4.078   1.390 -0.6104 -0.2482  0.9989
 6750TIP3    H241742   5.593   4.070   1.307 -0.2238  0.3568  0.3442
 6751TIP3   OH241743   5.581   6.817  14.403  0.1523 -0.2127  0.1191
 6751TIP3    H141744   5.531   6.756  14.349 -0.1552 -2.1902  2.4483
 6751TIP3    H241745   5.530   6.898  14.401 -2.2211 -1.5953  0.9236
 6752TIP3   OH241746   6.790   0.374   5.423 -0.2517  0.4476  0.5816
 6752TIP3    H141747   6.747   0.330   5.350 -0.8439  1.8191  0.0789
 6752TIP3    H241748   6.758   0.327   5.501 -1.0626  0.1474  0.0820
 6753TIP3   OH241749   1.742   4.390  11.884 -0.1945  0.0013 -0.0109
 6753TIP3    H141750   1.791   4.312  11.858  0.1987 -0.0049  0.7231
 6753TIP3    H241751   1.798   4.434  11.948  0.9708  2.4854 -2.5048
 6754TIP3   OH241752   5.236   0.483  14.282  0.3787 -0.3643  0.3265
 6754TIP3    H141753   5.263   0.478  14.374  2.9372  1.2157 -0.2270
 6754TIP3    H241754   5.186   0.564  14.276  2.0921  0.7282 -0.0008
 6755TIP3   OH241755   0.203   5.567  15.303 -0.2105 -0.1158  0.2428
 6755TIP3    H141756   0.124   5.537  15.347 -0.1452 -0.9924 -0.2218
 6755TIP3    H241757   0.263   5.493  15.308  0.2735  0.2411 -0.1630
 6756TIP3   OH241758   2.404   5.857   4.340  0.7546 -0.9973 -0.5320
 6756TIP3    H141759   2.439   5.803   4.269 -0.7763  0.2804 -2.3518
 6756TIP3    H241760   2.311   5.867   4.319  0.1845 -0.8234  1.8481
 6757TIP3   OH241761   4.229   5.474   2.735  0.3999  0.3751 -0.3473
 6757TIP3    H141762   4.275   5.411   2.790  0.5489 -1.1833 -2.1479
 6757TIP3    H241763   4.188   5.534   2.796  2.2335 -0.0454  1.3991
 6758TIP3   OH241764   0.271   4.801   3.130 -0.2698  0.2635 -0.0832
 6758TIP3    H141765   0.321   4.844   3.061  1.0711 -1.9409 -0.5741
 6758TIP3    H241766   0.226   4.729   3.086 -1.8473  0.6405  0.8326
 6759TIP3   OH241767   6.064   2.084  15.647  0.5019 -0.1143  0.2409
 6759TIP3    H141768   6.137   2.058  15.591  0.4053  1.9850 -0.9883
 6759TIP3    H241769   6.028   2.162  15.604 -1.7432 -0.4041  1.4365
 6760TIP3   OH241770   3.840   2.251   0.728  0.0804 -0.4335  0.1071
 6760TIP3    H141771   3.797   2.192   0.665 -0.6894  0.1728  0.0523
 6760TIP3    H241772   3.933   2.231   0.720 -0.1035 -1.0832 -0.4877
 6761TIP3   OH241773   1.895   1.756  16.938  0.3317 -0.0163  0.0007
 6761TIP3    H141774   1.836   1.829  16.956 -1.5703 -1.5236  0.2601
 6761TIP3    H241775   1.902   1.710  17.022 -0.2661 -1.3181 -0.6251
 6762TIP3   OH241776   2.783   5.163   5.248 -0.6459 -0.3480 -0.1795
 6762TIP3    H141777   2.839   5.206   5.183 -1.5337  1.3323  0.1186
 6762TIP3    H241778   2.811   5.202   5.332 -0.4712 -1.4587  0.2956
 6763TIP3   OH241779   2.959   0.195   0.682 -0.2078  0.0949 -0.1976
 6763TIP3    H141780   2.972   0.239   0.766 -0.5332 -0.6699  0.2559
 6763TIP3    H241781   3.045   0.161   0.659 -0.0627  0.5254 -0.3081
 6764TIP3   OH241782   2.160   3.870   4.467 -0.0783 -0.3949 -0.3513
 6764TIP3    H141783   2.241   3.899   4.510  2.0329 -3.7624 -1.6478
 6764TIP3    H241784   2.180   3.874   4.374 -2.9549  2.3895 -1.0343
 6765TIP3   OH241785   6.104   1.210   0.403 -0.0475 -0.6441 -0.8090
 6765TIP3    H141786   6.195   1.183   0.393  0.2134 -0.3610  0.5319
 6765TIP3    H241787   6.104   1.303   0.379 -0.0164 -0.6952 -1.0042
 6766TIP3   OH241788   1.274   4.626  12.225  0.5140  0.0269 -0.1318
 6766TIP3    H141789   1.200   4.627  12.285 -0.1348  0.6437 -0.9098
 6766TIP3    H241790   1.268   4.709  12.177  2.8830  1.0546  1.1481
 6767TIP3   OH241791   0.512   1.073  12.110  0.4470 -0.0251  0.4300
 6767TIP3    H141792   0.492   1.094  12.019  1.7595  0.8316  0.3151
 6767TIP3    H241793   0.575   1.001  12.105 -0.2118 -0.6434  0.7104
 6768TIP3   OH241794   6.311   6.253   4.752 -0.2055 -0.4978 -0.2009
 6768TIP3    H141795   6.249   6.202   4.699 -1.0838  1.0237 -0.7196
 6768TIP3    H241796   6.255   6.312   4.802  0.7854  0.1237  0.1924
 6769TIP3   OH241797   2.235   4.132  11.825 -0.1387  0.3918 -0.1408
 6769TIP3    H141798   2.308   4.188  11.852 -1.0750  1.9060 -0.6300
 6769TIP3    H241799   2.273   4.076  11.757  0.9869 -0.0708  0.8265
 6770TIP3   OH241800   0.584   0.798   4.757 -0.3733  0.1681 -0.4492
 6770TIP3    H141801   0.628   0.883   4.764  0.9962 -0.6001  0.9527
 6770TIP3    H241802   0.491   0.820   4.747 -0.0789  1.8165  0.0446
 6771TIP3   OH241803   0.175   0.064  14.758  0.2581 -0.5709  0.4263
 6771TIP3    H141804   0.119   0.071  14.835  1.1537  0.2521  1.0273
 6771TIP3    H241805   0.178   0.152  14.721  0.0787 -0.8964 -0.3829
 6772TIP3   OH241806   6.560   5.398   5.086 -0.3423  0.2467  0.0869
 6772TIP3    H141807   6.610   5.426   5.164 -0.1430  0.9964 -0.2960
 6772TIP3    H241808   6.503   5.473   5.067  0.0257  0.3058 -0.8263
 6773TIP3   OH241809   6.564   4.684   3.500 -0.3624 -0.5486 -0.6495
 6773TIP3    H141810   6.520   4.622   3.559  0.6200 -1.8387 -1.2083
 6773TIP3    H241811   6.597   4.753   3.558 -1.4637 -0.5438 -0.0054
 6774TIP3   OH241812   3.519   2.391   1.907  0.5659 -0.0668 -0.2044
 6774TIP3    H141813   3.464   2.467   1.926  1.3847  0.5772 -0.3369
 6774TIP3    H241814   3.459   2.326   1.871 -0.5632 -0.3180  1.9769
 6775TIP3   OH241815   5.784   4.511   3.463  0.4359  0.5366  0.0349
 6775TIP3    H141816   5.782   4.553   3.550  1.2678  0.8796 -0.0970
 6775TIP3    H241817   5.762   4.420   3.480  1.0041  0.5073  0.6785
 6776TIP3   OH241818   5.028   3.010   6.315 -0.2400  0.0332 -0.3921
 6776TIP3    H141819   5.038   2.960   6.234 -1.0078  1.4021 -1.3641
 6776TIP3    H241820   4.934   3.016   6.329 -0.1742  1.4078 -0.4350
 6777TIP3   OH241821   0.890   6.757   3.045 -1.0687  0.0192 -0.2601
 6777TIP3    H141822   0.879   6.795   2.957 -1.9577  0.0439 -0.1432
 6777TIP3    H241823   0.971   6.707   3.039 -2.9781 -3.2408 -2.2972
 6778TIP3   OH241824   2.901   1.722  12.102 -0.0199 -0.3761  0.4776
 6778TIP3    H141825   2.989   1.686  12.096  0.5642  1.0391  0.2025
 6778TIP3    H241826   2.849   1.670  12.041  0.6193 -1.1909  0.6144
 6779TIP3   OH241827   6.266   6.668  12.283 -0.1400  0.5346  0.6802
 6779TIP3    H141828   6.313   6.745  12.252  1.3635 -1.8298 -3.7485
 6779TIP3    H241829   6.198   6.703  12.341  1.9033  4.8596  0.8357
 6780TIP3   OH241830   2.914   0.339  10.926  0.4622 -0.0300 -0.4362
 6780TIP3    H141831   2.989   0.397  10.943  0.2965 -0.1032  0.6101
 6780TIP3    H241832   2.841   0.398  10.908  0.4022  0.0781  0.1582
 6781TIP3   OH241833   0.918   0.365  15.941 -1.0093 -0.2842 -0.0753
 6781TIP3    H141834   0.957   0.390  15.857 -0.7273  0.4994  0.2813
 6781TIP3    H241835   0.885   0.447  15.978  1.5860 -0.0225  1.9722
 6782TIP3   OH241836   0.865   2.741  12.182 -0.1332  0.0491  0.0824
 6782TIP3    H141837   0.905   2.784  12.107 -1.2198 -0.6910 -0.9569
 6782TIP3    H241838   0.833   2.813  12.237  0.7248  0.5974 -0.1158
 6783TIP3   OH241839   5.270   5.356  11.498  0.0487 -0.2789 -0.3432
 6783TIP3    H141840   5.303   5.372  11.410 -0.4722  0.2219 -0.4573
 6783TIP3    H241841   5.233   5.440  11.525 -0.8913 -0.7519 -0.1262
 6784TIP3   OH241842   4.204   2.814  17.120 -0.5924 -0.0488 -0.3654
 6784TIP3    H141843   4.185   2.908  17.111 -0.0666  0.3161  1.7817
 6784TIP3    H241844   4.125   2.778  17.161  0.0805 -0.0501  1.0112
 6785TIP3   OH241845   4.129   5.895  12.449 -0.3770 -0.0342  0.1385
 6785TIP3    H141846   4.138   5.979  12.404 -1.8536  0.8695  1.4449
 6785TIP3    H241847   4.036   5.873  12.442 -0.4025 -0.5158  1.5897
 6786TIP3   OH241848   6.625   1.115   2.852  0.2110 -0.2506 -0.2563
 6786TIP3    H141849   6.539   1.075   2.869 -0.0209 -0.0739 -1.0100
 6786TIP3    H241850   6.681   1.041   2.828  0.1145 -0.2883 -0.3659
 6787TIP3   OH241851   3.219   1.746   3.030 -0.3635 -0.0771  0.5943
 6787TIP3    H141852   3.272   1.671   3.004  0.5637  0.2274  1.5457
 6787TIP3    H241853   3.149   1.750   2.965  0.3871 -0.9024 -0.2819
 6788TIP3   OH241854   1.854   1.979  11.445 -0.5938 -0.2564 -0.0701
 6788TIP3    H141855   1.924   1.997  11.382  0.2835 -0.1911  0.8949
 6788TIP3    H241856   1.776   2.021  11.407 -0.0924 -0.2239 -1.1004
 6789TIP3   OH241857   5.242   0.059   1.710 -0.4376 -0.0131  0.1580
 6789TIP3    H141858   5.211   0.074   1.620  1.4956 -0.0495 -0.5661
 6789TIP3    H241859   5.164   0.068   1.764 -1.6410  0.1177 -1.5156
 6790TIP3   OH241860   5.270   6.710  13.553  0.2670 -0.0476 -0.3920
 6790TIP3    H141861   5.281   6.805  13.544  1.0091  0.0613  1.2994
 6790TIP3    H241862   5.357   6.674  13.542  0.1544 -0.4309 -0.0583
 6791TIP3   OH241863   2.264   2.398   0.524  0.4641  0.0385 -0.0392
 6791TIP3    H141864   2.267   2.484   0.565 -0.5842 -0.3374  0.8715
 6791TIP3    H241865   2.195   2.404   0.458  1.3639  0.3014 -0.9801
 6792TIP3   OH241866   1.383   1.353   1.869 -0.6468 -0.1534  1.0170
 6792TIP3    H141867   1.462   1.399   1.843 -1.6227  1.4750  0.8253
 6792TIP3    H241868   1.339   1.411   1.931 -2.3444 -0.4031  0.1229
 6793TIP3   OH241869   0.561   3.228   4.821  0.2872 -0.3561 -0.4875
 6793TIP3    H141870   0.478   3.186   4.843  0.3864  0.0994  0.8739
 6793TIP3    H241871   0.537   3.319   4.802  0.5241 -0.0743  0.5028
 6794TIP3   OH241872   4.836   3.982  12.533 -0.3404 -0.4730  0.3205
 6794TIP3    H141873   4.746   3.957  12.554 -0.8440  0.2820 -0.8251
 6794TIP3    H241874   4.849   3.952  12.443 -0.6334  2.3629 -0.7572
 6795TIP3   OH241875   1.062   1.444   3.096  0.4008 -0.1303 -0.5318
 6795TIP3    H141876   0.988   1.423   3.039  0.4522 -1.9430 -0.0009
 6795TIP3    H241877   1.024   1.500   3.164 -0.7741 -1.8035  0.2782
 6796TIP3   OH241878   2.015   3.447  12.003 -0.1344  0.0347  0.4482
 6796TIP3    H141879   2.057   3.398  12.074  2.4120 -0.5032 -1.3106
 6796TIP3    H241880   2.061   3.530  12.000  1.3981 -0.7769 -1.8702
 6797TIP3   OH241881   5.719   5.550   3.742  0.3133 -0.1417 -0.1767
 6797TIP3    H141882   5.720   5.638   3.704  1.7626  0.3255  0.8557
 6797TIP3    H241883   5.628   5.521   3.733 -0.0814  1.2593 -0.9864
 6798TIP3   OH241884   4.567   4.516  14.618 -0.2360 -0.5779 -0.3644
 6798TIP3    H141885   4.512   4.503  14.541 -0.0618 -0.9136 -0.4333
 6798TIP3    H241886   4.649   4.550  14.584  0.3680 -2.1004 -0.4820
 6799TIP3   OH241887   1.583   0.378  13.303 -0.1271  0.1732  0.1618
 6799TIP3    H141888   1.643   0.362  13.230  0.8414  0.9142  0.7838
 6799TIP3    H241889   1.632   0.433  13.364 -1.7066  1.4770  0.3237
 6800TIP3   OH241890   0.483   2.911   1.072  0.4977 -0.4790 -0.4283
 6800TIP3    H141891   0.515   2.998   1.048  0.2163 -0.0975  0.5347
 6800TIP3    H241892   0.443   2.877   0.992  0.0753  0.5240 -0.6583
 6801TIP3   OH241893   3.894   6.486   1.452  0.1929  0.7386 -0.0616
 6801TIP3    H141894   3.807   6.525   1.452  0.8010  2.1538 -0.4597
 6801TIP3    H241895   3.896   6.430   1.373  0.0362  1.6333 -0.7106
 6802TIP3   OH241896   4.856   0.194   6.381  0.0993  0.2689  0.5661
 6802TIP3    H141897   4.874   0.196   6.287  0.1317  0.8030  0.5793
 6802TIP3    H241898   4.942   0.177   6.421  0.3849  1.5746  0.5658
 6803TIP3   OH241899   4.813   2.685   6.077  0.4061 -0.0053 -0.1626
 6803TIP3    H141900   4.804   2.589   6.074 -0.2869  0.0536 -0.1727
 6803TIP3    H241901   4.735   2.714   6.124 -1.1940  0.7967 -3.0708
 6804TIP3   OH241902   0.161   6.730   2.139 -0.1476 -0.0397 -0.3364
 6804TIP3    H141903   0.220   6.727   2.215  0.0731 -0.8543 -0.5318
 6804TIP3    H241904   0.167   6.820   2.107  1.4119 -0.2424 -0.6851
 6805TIP3   OH241905   2.380   5.669   4.772 -0.1480  0.4143 -0.3387
 6805TIP3    H141906   2.369   5.622   4.690  0.0281 -0.9324  0.3816
 6805TIP3    H241907   2.475   5.675   4.784 -0.1716  0.7584 -0.3254
 6806TIP3   OH241908   2.408   5.748   2.393  0.4053 -0.1949 -0.3843
 6806TIP3    H141909   2.461   5.715   2.466  2.5113  0.9861 -1.2769
 6806TIP3    H241910   2.319   5.749   2.426  0.9281 -2.1030  1.2936
 6807TIP3   OH241911   4.005   3.050   1.882 -0.0894  0.2088 -0.1347
 6807TIP3    H141912   4.070   3.000   1.832  1.0356  0.2210  1.2203
 6807TIP3    H241913   3.955   3.098   1.817  1.0965 -0.0245 -1.2567
 6808TIP3   OH241914   1.496   2.484  13.110  0.0017  0.3829  0.4318
 6808TIP3    H141915   1.505   2.406  13.055  3.5133  1.4119 -0.7280
 6808TIP3    H241916   1.450   2.547  13.056 -0.4314  0.0015  0.3500
 6809TIP3   OH241917   5.977   6.115  16.385  0.4056  0.4558 -0.5479
 6809TIP3    H141918   6.063   6.074  16.383 -0.7808 -2.5076  1.2791
 6809TIP3    H241919   5.964   6.140  16.477 -0.7570  0.5687 -0.7226
 6810TIP3   OH241920   0.541   6.064   3.320  0.4573 -0.5151  0.3540
 6810TIP3    H141921   0.523   6.093   3.410 -1.8889  0.4216 -0.3432
 6810TIP3    H241922   0.518   6.140   3.266  4.2271 -0.0961 -1.0135
 6811TIP3   OH241923   0.258   6.677   3.951  0.4555 -0.2496  0.1673
 6811TIP3    H141924   0.251   6.735   4.027  0.3713 -0.2282  0.1433
 6811TIP3    H241925   0.195   6.713   3.888 -0.5007 -1.0957  0.6184
 6812TIP3   OH241926   2.476   6.204  14.731 -0.1972 -0.2185  0.2117
 6812TIP3    H141927   2.438   6.201  14.819 -0.7632  0.0804 -0.0151
 6812TIP3    H241928   2.402   6.221  14.673  0.4717  1.9093 -0.1060
 6813TIP3   OH241929   0.676   3.904  14.788 -0.5526  0.2875 -0.4264
 6813TIP3    H141930   0.617   3.831  14.805  1.2653 -1.3693 -0.8133
 6813TIP3    H241931   0.731   3.909  14.866  1.2514 -0.7544 -1.5631
 6814TIP3   OH241932   3.625   1.528   2.932  0.4731  0.8910 -0.2318
 6814TIP3    H141933   3.666   1.613   2.946 -0.5079  1.7423 -2.1110
 6814TIP3    H241934   3.624   1.518   2.836 -0.4169 -0.7294 -0.0820
 6815TIP3   OH241935   5.493   3.428   1.030 -0.0820 -0.2712  0.2621
 6815TIP3    H141936   5.404   3.450   1.059  0.2711  1.6109  0.0361
 6815TIP3    H241937   5.481   3.354   0.971 -1.2573 -1.4258  1.8525
 6816TIP3   OH241938   0.951   5.854  11.571  0.1030 -0.0839 -0.9030
 6816TIP3    H141939   0.952   5.879  11.664  0.0364  0.1113 -0.9540
 6816TIP3    H241940   0.907   5.927  11.527 -0.8161 -0.6567 -0.9481
 6817TIP3   OH241941   3.124   6.567  13.284 -0.5186 -0.0409 -0.0809
 6817TIP3    H141942   3.043   6.617  13.284 -0.8127 -0.4800 -1.0742
 6817TIP3    H241943   3.186   6.622  13.332 -1.3932  0.2998  0.6772
 6818TIP3   OH241944   3.232   1.671   2.634  0.7220 -0.3940 -0.7998
 6818TIP3    H141945   3.144   1.635   2.620  0.8032 -0.2896 -1.6064
 6818TIP3    H241946   3.251   1.653   2.726  0.2576 -1.3093 -0.8725
 6819TIP3   OH241947   0.765   2.848   6.630  0.2095  0.2660  0.3812
 6819TIP3    H141948   0.845   2.896   6.652  0.4211  0.7508 -1.3175
 6819TIP3    H241949   0.791   2.756   6.632  1.5664  0.4860 -2.6836
 6820TIP3   OH241950   0.572   2.319  15.352  0.3280  0.2621  0.3782
 6820TIP3    H141951   0.529   2.367  15.422  2.5497  2.3378  0.4588
 6820TIP3    H241952   0.517   2.334  15.275 -0.1724  1.1153  0.8854
 6821TIP3   OH241953   3.576   2.703  16.330  0.6249 -0.0499 -0.0414
 6821TIP3    H141954   3.501   2.759  16.351  0.8145  0.2867 -0.2431
 6821TIP3    H241955   3.630   2.758  16.273  1.3069 -0.0863  0.5606
 6822TIP3   OH241956   0.716   3.223  16.693  0.2076 -0.3884 -0.2082
 6822TIP3    H141957   0.650   3.157  16.712  1.7598 -1.7659  0.7144
 6822TIP3    H241958   0.689   3.299  16.744 -2.7379  0.5632 -2.8683
 6823TIP3   OH241959   3.833   4.731  14.999 -0.3783 -0.1743 -0.5225
 6823TIP3    H141960   3.908   4.691  14.957 -1.8891 -1.6852 -1.9521
 6823TIP3    H241961   3.868   4.807  15.045  2.3542 -2.0652  0.7901
 6824TIP3   OH241962   3.443   3.912   1.254 -0.3300  0.3376 -0.8749
 6824TIP3    H141963   3.353   3.946   1.258 -0.1447  1.3568 -3.2514
 6824TIP3    H241964   3.433   3.817   1.252 -1.2069  0.3579  0.6326
 6825TIP3   OH241965   2.132   2.282   4.075 -0.3918 -0.7260  0.2791
 6825TIP3    H141966   2.047   2.242   4.057 -1.1937 -0.4519  2.9505
 6825TIP3    H241967   2.112   2.372   4.100  0.3711 -1.1553  2.7646
 6826TIP3   OH241968   5.221   2.891   2.070  0.1336 -0.3155 -0.1793
 6826TIP3    H141969   5.230   2.807   2.116 -0.9501 -0.2676  0.1684
 6826TIP3    H241970   5.286   2.888   2.001 -1.1786 -2.3306 -1.4401
 6827TIP3   OH241971   3.705   4.421  11.935 -0.2623  0.5534  0.1838
 6827TIP3    H141972   3.659   4.449  11.856  1.2904 -2.4853 -2.0235
 6827TIP3    H241973   3.661   4.341  11.962  1.7546 -0.7561 -0.1916
 6828TIP3   OH241974   6.082   3.495  13.159 -0.1866 -0.4298 -0.5773
 6828TIP3    H141975   6.044   3.479  13.245  0.6728 -0.4610 -0.1962
 6828TIP3    H241976   6.011   3.534  13.108 -0.0345  1.8992  0.8721
 6829TIP3   OH241977   5.985   6.320   1.752 -0.1906 -0.2202 -0.3102
 6829TIP3    H141978   5.905   6.268   1.741 -0.5905  0.4596 -0.7366
 6829TIP3    H241979   6.055   6.256   1.760 -0.5855 -0.8253 -1.4831
 6830TIP3   OH241980   0.579   4.945   4.277 -0.6132  0.0457 -0.6343
 6830TIP3    H141981   0.670   4.931   4.250 -0.1406 -0.2860  1.0329
 6830TIP3    H241982   0.584   5.012   4.345 -1.5579 -0.3193 -0.1884
 6831TIP3   OH241983   4.790   1.305   0.152 -0.2831  0.1763 -0.1573
 6831TIP3    H141984   4.812   1.274   0.064 -0.5483 -0.1753 -0.1042
 6831TIP3    H241985   4.701   1.273   0.166  0.7329 -2.2168  1.3390
 6832TIP3   OH241986   6.345   0.422   2.600  0.3589  0.1602  0.0062
 6832TIP3    H141987   6.274   0.358   2.606  0.9480 -0.5930 -0.7766
 6832TIP3    H241988   6.366   0.426   2.507  1.9499 -0.3086  0.3186
 6833TIP3   OH241989   0.914   6.033  12.351 -0.1752  0.0478  0.5711
 6833TIP3    H141990   0.888   6.124  12.362 -0.7088 -0.0041 -0.1751
 6833TIP3    H241991   0.845   5.982  12.394 -1.2769 -0.0838 -1.2632
 6834TIP3   OH241992   2.790   5.828  16.988  0.2236 -0.4748  0.2214
 6834TIP3    H141993   2.810   5.736  17.006 -0.0598 -0.4239  0.8032
 6834TIP3    H241994   2.773   5.867  17.074 -0.4898 -0.0776 -0.0874
 6835TIP3   OH241995   3.766   0.090  14.179 -0.6046 -0.2301  0.6109
 6835TIP3    H141996   3.761   0.088  14.275 -1.2300 -4.3488  0.6807
 6835TIP3    H241997   3.859   0.074  14.160 -0.4816  0.5842  0.4844
 6836TIP3   OH241998   6.552   1.509   0.780 -0.7763  0.2545 -0.1989
 6836TIP3    H141999   6.579   1.523   0.689 -1.0223 -1.0543 -0.4880
 6836TIP3    H242000   6.628   1.467   0.821 -0.5906  1.0236  0.2637
 6837TIP3   OH242001   5.089   4.622  13.386 -0.3457 -0.4291  0.9094
 6837TIP3    H142002   5.156   4.588  13.328 -1.6193 -0.4925 -0.6047
 6837TIP3    H242003   5.131   4.629  13.472  2.0232  1.0325 -0.2870
 6838TIP3   OH242004   1.072   5.118  11.177 -0.0044 -0.3471 -0.2214
 6838TIP3    H142005   1.040   5.196  11.222  2.4772  0.6776 -0.0387
 6838TIP3    H242006   1.168   5.124  11.185  0.3026 -3.0316 -0.8585
 6839TIP3   OH242007   4.821   1.507  11.742 -0.5028  0.1490 -0.1214
 6839TIP3    H142008   4.847   1.578  11.684  1.0773 -1.2382 -1.1747
 6839TIP3    H242009   4.750   1.463  11.696  2.6444 -2.7764 -2.6457
 6840TIP3   OH242010   2.413   4.396   4.512  0.0182  0.2680 -0.3785
 6840TIP3    H142011   2.460   4.375   4.431  2.4856 -0.7204  1.1936
 6840TIP3    H242012   2.370   4.314   4.537  2.0553 -0.4465  0.9909
 6841TIP3   OH242013   3.867   2.995  15.244  0.0164  0.0371  0.1867
 6841TIP3    H142014   3.912   3.077  15.223 -0.7677  0.4622  0.1345
 6841TIP3    H242015   3.899   2.973  15.331 -0.5892  0.9889  0.6699
 6842TIP3   OH242016   6.098   2.175   5.156 -0.3982 -0.3709 -0.5318
 6842TIP3    H142017   6.057   2.221   5.083  0.3368  0.3277 -0.5133
 6842TIP3    H242018   6.192   2.184   5.141 -0.1992  0.9870  1.2039
 6843TIP3   OH242019   3.616   5.366   2.641  0.2661  0.0714 -0.4002
 6843TIP3    H142020   3.672   5.379   2.564  1.7805 -1.3178  0.4012
 6843TIP3    H242021   3.646   5.430   2.704 -1.0037  1.2373 -0.9327
 6844TIP3   OH242022   2.976   2.587  13.118  0.0017 -0.2531 -0.4677
 6844TIP3    H142023   2.977   2.492  13.125 -1.3732 -0.2414  0.1373
 6844TIP3    H242024   2.888   2.608  13.086 -0.3089  0.8836  1.0161
 6845TIP3   OH242025   6.637   3.988  17.025  0.4992  0.0416 -0.1945
 6845TIP3    H142026   6.640   4.016  16.933  0.1947 -1.8708 -0.8458
 6845TIP3    H242027   6.574   3.916  17.026 -0.9709  1.2345  1.9241
 6846TIP3   OH242028   5.103   0.484   3.592  0.2638 -0.3510  0.3587
 6846TIP3    H142029   5.015   0.450   3.607 -0.2929  0.5416 -0.7841
 6846TIP3    H242030   5.098   0.529   3.508 -0.0671  5.7479  3.1501
 6847TIP3   OH242031   1.234   5.587  12.356 -0.2781 -0.4857  0.2906
 6847TIP3    H142032   1.155   5.630  12.388  0.1793  0.4402  0.2117
 6847TIP3    H242033   1.299   5.657  12.351  0.8181 -1.4035  1.2455
 6848TIP3   OH242034   2.170   6.495   6.356  0.6770 -0.2459 -0.1872
 6848TIP3    H142035   2.192   6.403   6.374  1.7915 -0.1132 -0.8187
 6848TIP3    H242036   2.174   6.538   6.441  0.0857 -0.7814  0.1245
 6849TIP3   OH242037   3.946   4.155   4.054  0.8210 -0.8082 -0.5906
 6849TIP3    H142038   4.027   4.173   4.102  1.6942 -0.5867 -2.1078
 6849TIP3    H242039   3.975   4.123   3.969 -0.7030 -1.3007 -0.9558
 6850TIP3   OH242040   5.266   4.519  16.731  0.0452  0.6317  0.4111
 6850TIP3    H142041   5.345   4.493  16.778 -1.2081 -0.9979  1.8014
 6850TIP3    H242042   5.210   4.558  16.798 -0.6208  1.0784 -0.3812
 6851TIP3   OH242043   1.009   4.499   2.387  0.1860 -0.0580  0.2058
 6851TIP3    H142044   1.067   4.531   2.456 -1.1643  1.5667  0.6775
 6851TIP3    H242045   1.035   4.548   2.309  0.1988 -0.1950  0.1228
 6852TIP3   OH242046   3.322   5.437  12.482  0.1448  0.1658 -0.6695
 6852TIP3    H142047   3.353   5.495  12.552 -0.6901 -1.9450  1.5708
 6852TIP3    H242048   3.228   5.451  12.479  0.2960  1.1027 -2.2854
 6853TIP3   OH242049   2.305   1.305  14.441  0.2965 -0.1129 -0.1564
 6853TIP3    H142050   2.282   1.385  14.395 -0.7652  0.6301  1.5617
 6853TIP3    H242051   2.387   1.325  14.486 -0.2103  0.2062  0.6542
 6854TIP3   OH242052   3.597   0.929   4.428  0.3638  0.7663  0.6200
 6854TIP3    H142053   3.666   0.947   4.365 -0.0076 -2.6208 -0.9948
 6854TIP3    H242054   3.640   0.879   4.497 -0.1335  0.1206  0.4717
 6855TIP3   OH242055   4.192   5.311   4.252 -0.4685  0.1936 -0.0157
 6855TIP3    H142056   4.104   5.315   4.290  0.0218  0.9921  1.0850
 6855TIP3    H242057   4.246   5.365   4.310  0.7768 -0.3651 -0.6126
 6856TIP3   OH242058   6.310   6.024  16.789 -0.1589 -0.3465 -0.3970
 6856TIP3    H142059   6.222   5.997  16.766 -0.1336 -1.3672  0.5661
 6856TIP3    H242060   6.367   5.959  16.749  0.0595 -0.4565  0.0750
 6857TIP3   OH242061   4.219   4.529  11.213  0.8850 -0.1631 -0.5143
 6857TIP3    H142062   4.312   4.540  11.234  1.0460 -1.0209 -0.7157
 6857TIP3    H242063   4.194   4.610  11.169  0.8721  1.1444  1.7378
 6858TIP3   OH242064   5.832   6.073   2.352  0.0188  0.2506  0.4774
 6858TIP3    H142065   5.807   6.080   2.444 -0.9214  3.4583  0.1063
 6858TIP3    H242066   5.749   6.071   2.305  0.4404  1.7190 -0.3909
 6859TIP3   OH242067   0.421   3.159   2.013 -0.4568 -0.0406 -0.1736
 6859TIP3    H142068   0.437   3.069   1.983  1.1177 -0.0593  0.6388
 6859TIP3    H242069   0.339   3.153   2.062 -1.5915 -0.5554 -2.0625
 6860TIP3   OH242070   0.839   0.606   3.952  0.2585 -0.2670  0.0343
 6860TIP3    H142071   0.865   0.691   3.919  0.1965 -0.8982 -1.7047
 6860TIP3    H242072   0.854   0.612   4.047  2.9600  0.7234 -0.3650
 6861TIP3   OH242073   2.374   2.556   4.087 -0.0667 -0.4989  0.4873
 6861TIP3    H142074   2.387   2.530   3.996 -1.1193  0.7017 -0.0478
 6861TIP3    H242075   2.454   2.604   4.109 -0.5549  0.8372 -0.4662
 6862TIP3   OH242076   3.594   3.443   1.708  0.3466  0.2065  0.5689
 6862TIP3    H142077   3.507   3.469   1.678  0.8105  0.8553 -0.2733
 6862TIP3    H242078   3.586   3.436   1.803 -0.4319  1.0162  0.5806
 6863TIP3   OH242079   3.824   0.355   3.904  0.1453  0.3659 -0.1615
 6863TIP3    H142080   3.859   0.302   3.832  2.1615  2.9793 -1.2396
 6863TIP3    H242081   3.789   0.290   3.966  2.9440 -2.2806 -1.1076
 6864TIP3   OH242082   1.928   1.705  16.668  0.1528  0.2939  0.0836
 6864TIP3    H142083   2.023   1.711  16.678  0.1619 -0.2915  0.3600
 6864TIP3    H242084   1.895   1.694  16.757 -0.1874  0.6204  0.0026
 6865TIP3   OH242085   0.879   5.262  14.569  0.3776  0.0325 -0.2049
 6865TIP3    H142086   0.926   5.183  14.542  0.6648  0.7390 -1.8753
 6865TIP3    H242087   0.947   5.317  14.609  0.2058 -0.4850  0.8251
 6866TIP3   OH242088   6.217   3.512  12.747 -0.2388  0.0809  0.0055
 6866TIP3    H142089   6.191   3.501  12.655 -1.7274  2.2926  0.0819
 6866TIP3    H242090   6.173   3.592  12.775  1.9575  0.7184  2.0240
 6867TIP3   OH242091   0.978   1.355  13.046  0.0551  0.0638 -0.1315
 6867TIP3    H142092   1.021   1.428  13.091  1.0558 -0.7914  0.3213
 6867TIP3    H242093   1.016   1.354  12.959 -0.1595  0.2478 -0.2290
 6868TIP3   OH242094   3.639   4.013  16.508  0.4485  0.2935  0.0007
 6868TIP3    H142095   3.563   4.034  16.563  0.1609 -0.5900 -0.0424
 6868TIP3    H242096   3.639   3.917  16.503  1.0189  0.3241 -0.7707
 6869TIP3   OH242097   1.751   5.948   4.266  0.5878  0.6752  0.6512
 6869TIP3    H142098   1.708   5.865   4.283  2.4007 -0.0980  1.7451
 6869TIP3    H242099   1.690   5.996   4.210 -0.3696 -1.4899 -0.2616
 6870TIP3   OH242100   1.978   1.392  17.125 -0.2624  0.2966  0.2011
 6870TIP3    H142101   2.034   1.320  17.097 -2.3309 -1.1499 -0.4112
 6870TIP3    H242102   1.910   1.352  17.178 -1.3167  1.8204  0.0889
 6871TIP3   OH242103   6.588   3.806  11.599 -0.4546  0.3289 -1.0548
 6871TIP3    H142104   6.563   3.795  11.691 -0.4256  1.1296 -0.9425
 6871TIP3    H242105   6.609   3.718  11.569  0.2002  0.1390 -0.0941
 6872TIP3   OH242106   1.468   1.831   1.988 -0.7284  0.2503 -0.3077
 6872TIP3    H142107   1.414   1.756   1.964 -1.2941  0.9787 -1.3947
 6872TIP3    H242108   1.406   1.898   2.014 -0.3506  0.9387 -1.1191
 6873TIP3   OH242109   1.641   5.705  13.835 -0.3575  0.6154 -0.9468
 6873TIP3    H142110   1.613   5.789  13.798  0.1123  1.0176 -0.4033
 6873TIP3    H242111   1.689   5.663  13.763 -1.9356  0.0997 -1.7485
 6874TIP3   OH242112   4.165   6.828   3.327  0.3028  0.7280 -0.1926
 6874TIP3    H142113   4.259   6.845   3.326  0.4059  0.2021  0.1984
 6874TIP3    H242114   4.157   6.734   3.308  0.0643 -0.0297  3.1402
 6875TIP3   OH242115   1.695   6.258   5.684  0.0813  0.0334 -0.0413
 6875TIP3    H142116   1.644   6.295   5.756 -0.5106 -0.7219 -0.0582
 6875TIP3    H242117   1.767   6.213   5.726  0.2768  0.4079  0.0270
 6876TIP3   OH242118   6.312   5.008   5.451 -0.1129  0.2167 -0.1814
 6876TIP3    H142119   6.253   5.015   5.376 -0.2158 -0.1915 -0.1419
 6876TIP3    H242120   6.388   5.062   5.427 -0.4997  0.7472 -0.2291
 6877TIP3   OH242121   1.983   3.011  16.368  0.2085  0.4116  0.3077
 6877TIP3    H142122   1.997   3.104  16.349 -2.8237  0.4200 -3.0609
 6877TIP3    H242123   1.903   3.009  16.421 -0.3271 -0.2301 -0.4889
 6878TIP3   OH242124   2.830   2.050   5.024 -0.3668  0.7474  0.4971
 6878TIP3    H142125   2.910   2.008   4.993 -0.2378  0.0671  1.6973
 6878TIP3    H242126   2.759   1.995   4.991 -0.1657 -1.3460  3.2147
 6879TIP3   OH242127   2.337   3.388   5.324  0.1535 -0.0876  0.1139
 6879TIP3    H142128   2.410   3.348   5.371 -0.1687 -1.5201 -0.5268
 6879TIP3    H242129   2.317   3.326   5.253 -1.4176  0.4531  0.0273
 6880TIP3   OH242130   1.330   3.905   0.327  0.3428 -0.0026 -0.2108
 6880TIP3    H142131   1.378   3.938   0.251  1.9275 -0.4812  0.5201
 6880TIP3    H242132   1.343   3.811   0.324  0.5224 -0.0150  0.7075
 6881TIP3   OH242133   5.604   2.676   2.836  0.1162 -0.5540 -0.6635
 6881TIP3    H142134   5.691   2.638   2.846  0.3084  0.2587  1.2194
 6881TIP3    H242135   5.547   2.621   2.890  0.0688  0.6731  0.6069
 6882TIP3   OH242136   4.758   3.980   5.767  0.0008  0.0108  0.4236
 6882TIP3    H142137   4.786   3.903   5.816  1.2907  0.0347 -0.2082
 6882TIP3    H242138   4.752   4.049   5.833  0.0195 -0.3563  0.8165
 6883TIP3   OH242139   3.596   4.984  13.676 -0.3232 -0.1019  0.5997
 6883TIP3    H142140   3.631   5.053  13.733 -0.1473 -0.2855  0.7157
 6883TIP3    H242141   3.673   4.944  13.636 -0.3304 -0.9854  1.4111
 6884TIP3   OH242142   0.949   1.690  12.870 -0.4233  0.3652 -0.3107
 6884TIP3    H142143   0.891   1.640  12.926  0.6522 -0.2735  0.2551
 6884TIP3    H242144   0.950   1.778  12.909  0.0122  0.0306  0.4548
 6885TIP3   OH242145   2.645   4.799  15.958  0.4685  0.2963 -0.0019
 6885TIP3    H142146   2.626   4.762  15.871  2.0098  1.5763 -0.9420
 6885TIP3    H242147   2.730   4.760  15.981  0.2866  0.3300  0.7338
 6886TIP3   OH242148   4.115   1.605   2.478 -0.6515 -0.8166 -0.0683
 6886TIP3    H142149   4.039   1.661   2.495 -0.3424 -0.6868  0.9285
 6886TIP3    H242150   4.178   1.628   2.546 -0.6249 -2.5713  0.5457
 6887TIP3   OH242151   3.450   0.010  15.480  0.1065  0.1842  0.3704
 6887TIP3    H142152   3.425  -0.037  15.560  0.1366 -0.9140 -0.2338
 6887TIP3    H242153   3.528  -0.037  15.449 -0.2079  0.2716 -0.5637
 6888TIP3   OH242154   3.128   1.324   2.911  0.4116  0.1470 -0.1817
 6888TIP3    H142155   3.185   1.337   2.835 -1.5238  2.1234 -1.4248
 6888TIP3    H242156   3.069   1.399   2.910 -1.8163 -1.4321  1.3927
 6889TIP3   OH242157   0.426   0.153   0.901  0.1422  0.2687  0.3106
 6889TIP3    H142158   0.428   0.236   0.854  1.2778 -0.0757 -0.2886
 6889TIP3    H242159   0.415   0.086   0.833  1.1412 -0.1878  0.5630
 6890TIP3   OH242160   1.637   1.033  16.935  0.9867  0.0394 -0.0247
 6890TIP3    H142161   1.603   1.060  17.021  0.2818 -1.4234  0.1796
 6890TIP3    H242162   1.625   0.938  16.933  1.0218  0.0413 -1.7489
 6891TIP3   OH242163   0.214   3.209   4.257 -0.8163 -0.0150  0.2738
 6891TIP3    H142164   0.146   3.192   4.192 -0.5349 -1.6037  0.3667
 6891TIP3    H242165   0.284   3.252   4.209 -0.9360 -0.4694 -0.3149
 6892TIP3   OH242166   4.832   1.725   1.996  0.0055 -0.0523  0.1834
 6892TIP3    H142167   4.901   1.680   1.947  1.2489  0.8802  0.9974
 6892TIP3    H242168   4.776   1.656   2.028  2.0002 -1.1001  1.6218
 6893TIP3   OH242169   5.708   2.496  13.230  0.3452  0.0435 -0.0184
 6893TIP3    H142170   5.629   2.521  13.279  0.9308  0.9215  0.5182
 6893TIP3    H242171   5.685   2.511  13.138 -0.3246 -0.3278  0.0838
 6894TIP3   OH242172   0.020   4.090   2.694  0.3085  0.8047  0.4596
 6894TIP3    H142173  -0.058   4.108   2.641  1.8197  1.3710 -1.6978
 6894TIP3    H242174   0.015   4.153   2.766 -1.7145  0.1338  0.9672
 6895TIP3   OH242175   2.901   3.538  16.988 -0.6884  0.2010  0.2063
 6895TIP3    H142176   2.943   3.614  16.946 -0.9441  0.6606  0.7657
 6895TIP3    H242177   2.938   3.462  16.943 -0.5597  0.6653 -0.4825
 6896TIP3   OH242178   5.201   5.133   5.836 -0.7793 -0.2557 -0.1594
 6896TIP3    H142179   5.190   5.086   5.753 -2.0244 -0.2536 -0.0143
 6896TIP3    H242180   5.144   5.086   5.897  0.7809 -0.7988  0.9424
 6897TIP3   OH242181   1.450   6.743  12.181 -0.1207  0.6076 -0.3039
 6897TIP3    H142182   1.417   6.785  12.260 -0.1374  0.4588 -0.2324
 6897TIP3    H242183   1.545   6.744  12.191 -0.1348  0.2871 -0.1272
 6898TIP3   OH242184   4.628   0.481  12.687  0.2133  0.2597  0.1821
 6898TIP3    H142185   4.576   0.518  12.615  0.4984  0.7990  0.2480
 6898TIP3    H242186   4.569   0.484  12.763 -0.8294 -2.2230 -0.4381
 6899TIP3   OH242187   2.019   4.587   5.681  0.1276 -0.3348  0.5987
 6899TIP3    H142188   1.931   4.554   5.699  0.7614 -1.4963  1.6801
 6899TIP3    H242189   2.077   4.513   5.696  1.4043  0.6936  0.9772
 6900TIP3   OH242190   5.937   3.922  15.670 -0.0297  0.2828  0.6404
 6900TIP3    H142191   5.899   3.912  15.583  1.5822  1.2243 -0.2191
 6900TIP3    H242192   5.863   3.915  15.730 -1.2443  0.1295 -0.8284
 6901TIP3   OH242193   4.479   2.074   4.862 -0.3479  0.3687  0.3779
 6901TIP3    H142194   4.493   2.008   4.794 -2.1175  1.9757 -1.6818
 6901TIP3    H242195   4.565   2.112   4.877  0.2922 -0.8737 -0.0119
 6902TIP3   OH242196   5.383   1.736   0.799  0.2495 -0.4022  0.4356
 6902TIP3    H142197   5.346   1.753   0.712  0.2638 -1.6075  0.1785
 6902TIP3    H242198   5.359   1.813   0.850 -0.5263 -0.0663 -0.3996
 6903TIP3   OH242199   4.103   2.891   3.751  0.0924  0.3560  0.1030
 6903TIP3    H142200   4.028   2.924   3.801  0.3334  0.8367  0.1520
 6903TIP3    H242201   4.074   2.892   3.660 -0.0355  0.3395  0.1435
 6904TIP3   OH242202   1.723   2.852  13.546  0.1363 -0.0305  0.2093
 6904TIP3    H142203   1.674   2.770  13.535  0.0469  0.1061 -0.4837
 6904TIP3    H242204   1.804   2.838  13.497  1.5434 -0.8431  2.6358
 6905TIP3   OH242205   3.217   6.642  16.625 -0.1823  0.1565  0.1976
 6905TIP3    H142206   3.140   6.590  16.602 -0.7165  0.4668  1.2333
 6905TIP3    H242207   3.269   6.584  16.682 -0.8565  0.7764  1.4854
 6906TIP3   OH242208   0.952   0.072   4.990 -0.0382  0.5253 -0.3447
 6906TIP3    H142209   1.010   0.052   5.064  0.7441  1.5586 -0.6544
 6906TIP3    H242210   0.921  -0.013   4.960  2.9149 -0.2844 -1.4259
 6907TIP3   OH242211   2.318   3.540  11.652 -0.9152  0.0582 -0.0245
 6907TIP3    H142212   2.388   3.483  11.683  0.0008  1.1405 -0.0049
 6907TIP3    H242213   2.362   3.622  11.630 -1.9948  0.3293 -1.3058
 6908TIP3   OH242214   0.345   4.681  11.274 -0.5612 -0.4854 -0.1813
 6908TIP3    H142215   0.430   4.695  11.315  0.1328  1.7538 -2.1484
 6908TIP3    H242216   0.306   4.768  11.267 -0.7085 -0.6632 -3.8688
 6909TIP3   OH242217   4.479   5.106  16.047 -0.1479 -0.3220 -0.2399
 6909TIP3    H142218   4.512   5.064  16.126  3.2945  1.5611 -0.4868
 6909TIP3    H242219   4.483   5.038  15.979  0.9812 -0.8332  0.3141
 6910TIP3   OH242220   2.858   6.457  15.990 -0.1009  0.5222 -0.2710
 6910TIP3    H142221   2.868   6.550  16.011 -0.5043 -0.0225  2.8228
 6910TIP3    H242222   2.897   6.412  16.065 -1.6570 -1.7910 -0.7564
 6911TIP3   OH242223   0.357   2.877   0.005  0.7228  0.4830 -0.3089
 6911TIP3    H142224   0.445   2.897   0.035  0.1601 -0.0346  1.9030
 6911TIP3    H242225   0.366   2.797  -0.046  1.7756  1.5501 -1.8734
 6912TIP3   OH242226   6.747   1.690   3.869  0.6664  0.3027 -0.1556
 6912TIP3    H142227   6.759   1.753   3.798  1.7379  1.5397  1.0679
 6912TIP3    H242228   6.695   1.619   3.830 -0.0556  1.6418 -1.7427
 6913TIP3   OH242229   6.414   4.754  13.677  0.0310  0.6411  0.0322
 6913TIP3    H142230   6.442   4.817  13.610 -1.4073  0.1774 -1.0800
 6913TIP3    H242231   6.490   4.698  13.690 -0.1578 -0.4580 -2.7211
 6914TIP3   OH242232   0.107   6.115   1.237 -0.0600  0.4332 -0.8237
 6914TIP3    H142233   0.127   6.186   1.299 -1.1874 -0.2836  0.4070
 6914TIP3    H242234   0.193   6.084   1.208  0.4619  2.3768 -1.5034
 6915TIP3   OH242235   6.701   6.762   3.631  1.0883 -0.6179 -0.4427
 6915TIP3    H142236   6.678   6.675   3.597  0.5255  0.1542 -2.1636
 6915TIP3    H242237   6.632   6.781   3.694  1.4104 -1.5458  0.2181
 6916TIP3   OH242238   0.368   2.286   5.002 -0.9220 -0.5390  0.5030
 6916TIP3    H142239   0.435   2.347   5.033 -0.1493 -1.4176  0.6527
 6916TIP3    H242240   0.381   2.282   4.908 -1.6748  0.3122  0.3531
 6917TIP3   OH242241   5.143   1.970   0.404 -0.6702  0.0556 -0.5630
 6917TIP3    H142242   5.162   2.049   0.352  2.7844 -0.5835 -0.4568
 6917TIP3    H242243   5.125   2.003   0.492  0.3829  0.7535 -0.6012
 6918TIP3   OH242244   6.309   6.726   3.168 -0.2546 -0.2966 -0.6683
 6918TIP3    H142245   6.296   6.682   3.252 -1.0858 -0.5223 -0.9069
 6918TIP3    H242246   6.400   6.756   3.171  0.2255 -1.7045 -0.3617
 6919TIP3   OH242247   4.305   5.390   3.754 -0.2290 -0.0272 -0.2657
 6919TIP3    H142248   4.344   5.326   3.813 -0.2030 -0.4427 -0.7289
 6919TIP3    H242249   4.221   5.411   3.793 -0.3234 -0.4935 -0.2134
 6920TIP3   OH242250   2.720   1.352   3.587  0.1143 -0.2681 -0.6231
 6920TIP3    H142251   2.693   1.317   3.502  2.3227 -0.4197 -1.3255
 6920TIP3    H242252   2.667   1.431   3.599 -0.3561 -0.3388 -2.0485
 6921TIP3   OH242253   5.979   2.112  16.356  0.0077  0.0363 -0.5664
 6921TIP3    H142254   5.893   2.148  16.332 -0.2350 -0.6016 -0.6832
 6921TIP3    H242255   5.959   2.050  16.426  0.4517  0.3002 -0.1999
 6922TIP3   OH242256   4.698   1.357  13.581 -0.7518 -0.2373  0.1076
 6922TIP3    H142257   4.721   1.389  13.494  0.9324 -1.1181  0.1878
 6922TIP3    H242258   4.747   1.275  13.590 -1.8721 -0.7983  1.4100
 6923TIP3   OH242259   3.546   3.385  15.843 -0.1397  0.1122  0.2619
 6923TIP3    H142260   3.497   3.458  15.881 -0.4315 -1.5844  3.4622
 6923TIP3    H242261   3.591   3.423  15.767 -2.3486  2.9258  0.2014
 6924TIP3   OH242262   5.520   3.643  12.157 -0.3698  0.8685 -0.1867
 6924TIP3    H142263   5.563   3.613  12.237  4.4233  0.1122 -2.6656
 6924TIP3    H242264   5.483   3.564  12.118  0.4297  0.5659 -0.3539
 6925TIP3   OH242265   3.798   6.612  11.035  0.0689  0.0289 -0.3021
 6925TIP3    H142266   3.714   6.593  11.076  0.1265  0.7458  0.1523
 6925TIP3    H242267   3.799   6.556  10.958 -0.1572 -1.1390  0.5137
 6926TIP3   OH242268   4.272   6.283  14.105 -0.7193 -0.2616  0.2479
 6926TIP3    H142269   4.244   6.203  14.061 -0.6060  0.1831 -0.6691
 6926TIP3    H242270   4.245   6.353  14.046  0.8642  0.2740  0.0930
 6927TIP3   OH242271   5.549   4.855   4.750  0.6310 -0.3514  0.2966
 6927TIP3    H142272   5.615   4.806   4.700 -0.3107  0.1127 -1.5094
 6927TIP3    H242273   5.472   4.798   4.749 -0.2413  0.7574 -1.1852
 6928TIP3   OH242274   4.461   6.698   3.099  0.1277  0.3909  0.1507
 6928TIP3    H142275   4.553   6.677   3.082  0.6666  0.7597  2.2890
 6928TIP3    H242276   4.461   6.737   3.186 -1.8262  2.2055 -0.5667
 6929TIP3   OH242277   1.106   1.283   4.352 -0.5932  0.2778 -0.3530
 6929TIP3    H142278   1.110   1.195   4.313  2.8501  0.1737 -0.1075
 6929TIP3    H242279   1.117   1.268   4.446 -1.4849  0.9173 -0.1357
 6930TIP3   OH242280   0.921   0.632   4.222 -0.2788 -0.2916  0.1699
 6930TIP3    H142281   0.998   0.688   4.235 -0.1354 -0.3866 -0.2411
 6930TIP3    H242282   0.866   0.650   4.297  0.0354 -0.0352  0.3446
 6931TIP3   OH242283   4.685   2.262  11.095  0.2654 -0.1567  0.0219
 6931TIP3    H142284   4.685   2.210  11.015 -0.1320  0.4632 -0.3915
 6931TIP3    H242285   4.777   2.275  11.116  0.3817  0.0786 -0.6099
 6932TIP3   OH242286   1.534   1.644   1.286 -0.4007 -0.2948  0.3165
 6932TIP3    H142287   1.543   1.651   1.191 -0.1534  1.9441  0.4377
 6932TIP3    H242288   1.606   1.587   1.314  1.5126  1.5571 -0.5902
 6933TIP3   OH242289   5.602   4.375   4.265  0.4710 -0.0330 -0.3224
 6933TIP3    H142290   5.585   4.469   4.270 -1.1599 -0.3369  0.6508
 6933TIP3    H242291   5.627   4.350   4.354  0.5848 -0.5715 -0.4984
 6934TIP3   OH242292   3.774   1.339  15.282 -0.5252 -0.0650  0.1096
 6934TIP3    H142293   3.713   1.315  15.212  0.4894  1.3466 -1.3105
 6934TIP3    H242294   3.746   1.426  15.310 -0.4561 -0.3040  0.9767
 6935TIP3   OH242295   4.778   0.690   5.866  0.0439  0.3887 -0.4394
 6935TIP3    H142296   4.686   0.663   5.860 -0.3569  1.4405  0.4427
 6935TIP3    H242297   4.795   0.694   5.961  0.9858  0.2618 -0.5974
 6936TIP3   OH242298   6.653   2.675   1.626  0.3690 -0.5461 -0.1579
 6936TIP3    H142299   6.732   2.726   1.608 -0.3747  0.3655 -0.9753
 6936TIP3    H242300   6.634   2.629   1.545 -0.2129 -0.3481 -0.1431
 6937TIP3   OH242301   1.654   2.033   6.401 -0.2269 -0.0837  0.0607
 6937TIP3    H142302   1.561   2.029   6.423 -0.1999 -1.6200 -0.0397
 6937TIP3    H242303   1.698   1.995   6.477  0.5186  2.3843  0.9792
 6938TIP3   OH242304   0.651   1.053  16.613  0.1113 -0.0310  0.0407
 6938TIP3    H142305   0.578   1.041  16.552 -0.2375 -0.9822  0.6250
 6938TIP3    H242306   0.681   0.964  16.632 -1.0135  0.0429  2.6953
 6939TIP3   OH242307   2.240   4.596   6.288  0.1313 -0.1704  0.6767
 6939TIP3    H142308   2.312   4.564   6.234  0.7659  1.4020  0.5366
 6939TIP3    H242309   2.180   4.522   6.294 -0.1735 -0.3166 -2.5267
 6940TIP3   OH242310   0.665   5.422   4.009  0.7074 -0.0286  0.3317
 6940TIP3    H142311   0.690   5.514   4.015  2.0659 -0.3329 -0.1940
 6940TIP3    H242312   0.674   5.400   3.916  0.2116 -0.6485  0.4212
 6941TIP3   OH242313   3.596   3.404  14.944  0.0199 -0.5306 -0.7157
 6941TIP3    H142314   3.504   3.381  14.933  0.0770 -0.9187 -0.4281
 6941TIP3    H242315   3.596   3.499  14.955 -0.3155 -0.4916 -1.0230
 6942TIP3   OH242316   1.738   5.591  13.596 -0.0887 -0.8277 -0.0742
 6942TIP3    H142317   1.826   5.555  13.595  0.7378  1.1015 -0.0668
 6942TIP3    H242318   1.681   5.514  13.587  1.5714 -2.0839 -0.3518
 6943TIP3   OH242319   5.557   4.541  16.160  0.3300  0.6841  0.0347
 6943TIP3    H142320   5.471   4.498  16.160  0.9556 -0.6075  0.7101
 6943TIP3    H242321   5.545   4.618  16.103 -1.2550  0.5175  0.0986
 6944TIP3   OH242322   1.723   6.332  11.297 -0.2010 -0.1931 -0.8541
 6944TIP3    H142323   1.656   6.343  11.364 -1.4102  0.9383 -2.1840
 6944TIP3    H242324   1.784   6.269  11.335 -0.7912  0.4487  1.3082
 6945TIP3   OH242325   4.420   5.313   2.479 -0.0460  0.0393  0.1867
 6945TIP3    H142326   4.396   5.231   2.523 -1.3578  1.2594  1.8511
 6945TIP3    H242327   4.349   5.373   2.499  0.6815  1.5071 -1.3482
 6946TIP3   OH242328   5.674   2.282  15.032  0.6088 -0.2187 -0.5054
 6946TIP3    H142329   5.677   2.369  14.992 -1.4353 -0.1253 -0.5852
 6946TIP3    H242330   5.693   2.222  14.960 -0.3822  0.0762 -1.0383
 6947TIP3   OH242331   0.462   4.708   5.507 -0.4526  0.1972  0.3407
 6947TIP3    H142332   0.481   4.732   5.416  0.0451  0.9597  0.6376
 6947TIP3    H242333   0.523   4.761   5.559  0.0672 -1.0922  1.0693
 6948TIP3   OH242334   6.625   6.055   3.564  0.3601 -0.2708  0.0509
 6948TIP3    H142335   6.578   6.082   3.484 -0.2803 -0.1001  0.4725
 6948TIP3    H242336   6.650   5.964   3.547 -2.0830 -1.1450  0.6380
 6949TIP3   OH242337   4.555   2.310   4.284 -0.4804  0.0842 -0.3141
 6949TIP3    H142338   4.586   2.359   4.208  1.4773  1.7635  1.4433
 6949TIP3    H242339   4.629   2.312   4.346 -2.1909 -0.6246  1.8876
 6950TIP3   OH242340   0.155   0.425  16.074  0.4523 -0.3732  0.4034
 6950TIP3    H142341   0.177   0.411  16.166 -0.3557  0.4635  0.7412
 6950TIP3    H242342   0.114   0.343  16.046  1.1766 -0.8200  0.6292
 6951TIP3   OH242343   1.566   4.655   2.959 -0.2589  0.2531  0.4972
 6951TIP3    H142344   1.624   4.613   3.023 -1.1021 -1.2915  0.3072
 6951TIP3    H242345   1.606   4.634   2.874  0.2474  1.3370  0.4580
 6952TIP3   OH242346   5.726   2.805  16.791  0.0478 -0.1199 -0.1192
 6952TIP3    H142347   5.758   2.759  16.713  1.6672 -0.2445  0.5775
 6952TIP3    H242348   5.762   2.893  16.783 -1.3678  0.4505 -0.4380
 6953TIP3   OH242349   4.757   2.436   1.880  0.3641 -0.2514 -0.0151
 6953TIP3    H142350   4.847   2.469   1.874  0.3900 -0.4865 -1.2586
 6953TIP3    H242351   4.761   2.349   1.841 -0.2648 -0.5795  0.6233
 6954TIP3   OH242352   0.670   4.011   2.228  0.4615  0.5397  0.1734
 6954TIP3    H142353   0.630   4.074   2.288 -1.0951  0.3153 -0.5765
 6954TIP3    H242354   0.618   3.931   2.238  1.9664 -0.4334  0.5897
 6955TIP3   OH242355   3.443   5.252   0.198 -0.4913  0.2754 -0.1981
 6955TIP3    H142356   3.382   5.287   0.133  0.8341  1.6955 -0.7370
 6955TIP3    H242357   3.426   5.303   0.277  1.6865  2.6157 -1.0833
 6956TIP3   OH242358   0.623   0.212   4.387 -0.0340  0.6585  0.4030
 6956TIP3    H142359   0.550   0.274   4.381 -0.9235 -0.4853 -1.4705
 6956TIP3    H242360   0.603   0.145   4.322  0.5089 -2.0168  2.7864
 6957TIP3   OH242361   1.047   2.596   6.518  0.0457  0.4015 -0.3257
 6957TIP3    H142362   0.996   2.668   6.482 -1.1943  0.0032  0.5455
 6957TIP3    H242363   1.095   2.634   6.591  0.2653  0.5813 -0.5631
 6958TIP3   OH242364   2.283   2.383  11.002 -0.2876 -0.7676  0.3223
 6958TIP3    H142365   2.355   2.358  10.945  0.4765 -0.2273  1.0279
 6958TIP3    H242366   2.281   2.479  10.996  0.5621 -0.6000  2.0643
 6959TIP3   OH242367   3.782   4.296  14.382 -0.2862  0.1534  0.6452
 6959TIP3    H142368   3.860   4.251  14.349 -0.9888  0.0397 -0.9685
 6959TIP3    H242369   3.779   4.378  14.333 -1.4482 -0.0844  0.2709
 6960TIP3   OH242370   5.017   2.707   0.579  0.7349  0.4439 -0.2184
 6960TIP3    H142371   4.946   2.648   0.556 -1.2508  2.5386  0.1566
 6960TIP3    H242372   5.061   2.725   0.496  2.1622 -2.3599 -0.1781
 6961TIP3   OH242373   5.381   2.770  15.350  0.3560  0.8194 -0.3460
 6961TIP3    H142374   5.286   2.760  15.341  0.4568  0.2428 -0.8416
 6961TIP3    H242375   5.400   2.736  15.437  0.1659  0.5105 -0.4237
 6962TIP3   OH242376   1.719   6.017   2.277 -0.2302  0.2190 -0.1676
 6962TIP3    H142377   1.749   6.062   2.198  0.7017 -0.2131 -0.0764
 6962TIP3    H242378   1.771   5.936   2.280 -0.0552  0.3526  1.0302
 6963TIP3   OH242379   3.979   3.794  13.822 -0.5867 -0.1593 -0.0158
 6963TIP3    H142380   3.994   3.865  13.760  2.1916 -1.1794 -0.6628
 6963TIP3    H242381   4.008   3.715  13.775 -2.7226 -1.6530  0.9907
 6964TIP3   OH242382   0.884   3.238   5.747 -0.2178  0.5209  0.1059
 6964TIP3    H142383   0.798   3.209   5.717 -0.5800  2.4894 -0.9242
 6964TIP3    H242384   0.938   3.159   5.747 -0.6203  0.0316 -4.3231
 6965TIP3   OH242385   5.636   3.832  16.814 -0.1143 -0.1914  0.5973
 6965TIP3    H142386   5.706   3.796  16.760 -0.6201  0.7955 -0.7684
 6965TIP3    H242387   5.642   3.783  16.896  1.6656 -0.6611  0.2359
 6966TIP3   OH242388   4.529   3.437   1.210 -0.2788 -0.0022 -0.5716
 6966TIP3    H142389   4.514   3.354   1.165  2.9872 -1.7896  1.2786
 6966TIP3    H242390   4.596   3.481   1.158 -0.5442  0.5374 -0.4639
 6967TIP3   OH242391   2.306   3.404  16.889  0.1925  0.1394  0.0230
 6967TIP3    H142392   2.263   3.335  16.939  1.6866 -1.1261 -0.3661
 6967TIP3    H242393   2.397   3.403  16.918  0.2958  1.8447 -0.1283
 6968TIP3   OH242394   6.410   3.208  13.316  0.0803  0.1006  0.1201
 6968TIP3    H142395   6.404   3.184  13.223  0.2106  1.8850 -0.3799
 6968TIP3    H242396   6.480   3.153  13.350 -1.1877 -1.9332 -0.3452
 6969TIP3   OH242397   3.584   3.527   2.630 -0.3479 -0.2767 -0.0473
 6969TIP3    H142398   3.662   3.582   2.638 -0.7289  0.0474  1.9968
 6969TIP3    H242399   3.545   3.553   2.546  0.9711  0.5600 -0.4384
 6970TIP3   OH242400   1.814   2.819   0.906 -0.2477  0.3918 -0.2302
 6970TIP3    H142401   1.761   2.835   0.984 -3.0681 -1.3379 -1.6323
 6970TIP3    H242402   1.751   2.824   0.834  1.5818 -1.5190 -2.0577
 6971TIP3   OH242403   6.164   4.328  13.698 -0.0556  0.1469 -0.4652
 6971TIP3    H142404   6.256   4.351  13.686  0.0063  0.1811  0.0502
 6971TIP3    H242405   6.156   4.241  13.658 -0.3463  1.1066 -2.6468
 6972TIP3   OH242406   4.815   0.035  12.997  0.2182  0.2338 -0.1288
 6972TIP3    H142407   4.801   0.050  13.090 -0.2062  2.2671 -0.4734
 6972TIP3    H242408   4.812   0.122  12.958 -0.0689 -0.6164 -2.1122
 6973TIP3   OH242409   3.160   4.400   1.740 -0.0144  0.1064 -0.6437
 6973TIP3    H142410   3.083   4.435   1.696 -0.8516  0.0191  0.6913
 6973TIP3    H242411   3.127   4.368   1.824  1.0350 -2.2249 -1.0461
 6974TIP3   OH242412   6.226   5.236   5.619  0.5616 -0.0315 -0.2575
 6974TIP3    H142413   6.318   5.250   5.641  0.9389  0.7452 -2.1163
 6974TIP3    H242414   6.225   5.155   5.568  0.3311  0.3594 -0.8822
 6975TIP3   OH242415   6.732   1.022   3.851 -0.3748  0.0775  0.0800
 6975TIP3    H142416   6.819   1.046   3.884 -1.2018 -0.0509  2.5282
 6975TIP3    H242417   6.749   0.949   3.791  1.0293 -2.1326  2.9253
 6976TIP3   OH242418   4.555   2.841   4.487 -0.0597 -0.0696 -0.2241
 6976TIP3    H142419   4.575   2.929   4.521  2.0605 -0.7267  0.3804
 6976TIP3    H242420   4.591   2.841   4.399  1.7286 -0.9268  0.4774
 6977TIP3   OH242421   6.426   0.723  11.807  0.2243 -0.4618  0.1664
 6977TIP3    H142422   6.441   0.658  11.875 -0.9692  0.8379  1.7324
 6977TIP3    H242423   6.373   0.676  11.742 -0.5777 -1.0779  1.2346
 6978TIP3   OH242424   1.361   5.879   0.020  0.3371  1.0573  0.8394
 6978TIP3    H142425   1.286   5.823   0.041 -1.7604  3.3379 -0.0097
 6978TIP3    H242426   1.411   5.830  -0.045 -2.1373  0.6345 -0.8749
 6979TIP3   OH242427   6.054   2.899  15.481  0.2044 -0.3720  0.5555
 6979TIP3    H142428   5.993   2.923  15.411 -0.3187  2.0490  1.7058
 6979TIP3    H242429   6.131   2.865  15.436 -0.5056  0.1454 -1.1398
 6980TIP3   OH242430   1.481   5.509  16.760 -0.0472  0.1614  0.4511
 6980TIP3    H142431   1.520   5.422  16.770  0.6378  0.1256 -1.9218
 6980TIP3    H242432   1.544   5.568  16.802  0.3197 -0.3348  0.6086
 6981TIP3   OH242433   0.836   1.800   1.088 -0.7597  0.1965 -0.2979
 6981TIP3    H142434   0.747   1.815   1.054 -1.5641 -2.4361  0.4191
 6981TIP3    H242435   0.837   1.846   1.172 -1.2639  0.7027 -0.5615
 6982TIP3   OH242436   5.172   4.300   1.621  0.0058 -0.3787 -0.5347
 6982TIP3    H142437   5.220   4.253   1.553 -1.3117 -0.6269 -1.3327
 6982TIP3    H242438   5.082   4.304   1.588 -0.7242 -0.7266  1.3165
 6983TIP3   OH242439   5.826   0.688   5.500 -0.0510 -0.6260  0.3520
 6983TIP3    H142440   5.778   0.622   5.551  0.5416 -0.9907  0.4399
 6983TIP3    H242441   5.757   0.747   5.468 -0.7402 -2.0280 -0.8557
 6984TIP3   OH242442   5.058   0.008  15.154  0.4789  0.4006  0.2054
 6984TIP3    H142443   4.977  -0.019  15.111 -0.3503  3.9450 -0.7911
 6984TIP3    H242444   5.043  -0.011  15.247  0.3668 -2.9545 -0.3707
 6985TIP3   OH242445   6.245   0.860  13.218  0.0295 -0.9835  0.9600
 6985TIP3    H142446   6.193   0.790  13.256  2.6385 -2.2983  2.3537
 6985TIP3    H242447   6.226   0.856  13.125 -1.2795 -2.2983  1.2433
 6986TIP3   OH242448   3.326   2.998  15.013 -0.5808  0.4285  0.3369
 6986TIP3    H142449   3.388   2.942  15.059 -2.2648 -2.5800 -0.7622
 6986TIP3    H242450   3.358   3.087  15.027  2.4106 -0.7852  1.9971
 6987TIP3   OH242451   4.315   2.814   2.537 -0.6856 -0.1706  0.2623
 6987TIP3    H142452   4.302   2.728   2.496 -0.4921 -0.4097  0.6864
 6987TIP3    H242453   4.285   2.877   2.472  0.0731 -0.5182 -0.4439
 6988TIP3   OH242454   3.618   5.881  13.994 -0.2428  0.4762 -1.0434
 6988TIP3    H142455   3.712   5.868  13.999 -0.2476  0.9223  2.0656
 6988TIP3    H242456   3.583   5.838  14.072 -2.4483  1.5278 -1.3681
 6989TIP3   OH242457   0.700   2.977  13.100 -0.1438 -0.1161 -0.0550
 6989TIP3    H142458   0.788   3.009  13.122  0.5249 -0.8994 -1.4600
 6989TIP3    H242459   0.675   3.027  13.022 -0.4423 -0.7049 -0.3475
 6990TIP3   OH242460   5.545   0.518   5.154  0.1911  0.3041 -0.0723
 6990TIP3    H142461   5.605   0.467   5.100 -1.3481 -0.6737 -0.9383
 6990TIP3    H242462   5.550   0.477   5.240 -1.2956 -1.6742 -0.8341
 6991TIP3   OH242463   3.387   3.082   5.391  0.2837 -0.3584  0.1983
 6991TIP3    H142464   3.315   3.132   5.429 -0.4032 -0.0691 -1.4129
 6991TIP3    H242465   3.460   3.095   5.452 -0.7588  0.1104  1.3652
 6992TIP3   OH242466   3.663   3.238   3.706  0.1361  0.3211  0.5045
 6992TIP3    H142467   3.607   3.255   3.781  2.6012 -0.8194  2.7773
 6992TIP3    H242468   3.695   3.324   3.679 -1.3371  0.8112  0.1926
 6993TIP3   OH242469   2.934   3.055   2.063  0.4571  0.0953 -0.6003
 6993TIP3    H142470   2.988   3.029   2.138 -1.5174 -0.2054  0.8072
 6993TIP3    H242471   2.880   2.978   2.045  0.2721  0.4845 -1.7541
 6994TIP3   OH242472   2.114   4.578  10.820  0.1199 -0.1603  0.1866
 6994TIP3    H142473   2.090   4.662  10.782 -0.0795  0.1103  0.8935
 6994TIP3    H242474   2.060   4.514  10.773 -0.4276  0.2158  0.2949
 6995TIP3   OH242475   2.697   4.181  14.518 -0.4897  0.0072 -0.3978
 6995TIP3    H142476   2.684   4.093  14.554  0.4863 -1.0475 -2.4511
 6995TIP3    H242477   2.733   4.232  14.591 -1.8911 -1.0219  1.0780
 6996TIP3   OH242478   0.642   4.635   2.935  0.0959 -0.3670  0.0964
 6996TIP3    H142479   0.734   4.607   2.931  0.2424  0.0864  0.2325
 6996TIP3    H242480   0.595   4.570   2.883  0.5421 -0.4174 -0.2498
 6997TIP3   OH242481   1.996   1.451   1.148  0.6797  0.1734 -0.1548
 6997TIP3    H142482   2.049   1.380   1.113  1.0428  1.3170 -2.0703
 6997TIP3    H242483   1.986   1.430   1.241  0.5869 -2.4626 -0.6834
 6998TIP3   OH242484   3.363   3.401  15.341  0.3291  0.0243  0.1838
 6998TIP3    H142485   3.443   3.386  15.390  0.3823 -1.2087 -0.2473
 6998TIP3    H242486   3.293   3.392  15.406  0.4490 -0.6358  0.2214
 6999TIP3   OH242487   2.960   4.809   5.194  0.1306 -0.5161 -0.4379
 6999TIP3    H142488   2.887   4.864   5.223 -0.8280 -2.8465  1.9816
 6999TIP3    H242489   2.933   4.779   5.107 -1.9337 -1.3279  0.3874
 7000TIP3   OH242490   1.555   2.516  12.749  0.0571  0.7232  0.1903
 7000TIP3    H142491   1.493   2.446  12.729  0.9284  0.0546 -0.3009
 7000TIP3    H242492   1.513   2.596  12.718 -1.5604  0.6408  2.0281
 7001TIP3   OH242493   3.925   1.926   2.683 -0.0183 -0.1146 -0.8523
 7001TIP3    H142494   3.963   1.896   2.765 -0.8529 -0.5939 -0.6279
 7001TIP3    H242495   3.875   2.004   2.706  1.5746  1.0898 -1.3144
 7002TIP3   OH242496   2.827   1.521   2.894 -0.4519 -0.0882  0.3558
 7002TIP3    H142497   2.789   1.454   2.951  0.8320 -0.1695  1.1739
 7002TIP3    H242498   2.796   1.499   2.806 -0.0178 -1.8040  0.5985
 7003TIP3   OH242499   5.576   3.005  16.348  0.5707  0.4750  0.3611
 7003TIP3    H142500   5.544   2.931  16.399 -0.2538 -1.9114 -3.2661
 7003TIP3    H242501   5.624   2.966  16.275  0.8197  3.5495 -1.3173
 7004TIP3   OH242502   2.619   3.777   6.047  0.2661  0.1386  0.7172
 7004TIP3    H142503   2.622   3.726   6.127 -0.7260  1.7657  1.8627
 7004TIP3    H242504   2.703   3.824   6.044  0.7609 -0.7480  0.1872
 7005TIP3   OH242505   2.224   0.716   5.114  0.3807  0.0337  0.0496
 7005TIP3    H142506   2.159   0.696   5.046 -0.6322  0.0022  0.9884
 7005TIP3    H242507   2.216   0.644   5.176 -1.0329  1.6261  1.8315
 7006TIP3   OH242508   2.903   0.481  12.429 -0.0589 -0.2676  0.1126
 7006TIP3    H142509   2.976   0.448  12.483  0.0580 -0.3542 -0.0987
 7006TIP3    H242510   2.896   0.418  12.358  2.0748  1.6615 -1.9711
 7007TIP3   OH242511   6.296   5.226  15.478 -0.1833  0.3652  0.3841
 7007TIP3    H142512   6.359   5.156  15.461 -1.1846 -0.8769  1.4810
 7007TIP3    H242513   6.334   5.275  15.551  0.3474  0.7340 -0.1383
 7008TIP3   OH242514   1.120   0.674  17.202  0.3771 -0.2410  1.0917
 7008TIP3    H142515   1.044   0.643  17.152  1.2388  1.3108 -1.3446
 7008TIP3    H242516   1.097   0.763  17.228  1.9368  0.9573 -1.2577
 7009TIP3   OH242517   2.951   2.506   4.928  0.3075  0.8519 -0.0089
 7009TIP3    H142518   2.974   2.414   4.911  0.9871  1.0524 -0.1972
 7009TIP3    H242519   2.916   2.505   5.018  0.5039  0.4407  0.0683
 7010TIP3   OH242520   4.070   3.210   0.546  0.6207  0.3620 -0.0677
 7010TIP3    H142521   4.013   3.182   0.475 -0.8991  1.2193  0.7633
 7010TIP3    H242522   4.114   3.289   0.512  0.5797  0.2536 -0.3719
 7011TIP3   OH242523   5.265   5.333   3.622  0.6479 -0.0776  0.2138
 7011TIP3    H142524   5.213   5.325   3.702 -0.6356 -0.8060 -0.6564
 7011TIP3    H242525   5.283   5.242   3.595 -0.9686  0.0600 -1.5615
 7012TIP3   OH242526   6.651   3.362  12.637 -0.1784 -0.1166  0.1040
 7012TIP3    H142527   6.569   3.313  12.628 -0.2151 -0.0029 -0.1868
 7012TIP3    H242528   6.663   3.404  12.553  0.0651  0.0498  0.2216
 7013TIP3   OH242529   2.809   2.479  16.968  0.2167  0.1758  0.1229
 7013TIP3    H142530   2.795   2.563  17.013 -0.0485 -0.4501  1.2576
 7013TIP3    H242531   2.732   2.468  16.913  0.5368  0.9530 -0.4995
 7014TIP3   OH242532   3.166   1.883   2.307  0.5111 -0.1109  0.6654
 7014TIP3    H142533   3.152   1.959   2.250  0.0034 -0.3856  0.4150
 7014TIP3    H242534   3.260   1.879   2.320  0.4664  1.2105  1.5695
 7015TIP3   OH242535   4.785   4.702   1.056 -0.6735  0.6128  0.0352
 7015TIP3    H142536   4.812   4.687   1.147  1.1525  0.1788 -0.5271
 7015TIP3    H242537   4.762   4.795   1.052 -3.1027  0.1623  1.4468
 7016TIP3   OH242538   0.650   2.659  11.623 -0.0129 -0.2974  0.1152
 7016TIP3    H142539   0.722   2.629  11.679 -0.1096 -0.4237  0.1713
 7016TIP3    H242540   0.690   2.669  11.537 -0.2631 -1.8336 -0.2050
 7017TIP3   OH242541   5.184   1.538  14.431  0.3814 -0.3897  0.5182
 7017TIP3    H142542   5.130   1.610  14.465 -0.4822  0.1744 -1.8267
 7017TIP3    H242543   5.272   1.558  14.462 -0.5481 -1.0277  3.9878
 7018TIP3   OH242544   6.257   0.034   0.618 -0.0528  0.2859  0.5942
 7018TIP3    H142545   6.195   0.107   0.617 -0.5109 -0.0204  2.6891
 7018TIP3    H242546   6.337   0.070   0.579 -1.1669  0.9956 -1.1650
 7019TIP3   OH242547   3.438   3.816  13.520  0.2113  0.9780  0.1525
 7019TIP3    H142548   3.506   3.843  13.457 -0.7156  0.7028 -1.0049
 7019TIP3    H242549   3.419   3.896  13.570  0.0712  1.5399 -0.7725
 7020TIP3   OH242550   4.349   3.436  11.925 -0.3963  0.2057 -0.1834
 7020TIP3    H142551   4.443   3.437  11.903 -0.7474 -3.3784 -2.7873
 7020TIP3    H242552   4.309   3.495  11.861 -0.3772 -3.1700 -3.6915
 7021TIP3   OH242553   3.725   1.706   5.899  0.1162 -0.2240  0.2415
 7021TIP3    H142554   3.743   1.709   5.993  1.0881  0.4433  0.0466
 7021TIP3    H242555   3.774   1.629   5.868 -2.7847 -2.4515  0.7600
 7022TIP3   OH242556   1.426   2.212   3.407  0.1016 -0.1120  0.1919
 7022TIP3    H142557   1.510   2.230   3.450  0.7228 -0.8994 -0.6603
 7022TIP3    H242558   1.431   2.120   3.382  0.0245  0.4300 -2.0548
 7023TIP3   OH242559   0.535   2.145   5.432  0.1678  0.1750  0.5257
 7023TIP3    H142560   0.477   2.132   5.358  0.8471 -0.0937  0.0292
 7023TIP3    H242561   0.623   2.147   5.394  0.5233  0.0778  1.3135
 7024TIP3   OH242562   5.905   3.775   5.003 -0.4087  0.4453  0.3040
 7024TIP3    H142563   5.920   3.683   4.982  1.2836  0.7045  0.2287
 7024TIP3    H242564   5.859   3.773   5.087 -0.3069 -0.4691  0.3472
 7025TIP3   OH242565   5.081   2.317  13.598  0.4136  0.7190  0.1407
 7025TIP3    H142566   5.129   2.254  13.543 -1.9004  1.5068 -3.1373
 7025TIP3    H242567   5.133   2.397  13.594  1.5343  0.0714  1.2692
 7026TIP3   OH242568   3.774   4.705   0.020 -0.2107  0.9028  0.1900
 7026TIP3    H142569   3.853   4.754   0.042  0.2687  0.3892 -0.3429
 7026TIP3    H242570   3.806   4.627  -0.027 -0.7963 -0.9459  2.6503
 7027TIP3   OH242571   4.976   1.542   4.095  0.5702  0.4473  0.5151
 7027TIP3    H142572   4.957   1.449   4.105 -0.0617  0.5767  0.6120
 7027TIP3    H242573   5.070   1.550   4.107  0.8101 -0.3370 -0.6790
 7028TIP3   OH242574   5.555   3.016  12.487  0.4312 -0.3039 -0.2846
 7028TIP3    H142575   5.481   2.956  12.486 -1.2863  1.6871  0.7768
 7028TIP3    H242576   5.555   3.053  12.575  1.0253  1.6917 -1.0603
 7029TIP3   OH242577   5.375   6.191   5.436 -0.2219 -0.0598  0.4307
 7029TIP3    H142578   5.291   6.236   5.439  0.4809  1.6776 -2.3270
 7029TIP3    H242579   5.354   6.101   5.412 -1.2879  0.5254 -0.9491
 7030TIP3   OH242580   0.856   1.047   4.448 -0.2191  0.4475 -0.0300
 7030TIP3    H142581   0.857   1.041   4.352  1.2792  2.8303 -0.2477
 7030TIP3    H242582   0.779   1.100   4.468 -0.0834  0.6247  0.0228
 7031TIP3   OH242583   4.593   3.382  14.776 -0.2935 -0.1226  0.1331
 7031TIP3    H142584   4.621   3.470  14.751  2.5616 -1.0252 -0.1708
 7031TIP3    H242585   4.501   3.393  14.801 -0.1587  2.8466 -0.2730
 7032TIP3   OH242586   1.566   1.907   5.356 -0.2336  0.1979 -0.3325
 7032TIP3    H142587   1.476   1.940   5.358 -1.1772 -2.1702  0.0338
 7032TIP3    H242588   1.566   1.836   5.421  1.2490 -1.3857 -1.9738
 7033TIP3   OH242589   3.543   4.857  17.121  0.1322 -0.1778  0.1362
 7033TIP3    H142590   3.632   4.826  17.139  0.1800 -0.8372 -1.0952
 7033TIP3    H242591   3.486   4.786  17.152  0.1356 -0.5608 -0.7100
 7034TIP3   OH242592   5.593   5.215   1.288  0.1241 -0.3873  0.2632
 7034TIP3    H142593   5.574   5.301   1.249 -0.5329  0.5332  2.4175
 7034TIP3    H242594   5.540   5.214   1.368 -0.0721 -2.9361  0.1705
 7035TIP3   OH242595   1.203   4.319  17.111  0.1712 -0.8485 -0.0810
 7035TIP3    H142596   1.289   4.288  17.137  1.0840  0.4304 -1.4573
 7035TIP3    H242597   1.194   4.405  17.153  0.4504 -0.0637 -1.5691
 7036TIP3   OH242598   1.008   5.343   6.117  0.1872 -0.1464  0.0615
 7036TIP3    H142599   1.088   5.319   6.071 -0.2283  1.3073 -1.5157
 7036TIP3    H242600   1.028   5.330   6.210  1.2848 -2.5101 -0.4288
 7037TIP3   OH242601   6.309   6.502   4.278 -0.3043 -0.0920  0.6907
 7037TIP3    H142602   6.215   6.483   4.279 -0.3392  0.0636  0.3868
 7037TIP3    H242603   6.324   6.547   4.195  0.1343 -0.5870  0.5020
 7038TIP3   OH242604   4.478   6.215  13.046 -0.6116 -0.3195 -0.5004
 7038TIP3    H142605   4.542   6.147  13.067 -0.2094  0.4986  1.0725
 7038TIP3    H242606   4.516   6.296  13.081 -0.8752  0.8436 -2.6832
 7039TIP3   OH242607   0.117   6.318  15.621  0.1429  0.1493 -0.4423
 7039TIP3    H142608   0.073   6.279  15.546  1.1994 -1.1364 -0.4334
 7039TIP3    H242609   0.209   6.326  15.593  0.0963  2.0238 -0.1825
 7040TIP3   OH242610   4.505   0.335   1.282  0.1136 -0.2873  0.2813
 7040TIP3    H142611   4.463   0.283   1.351  1.3135  0.0173  1.2764
 7040TIP3    H242612   4.559   0.272   1.234 -1.5313 -0.7105 -1.0992
 7041TIP3   OH242613   3.732   1.984   5.883  0.5372 -0.2711  0.2262
 7041TIP3    H142614   3.719   1.890   5.895  2.2678 -0.7721 -1.3937
 7041TIP3    H242615   3.662   2.010   5.823  0.9069 -0.8601 -0.4825
 7042TIP3   OH242616   3.117   6.113  15.768  0.1133 -0.0746  0.0991
 7042TIP3    H142617   3.073   6.135  15.850 -0.0981 -0.5086  0.1054
 7042TIP3    H242618   3.089   6.024  15.749  2.2164 -0.9795  0.9269
 7043TIP3   OH242619   6.318   2.223  17.185  0.0624 -0.6443  0.4739
 7043TIP3    H142620   6.351   2.257  17.102  0.2143 -1.9933 -0.0360
 7043TIP3    H242621   6.337   2.129  17.182  0.0348 -0.7285  2.0166
 7044TIP3   OH242622   2.289   3.350  12.724 -0.2539  0.0729  0.2164
 7044TIP3    H142623   2.211   3.400  12.702  0.4289  1.0921  0.0693
 7044TIP3    H242624   2.328   3.328  12.640 -1.0236 -1.5351  0.2296
 7045TIP3   OH242625   0.305   5.333   0.847  0.1356 -0.4172 -0.1918
 7045TIP3    H142626   0.293   5.254   0.900 -0.3796  0.9467  1.8532
 7045TIP3    H242627   0.399   5.349   0.849 -0.0586  0.7973  2.2382
 7046TIP3   OH242628   2.963   6.360   1.097  0.1265 -0.1063  0.2445
 7046TIP3    H142629   3.019   6.316   1.161  0.9666  0.2305 -0.2362
 7046TIP3    H242630   2.930   6.437   1.143  0.0745 -0.2984  0.5296
 7047TIP3   OH242631   3.834   3.747   2.452 -0.0368  0.0706  0.0969
 7047TIP3    H142632   3.761   3.796   2.490  0.4943  0.6261  0.4289
 7047TIP3    H242633   3.912   3.783   2.495  0.3846 -0.9443  0.2026
 7048TIP3   OH242634   5.651   5.602  15.238 -0.7192 -0.1938 -0.1795
 7048TIP3    H142635   5.647   5.621  15.145 -0.3893  1.5437  0.1223
 7048TIP3    H242636   5.722   5.657  15.271 -1.2014 -0.3349  1.1742
 7049TIP3   OH242637   2.634   4.431  15.982  0.0670  0.3048  0.0012
 7049TIP3    H142638   2.622   4.433  15.887  2.3331 -0.7356 -0.3601
 7049TIP3    H242639   2.547   4.451  16.017 -0.8752  0.5118 -2.2762
 7050TIP3   OH242640   0.797   1.477  14.668 -0.3305 -0.2433 -0.8819
 7050TIP3    H142641   0.754   1.561  14.686  0.5687  0.4496 -1.8408
 7050TIP3    H242642   0.802   1.434  14.753  0.2732  1.2104 -0.1462
 7051TIP3   OH242643   5.767   0.362  17.035 -0.1307  0.0133 -0.1884
 7051TIP3    H142644   5.814   0.385  16.954  1.7262 -1.3887  0.4297
 7051TIP3    H242645   5.770   0.442  17.088  1.6798 -0.0471 -0.1391
 7052TIP3   OH242646   2.218   6.139  17.118 -0.2239 -0.2461  0.3099
 7052TIP3    H142647   2.179   6.120  17.033 -3.0555  1.1317  1.1844
 7052TIP3    H242648   2.174   6.079  17.178 -2.6837  2.6254  1.6422
 7053TIP3   OH242649   5.543   4.135  12.645  0.2207 -0.1940 -0.2522
 7053TIP3    H142650   5.614   4.160  12.705  0.5133 -0.9096 -0.2984
 7053TIP3    H242651   5.468   4.187  12.674 -0.3620 -2.2947  2.3347
 7054TIP3   OH242652   2.287   2.060  16.637 -0.2800  0.2904 -0.0493
 7054TIP3    H142653   2.246   2.051  16.551 -1.6661 -0.2611  0.6313
 7054TIP3    H242654   2.229   2.121  16.685 -1.1330 -1.5437  1.3801
 7055TIP3   OH242655   0.333   3.193  14.265 -0.5353 -0.3387  0.2282
 7055TIP3    H142656   0.380   3.261  14.313  0.8230 -0.4157 -0.9210
 7055TIP3    H242657   0.303   3.132  14.332 -0.8224  0.8087  1.1745
 7056TIP3   OH242658   5.578   3.320  13.104 -0.0680 -0.1839  0.7524
 7056TIP3    H142659   5.485   3.322  13.083  0.0318 -2.0769 -0.0954
 7056TIP3    H242660   5.588   3.381  13.177 -1.3484  2.6404 -1.2758
 7057TIP3   OH242661   2.079   2.578  16.411  0.1200 -0.2598 -0.0310
 7057TIP3    H142662   2.091   2.485  16.433  0.4034 -0.3712 -0.6421
 7057TIP3    H242663   2.003   2.605  16.463  0.5376 -0.6139  0.7815
 7058TIP3   OH242664   2.053   4.361   5.385 -0.1889  0.5578  0.2006
 7058TIP3    H142665   2.043   4.279   5.434 -0.0283  1.7606  2.3514
 7058TIP3    H242666   2.113   4.339   5.314  0.2409 -1.0762  1.0085
 7059TIP3   OH242667   2.133   3.973  15.900 -0.1054  0.7561  0.0040
 7059TIP3    H142668   2.209   4.022  15.932  1.8122 -0.8403 -1.8033
 7059TIP3    H242669   2.091   3.940  15.979  1.2515  1.4422  1.0556
 7060TIP3   OH242670   6.550   3.273  13.573 -0.1818  0.1441  0.8693
 7060TIP3    H142671   6.509   3.320  13.645 -2.3436  0.8710 -0.7361
 7060TIP3    H242672   6.493   3.199  13.555  0.5761 -0.3028  0.1900
 7061TIP3   OH242673   3.595   6.499   6.085 -0.5587 -0.5572 -0.1274
 7061TIP3    H142674   3.535   6.445   6.136  1.2622 -0.1354  2.6584
 7061TIP3    H242675   3.581   6.588   6.117  1.1379 -0.3824  0.2468
 7062TIP3   OH242676   1.003   0.689  16.390 -0.6532  0.0931  0.1359
 7062TIP3    H142677   1.083   0.731  16.422  0.7976  1.1326 -4.2086
 7062TIP3    H242678   1.034   0.610  16.345 -2.1278  0.0549 -0.8751
 7063TIP3   OH242679   4.121   4.323   2.728 -0.7254 -0.6815 -0.4911
 7063TIP3    H142680   4.122   4.359   2.817  0.0322  0.2583 -0.8657
 7063TIP3    H242681   4.028   4.309   2.709 -0.9336 -0.3359  0.2271
 7064TIP3   OH242682   5.656   1.095  10.840  0.2446 -0.8012 -0.2459
 7064TIP3    H142683   5.694   1.170  10.794 -0.3874 -1.0523 -1.1976
 7064TIP3    H242684   5.594   1.058  10.778 -2.0928 -0.0075  1.4958
 7065TIP3   OH242685   4.922   2.149   0.048 -0.6841 -0.7464  0.5143
 7065TIP3    H142686   4.879   2.148   0.134 -0.5356  1.7822  0.6962
 7065TIP3    H242687   4.863   2.200  -0.007 -0.2408 -1.4155 -0.6013
 7066TIP3   OH242688   4.856   1.264  16.628 -0.3268 -0.0558 -0.0236
 7066TIP3    H142689   4.868   1.269  16.533  0.0384  2.3605  0.0807
 7066TIP3    H242690   4.942   1.287  16.664 -0.4456 -1.0018  0.9333
 7067TIP3   OH242691   2.544   3.190   3.098  0.1881  0.3083  0.5368
 7067TIP3    H142692   2.528   3.283   3.088 -0.9421  0.4006  2.5952
 7067TIP3    H242693   2.636   3.184   3.123 -0.2061  1.1260  2.4124
 7068TIP3   OH242694   1.535   6.525  15.587  0.5549 -0.3243  0.3221
 7068TIP3    H142695   1.467   6.490  15.645  0.1936  0.0273  0.1155
 7068TIP3    H242696   1.612   6.472  15.606 -0.3522 -2.2621 -1.0066
 7069TIP3   OH242697   3.353   5.875   5.452 -0.2425 -0.0734 -0.0766
 7069TIP3    H142698   3.334   5.819   5.526  0.4117  1.2033  1.1085
 7069TIP3    H242699   3.268   5.898   5.416 -0.5118 -1.9209 -0.6968
 7070TIP3   OH242700   6.689   5.123  15.906  0.1219  0.1622  0.0510
 7070TIP3    H142701   6.733   5.138  15.822  1.5235  0.3183  0.7822
 7070TIP3    H242702   6.749   5.068  15.956 -0.5822  0.2559  1.0453
 7071TIP3   OH242703   6.028   3.561  14.770 -0.2589 -0.1875  0.3341
 7071TIP3    H142704   6.069   3.632  14.820  0.3614 -0.7909  0.6880
 7071TIP3    H242705   6.100   3.502  14.748 -0.6218 -0.2405 -0.7583
 7072TIP3   OH242706   2.325   1.804  14.432 -0.0514  0.2534  0.4119
 7072TIP3    H142707   2.288   1.727  14.388  1.7380  0.0524 -0.8694
 7072TIP3    H242708   2.320   1.783  14.525 -2.0764 -0.2081  0.2507
 7073TIP3   OH242709   2.832   3.733   3.026 -0.5601  0.9791  0.1830
 7073TIP3    H142710   2.906   3.675   3.009 -2.1295 -1.3770  0.8784
 7073TIP3    H242711   2.855   3.778   3.107  0.1504  0.3171  0.3613
 7074TIP3   OH242712   5.784   4.968  15.437 -0.9184  0.2702  0.3818
 7074TIP3    H142713   5.738   4.899  15.388  0.3706 -1.1096  1.0488
 7074TIP3    H242714   5.798   4.930  15.524 -1.5413  1.9844  1.2746
 7075TIP3   OH242715   6.633   5.223  12.893 -0.4297 -0.5499 -0.0891
 7075TIP3    H142716   6.659   5.314  12.906 -0.9916  0.1592 -3.0318
 7075TIP3    H242717   6.547   5.217  12.934 -0.3930  0.2542  0.1246
 7076TIP3   OH242718   2.573   3.650   1.280  0.1849 -0.0753  0.2782
 7076TIP3    H142719   2.489   3.607   1.265 -1.7003  3.0244  0.9941
 7076TIP3    H242720   2.596   3.627   1.370 -0.7818  0.3387  0.6428
 7077TIP3   OH242721   1.541   3.433   1.249 -0.8479 -0.0451 -0.4186
 7077TIP3    H142722   1.454   3.454   1.215 -0.1694  2.8489 -0.6034
 7077TIP3    H242723   1.582   3.382   1.179 -1.1755  1.6776 -1.9429
 7078TIP3   OH242724   5.182   6.003   1.328  0.4385 -0.1450  0.0103
 7078TIP3    H142725   5.143   5.918   1.310 -0.2804  0.3067 -0.5793
 7078TIP3    H242726   5.126   6.041   1.396  1.2459 -0.4810  0.8863
 7079TIP3   OH242727   3.040   1.673   5.662 -0.0920 -0.0294 -0.1557
 7079TIP3    H142728   3.122   1.721   5.647  1.3246 -2.5458 -1.0936
 7079TIP3    H242729   3.066   1.599   5.717 -0.4954 -3.7405 -4.3994
 7080TIP3   OH242730   2.601   5.338   2.460 -0.0962 -0.4272 -0.3230
 7080TIP3    H142731   2.662   5.272   2.424 -0.9812 -0.7343 -1.3004
 7080TIP3    H242732   2.514   5.301   2.445 -0.6264  1.0339 -1.0332
 7081TIP3   OH242733   4.744   1.381   0.556  0.6629 -0.6054  0.7641
 7081TIP3    H142734   4.702   1.296   0.562 -1.5342  0.1136 -2.4153
 7081TIP3    H242735   4.680   1.443   0.592  0.3670  0.1266 -0.9348
 7082TIP3   OH242736   1.534   3.383   4.752  0.1649  0.3113 -0.0315
 7082TIP3    H142737   1.519   3.461   4.700  0.4752  0.6115  0.3206
 7082TIP3    H242738   1.583   3.324   4.694 -1.5865 -0.3498 -0.9074
 7083TIP3   OH242739   5.362   5.918  16.131  0.6312 -0.1111  0.8548
 7083TIP3    H142740   5.329   5.891  16.217 -0.2379  2.0448  1.2585
 7083TIP3    H242741   5.454   5.940  16.146  0.5134  0.1452  1.2193
 7084TIP3   OH242742   4.701   5.938  15.704  0.0832  0.0876 -0.7116
 7084TIP3    H142743   4.668   5.848  15.707  1.5043 -0.5723  4.4966
 7084TIP3    H242744   4.643   5.987  15.763  1.4313  1.7609 -0.6922
 7085TIP3   OH242745   3.742   1.184   2.008 -0.4412  0.1148 -0.1097
 7085TIP3    H142746   3.715   1.161   2.097 -0.7469 -0.6980 -0.4039
 7085TIP3    H242747   3.739   1.101   1.960  1.1601  0.2603 -0.5192
 7086TIP3   OH242748   6.396   6.311  13.208 -0.2844 -0.5830  0.3620
 7086TIP3    H142749   6.478   6.297  13.162 -0.3875 -0.4243  0.1268
 7086TIP3    H242750   6.329   6.278  13.149 -0.6144  1.5639 -0.5718
 7087TIP3   OH242751   5.563   1.560   0.683 -0.4136 -0.3911 -0.0990
 7087TIP3    H142752   5.554   1.656   0.688  0.4216 -0.3710  1.9834
 7087TIP3    H242753   5.641   1.541   0.735  0.4894 -2.0902 -1.9704
 7088TIP3   OH242754   1.306   0.454  13.281  0.2139  0.5578  0.3828
 7088TIP3    H142755   1.398   0.427  13.274  0.1978  0.1598  1.4715
 7088TIP3    H242756   1.286   0.446  13.374 -1.1770 -0.2331  0.0513
 7089TIP3   OH242757   3.436   5.820   6.249 -0.2842  0.7295  0.0628
 7089TIP3    H142758   3.348   5.821   6.212 -0.1370 -0.5070 -0.3562
 7089TIP3    H242759   3.446   5.906   6.289 -0.5114  2.1129 -2.6211
 7090TIP3   OH242760   4.417   5.084  13.504  0.0783  0.1448  0.1805
 7090TIP3    H142761   4.398   5.155  13.443  1.5308 -0.3716 -0.9575
 7090TIP3    H242762   4.479   5.029  13.457  0.3189 -0.9408  1.6917
 7091TIP3   OH242763   1.005   5.404   6.728  0.1576 -0.2601  0.5068
 7091TIP3    H142764   1.054   5.485   6.744 -2.0990  1.4717 -0.8080
 7091TIP3    H242765   1.067   5.347   6.682  0.9090  1.9820 -1.4346
 7092TIP3   OH242766   1.017   2.625  13.009 -0.3367  0.4223 -0.3217
 7092TIP3    H142767   1.004   2.592  13.098 -2.3619 -3.8520 -1.9228
 7092TIP3    H242768   0.938   2.675  12.990 -0.2487  0.6941  0.0212
 7093TIP3   OH242769   2.973   0.215  15.414  0.0352 -0.4014  0.5749
 7093TIP3    H142770   2.994   0.263  15.334 -1.0668 -2.3037 -0.9489
 7093TIP3    H242771   3.058   0.190  15.450  0.5651  0.8724  0.2687
 7094TIP3   OH242772   1.888   4.968  13.164  0.1250  0.7792  0.2054
 7094TIP3    H142773   1.844   5.053  13.156 -2.4913 -0.6016 -1.1245
 7094TIP3    H242774   1.878   4.927  13.078  1.5989 -0.7876  0.7157
 7095TIP3   OH242775   4.480   3.056   5.133  0.4306  0.7428  0.4947
 7095TIP3    H142776   4.557   3.021   5.177  1.4798  1.4877 -0.6987
 7095TIP3    H242777   4.408   3.036   5.193  1.6419  0.7373  2.0165
 7096TIP3   OH242778   2.262   2.346  15.333 -0.3035 -0.3361  0.1940
 7096TIP3    H142779   2.294   2.335  15.423 -0.3081  1.0653  0.3882
 7096TIP3    H242780   2.284   2.436  15.311 -2.1198 -0.0171 -0.4690
 7097TIP3   OH242781   6.150   4.186   3.049  0.1563  0.2059  0.7661
 7097TIP3    H142782   6.244   4.172   3.038 -0.0345  0.1532 -1.1712
 7097TIP3    H242783   6.124   4.237   2.972 -1.7056 -1.3047  0.3161
 7098TIP3   OH242784   4.559   2.007  16.450  0.8521 -0.6877 -0.0094
 7098TIP3    H142785   4.545   1.920  16.414  0.1521 -0.4180 -0.4001
 7098TIP3    H242786   4.509   2.009  16.531  0.5564 -0.5223 -0.1941
 7099TIP3   OH242787   3.248   1.656   2.186  0.0361 -0.6963 -0.0134
 7099TIP3    H142788   3.202   1.736   2.213  0.3758  0.6420 -3.0759
 7099TIP3    H242789   3.321   1.649   2.247  0.8973  2.2513 -0.5761
 7100TIP3   OH242790   0.330   5.109  13.948  0.1861 -0.2318 -0.2704
 7100TIP3    H142791   0.285   5.030  13.916 -2.1687  0.9270 -0.0630
 7100TIP3    H242792   0.352   5.087  14.039 -3.7442  0.4239  1.0595
 7101TIP3   OH242793   0.164   5.489  14.914  0.2455  0.1920 -0.2291
 7101TIP3    H142794   0.070   5.488  14.898  0.3266 -0.3268 -0.6713
 7101TIP3    H242795   0.191   5.578  14.892 -0.3747  0.8164  1.3226
 7102TIP3   OH242796   5.938   1.104  13.235 -0.4397 -0.1939 -0.4826
 7102TIP3    H142797   5.992   1.150  13.171 -0.1604 -0.1667 -0.2301
 7102TIP3    H242798   5.995   1.095  13.312 -0.4875 -0.9559 -0.5275
 7103TIP3   OH242799   6.298   3.133   2.847 -0.2104  0.6949  0.0936
 7103TIP3    H142800   6.224   3.090   2.806 -0.3623 -0.3921  1.4548
 7103TIP3    H242801   6.364   3.138   2.778 -0.7351 -0.3521 -0.5037
 7104TIP3   OH242802   3.308   0.303   5.522  0.0190 -0.7284 -0.0426
 7104TIP3    H142803   3.336   0.338   5.606  1.3073  0.3027 -0.8727
 7104TIP3    H242804   3.218   0.272   5.538  0.5983 -1.5438  1.9589
 7105TIP3   OH242805   3.910   0.966  16.573 -0.6221  0.0658  0.0315
 7105TIP3    H142806   3.942   1.049  16.608 -0.8016  0.8361 -1.5430
 7105TIP3    H242807   3.815   0.970  16.583 -0.5698 -0.3976  0.8425
 7106TIP3   OH242808   5.361   1.247   1.506 -0.1756  0.4829  0.2419
 7106TIP3    H142809   5.425   1.176   1.515 -1.8297 -0.9809  1.1271
 7106TIP3    H242810   5.376   1.283   1.418  2.6763  1.0896  0.8871
 7107TIP3   OH242811   6.360   4.212  15.967 -0.5676 -0.1897 -0.3065
 7107TIP3    H142812   6.371   4.148  15.897  2.2135  0.5513 -0.6502
 7107TIP3    H242813   6.401   4.292  15.933 -2.7425  1.4306  0.6350
 7108TIP3   OH242814   6.085   6.260  14.528  0.9657  0.2791 -0.4214
 7108TIP3    H142815   6.106   6.167  14.522  1.4414  0.3752 -0.2894
 7108TIP3    H242816   6.030   6.267  14.607  4.2051  0.6447  2.0106
 7109TIP3   OH242817   1.819   3.092  13.438  0.8053 -0.3485  0.5098
 7109TIP3    H142818   1.835   3.158  13.505 -0.2358 -0.1671  0.5921
 7109TIP3    H242819   1.757   3.031  13.477 -2.3725  1.4748 -1.2653
 7110TIP3   OH242820   5.505   2.144  15.576  0.3884 -0.6588 -0.0605
 7110TIP3    H142821   5.501   2.191  15.492 -0.7100 -0.1479  0.2587
 7110TIP3    H242822   5.517   2.052  15.551  0.3219 -0.4849 -0.7635
 7111TIP3   OH242823   1.153   2.839   0.145  0.3155 -1.2688  0.6462
 7111TIP3    H142824   1.116   2.751   0.143  0.0840 -1.1691 -0.3565
 7111TIP3    H242825   1.134   2.874   0.057 -1.0433  0.3740  1.5425
 7112TIP3   OH242826   3.001   2.979  16.737 -0.0121 -0.0782 -0.0200
 7112TIP3    H142827   3.013   2.942  16.650 -1.0988 -1.3530  0.3277
 7112TIP3    H242828   2.929   3.042  16.727 -0.1474 -0.2363 -0.0555
 7113TIP3   OH242829   6.062   5.287   4.136  0.2112  0.7690  1.2341
 7113TIP3    H142830   6.011   5.368   4.143 -0.3045  0.3104  4.2555
 7113TIP3    H242831   6.153   5.315   4.148  0.6822  1.3869 -2.5942
 7114TIP3   OH242832   5.489   0.788   5.096 -0.6517  0.4171 -1.2100
 7114TIP3    H142833   5.418   0.791   5.032  0.1597  0.0671 -2.1512
 7114TIP3    H242834   5.508   0.695   5.108  0.4921  0.5369 -1.9507
 7115TIP3   OH242835   2.946   5.732   5.857  0.2417  0.2245 -0.3025
 7115TIP3    H142836   2.854   5.729   5.833  0.2349  1.6794 -0.5215
 7115TIP3    H242837   2.946   5.765   5.947  0.4764 -1.5907  0.4170
 7116TIP3   OH242838   0.556   5.443   0.868 -0.0943  0.3574 -0.1385
 7116TIP3    H142839   0.646   5.411   0.880 -0.8885 -2.0501  0.0323
 7116TIP3    H242840   0.558   5.488   0.783  1.6776  2.1953  0.7777
 7117TIP3   OH242841   1.244   0.532   5.399 -0.0427 -0.2494 -0.5776
 7117TIP3    H142842   1.196   0.604   5.358 -1.2137 -0.7380 -0.1054
 7117TIP3    H242843   1.176   0.469   5.424  1.0171 -1.9307 -1.7477
 7118TIP3   OH242844   0.805   2.100   1.737 -0.1914 -0.5537 -0.5802
 7118TIP3    H142845   0.847   2.023   1.699 -0.1558 -0.5478 -0.5539
 7118TIP3    H242846   0.716   2.072   1.758 -0.2704 -0.5032 -0.8381
 7119TIP3   OH242847   2.245   0.728  13.512 -0.3299 -0.4447 -0.4302
 7119TIP3    H142848   2.195   0.646  13.511  0.2039 -0.7990  0.7133
 7119TIP3    H242849   2.334   0.701  13.536 -0.1927  0.5030  0.1433
 7120TIP3   OH242850   6.779   5.166  14.776  0.0930  0.0602 -0.4965
 7120TIP3    H142851   6.812   5.078  14.793  0.3736  0.1250 -0.6950
 7120TIP3    H242852   6.709   5.178  14.840 -0.6203 -0.6824 -1.1001
 7121TIP3   OH242853   6.586   3.598  14.800 -0.1643 -0.0404  0.7083
 7121TIP3    H142854   6.565   3.591  14.707  0.1607  0.5169  0.5942
 7121TIP3    H242855   6.665   3.545  14.811  1.3066  1.9249  0.1600
 7122TIP3   OH242856   6.390   0.987   2.869  0.6179  0.6755  0.0718
 7122TIP3    H142857   6.298   0.963   2.860  0.4806  0.4009  1.8120
 7122TIP3    H242858   6.417   0.945   2.951  2.2077  1.0027 -0.2657
 7123TIP3   OH242859   6.337   1.187   2.376 -0.2740  0.0692  0.6032
 7123TIP3    H142860   6.255   1.138   2.366  1.0528 -2.1802  0.0683
 7123TIP3    H242861   6.352   1.190   2.470 -0.8900  0.3783  0.6986
 7124TIP3   OH242862   3.901   6.396   0.850 -0.1063  0.2925  0.1410
 7124TIP3    H142863   3.905   6.301   0.862 -0.0490  0.2048 -0.5713
 7124TIP3    H242864   3.905   6.430   0.939 -1.2924 -0.4112  0.4929
 7125TIP3   OH242865   0.292   4.897  15.543  0.0940 -0.0569 -0.3736
 7125TIP3    H142866   0.292   4.807  15.575  3.3259  0.7396  2.5568
 7125TIP3    H242867   0.372   4.904  15.492 -1.2251  0.7094 -2.4559
 7126TIP3   OH242868   4.712   3.722   5.526 -0.2721 -0.3784 -0.3709
 7126TIP3    H142869   4.761   3.753   5.602  0.1038  0.2648 -0.8635
 7126TIP3    H242870   4.760   3.644   5.497 -1.0855 -1.3126  0.7306
 7127TIP3   OH242871   0.283   4.003   5.855  0.2192  0.1268 -0.4616
 7127TIP3    H142872   0.244   3.922   5.820 -1.6683  0.2683  1.1794
 7127TIP3    H242873   0.372   3.978   5.879 -0.5621 -1.7076  0.7137
 7128TIP3   OH242874   0.651   5.807  12.856 -0.9323 -0.1034 -0.2466
 7128TIP3    H142875   0.666   5.864  12.781  1.6444 -1.9112 -1.2290
 7128TIP3    H242876   0.669   5.862  12.932 -0.9509  1.0454 -1.0439
 7129TIP3   OH242877   1.933   2.934  16.717 -0.1649  0.0072  0.5498
 7129TIP3    H142878   1.953   3.006  16.777  2.3522 -0.1911  0.0394
 7129TIP3    H242879   1.991   2.863  16.743  0.5509 -0.3052 -1.6806
 7130TIP3   OH242880   1.666   6.167  14.719  0.3074  0.0742  0.1365
 7130TIP3    H142881   1.669   6.251  14.672  0.4570  0.2981  0.5479
 7130TIP3    H242882   1.586   6.125  14.687 -1.1270  1.4423  1.7345
 7131TIP3   OH242883   3.856   5.893   3.740 -0.7392 -0.2591  0.0017
 7131TIP3    H142884   3.771   5.849   3.740 -2.6235  2.8563 -2.3938
 7131TIP3    H242885   3.849   5.959   3.809 -0.4487  0.2214 -0.4130
 7132TIP3   OH242886   1.325   2.599   4.301  0.2919 -0.1681 -0.5621
 7132TIP3    H142887   1.409   2.620   4.342  0.3969  1.6081 -1.6169
 7132TIP3    H242888   1.268   2.671   4.325 -0.6352 -0.8154 -0.7721
 7133TIP3   OH242889   0.504   4.599  12.983 -0.1331  0.1817 -0.8626
 7133TIP3    H142890   0.591   4.561  12.992 -0.2384 -0.1947 -1.3811
 7133TIP3    H242891   0.448   4.526  12.956 -0.7544  0.2664  0.1458
 7134TIP3   OH242892   5.480   3.986  13.868 -0.1425 -0.2465  0.6355
 7134TIP3    H142893   5.574   3.970  13.875  0.1245  0.6129 -0.6214
 7134TIP3    H242894   5.451   3.998  13.959  1.0077 -0.2610  1.0218
 7135TIP3   OH242895   0.240   6.641  12.950 -0.3091  0.7700 -0.4092
 7135TIP3    H142896   0.330   6.608  12.946 -0.5486  0.1828 -1.1835
 7135TIP3    H242897   0.249   6.731  12.979  0.2614 -0.3785  3.6087
 7136TIP3   OH242898   4.932   3.249   5.658 -0.5223 -0.4878  0.0145
 7136TIP3    H142899   4.898   3.218   5.742  0.0221  0.3203  0.5475
 7136TIP3    H242900   4.991   3.321   5.681  2.3357 -2.3851 -0.7489
 7137TIP3   OH242901   1.261   6.305  14.722 -0.2913  0.0805  0.0141
 7137TIP3    H142902   1.258   6.356  14.641  0.1206 -1.1819 -0.8269
 7137TIP3    H242903   1.348   6.325  14.759  0.4988 -1.1605 -1.1084
 7138TIP3   OH242904   3.834   3.650  15.872  0.0924 -0.6394  0.0021
 7138TIP3    H142905   3.853   3.558  15.891 -2.2066 -0.9886  0.9620
 7138TIP3    H242906   3.833   3.692  15.958  0.5702  0.1724 -0.3847
 7139TIP3   OH242907   4.650   0.673   0.926 -0.1281 -0.5438 -0.1853
 7139TIP3    H142908   4.702   0.630   0.858 -0.7513 -0.7509 -0.5479
 7139TIP3    H242909   4.671   0.626   1.006 -0.9857 -1.7171 -0.6165
 7140TIP3   OH242910   4.739   4.956  14.762  0.0693  0.1621  0.3328
 7140TIP3    H142911   4.829   4.957  14.728  0.5708 -0.0469  1.5737
 7140TIP3    H242912   4.710   5.047  14.758 -1.0617 -0.1881 -3.4432
 7141TIP3   OH242913   1.200   5.891   2.935 -0.7827 -0.3259  0.4438
 7141TIP3    H142914   1.164   5.812   2.896  1.3218  0.5700 -4.0322
 7141TIP3    H242915   1.290   5.867   2.959 -0.6622  0.2780  0.6176
 7142TIP3   OH242916   3.570   0.302  16.057  0.0890  0.1888  0.1939
 7142TIP3    H142917   3.546   0.262  15.974 -0.2493 -0.0557  0.4076
 7142TIP3    H242918   3.647   0.355  16.037 -0.3216  0.5726 -0.3929
 7143TIP3   OH242919   4.939   6.291  13.720  0.1446 -0.0599  0.6038
 7143TIP3    H142920   4.919   6.301  13.627  0.5089  2.5392  0.7258
 7143TIP3    H242921   4.871   6.233  13.753 -0.9500  0.2404 -1.0000
 7144TIP3   OH242922   4.474   5.939  11.006 -0.8569  0.4658 -0.1325
 7144TIP3    H142923   4.498   5.986  10.926  2.0026  1.0989  0.9740
 7144TIP3    H242924   4.404   5.991  11.045  0.2482  2.2215 -0.4061
 7145TIP3   OH242925   2.177   0.454  13.026  0.0270  0.3640 -0.6423
 7145TIP3    H142926   2.164   0.466  13.120  0.6332 -0.0796 -0.4979
 7145TIP3    H242927   2.149   0.537  12.987 -2.0511 -0.0949 -0.2551
 7146TIP3   OH242928   4.273   5.115   4.681 -1.0584  0.0504  0.0519
 7146TIP3    H142929   4.258   5.202   4.644  2.6078  0.7702 -0.2095
 7146TIP3    H242930   4.287   5.131   4.775 -1.9061 -0.5072  0.2783
 7147TIP3   OH242931   3.390   2.608  11.060  0.0729  0.0649  0.0325
 7147TIP3    H142932   3.397   2.550  10.985  1.0322 -0.6029  0.6314
 7147TIP3    H242933   3.296   2.630  11.064 -0.3141 -1.4559 -0.1785
 7148TIP3   OH242934   0.999   1.654   3.787  0.2900  0.2053 -0.0561
 7148TIP3    H142935   0.957   1.567   3.788  0.9824 -0.2711 -3.1726
 7148TIP3    H242936   1.075   1.644   3.844 -0.0715 -1.0054  0.2625
 7149TIP3   OH242937   2.436   5.613   5.759  0.1055 -0.5809 -0.2886
 7149TIP3    H142938   2.418   5.634   5.667  2.8864 -0.0033 -0.7944
 7149TIP3    H242939   2.438   5.517   5.762 -1.7615 -0.6689 -0.3717
 7150TIP3   OH242940   3.330   3.509  13.307  0.1766  0.3652  0.1844
 7150TIP3    H142941   3.378   3.482  13.385  1.1227  0.6568 -0.2800
 7150TIP3    H242942   3.290   3.592  13.331  1.7677  1.2511 -0.1248
 7151TIP3   OH242943   1.283   5.027   2.028 -0.1599  0.5728 -0.4001
 7151TIP3    H142944   1.352   5.025   2.094 -1.0033  1.5989  0.5398
 7151TIP3    H242945   1.208   4.985   2.069 -0.4763  0.5605 -0.9726
 7152TIP3   OH242946   3.824   5.775   4.098 -0.1995  0.3795 -0.1907
 7152TIP3    H142947   3.813   5.859   4.053 -1.8629  0.1951 -0.1922
 7152TIP3    H242948   3.803   5.709   4.031 -0.7567  0.0447  0.3003
 7153TIP3   OH242949   4.327   5.847   3.871  0.5820  0.0117 -0.6692
 7153TIP3    H142950   4.332   5.797   3.790  0.1904 -0.2106 -0.5611
 7153TIP3    H242951   4.245   5.895   3.865  1.1707  1.0011 -0.9642
 7154TIP3   OH242952   5.718   3.032  11.809  0.7632  0.4002  0.1616
 7154TIP3    H142953   5.689   2.987  11.730 -0.3398  1.8917 -0.3248
 7154TIP3    H242954   5.813   3.036  11.801  0.5876  2.0549 -2.0119
 7155TIP3   OH242955   4.347   6.604  13.030 -0.3579  0.5528 -0.1452
 7155TIP3    H142956   4.265   6.573  12.992 -0.2337  2.5756 -2.2292
 7155TIP3    H242957   4.335   6.698  13.041  0.6811  0.4692  2.2953
 7156TIP3   OH242958   4.283   0.565   0.417  0.1195 -1.0681 -0.9296
 7156TIP3    H142959   4.262   0.472   0.410 -1.4983 -0.7293 -1.0633
 7156TIP3    H242960   4.208   0.609   0.377  0.1408  0.3394  0.4763
 7157TIP3   OH242961   2.532   1.085   5.515 -0.6205  0.1379 -0.3341
 7157TIP3    H142962   2.552   1.178   5.512  1.1167 -0.2080 -0.6096
 7157TIP3    H242963   2.500   1.064   5.427 -2.8621  0.7997  0.2557
 7158TIP3   OH242964   4.921   1.876  10.396  0.0465 -0.5570  0.7081
 7158TIP3    H142965   4.948   1.842  10.481 -0.7634  0.2268  1.2953
 7158TIP3    H242966   4.845   1.823  10.372 -0.9049  0.4340  1.3905
 7159TIP3   OH242967   3.152   5.217   1.487 -0.5664  0.3900  0.0943
 7159TIP3    H142968   3.094   5.194   1.415  0.1165 -0.1092 -0.3109
 7159TIP3    H242969   3.114   5.173   1.563 -0.6961  0.0348 -0.1741
 7160TIP3   OH242970   3.089   0.976   0.538  0.2091  0.0025 -0.5743
 7160TIP3    H142971   3.167   1.028   0.521  0.1844  0.7724  1.3938
 7160TIP3    H242972   3.084   0.915   0.465  1.7854  0.9481 -1.5211
 7161TIP3   OH242973   2.416   4.251  12.415 -0.4111  0.8890 -0.0730
 7161TIP3    H142974   2.392   4.343  12.418  1.4888  1.3915  0.6739
 7161TIP3    H242975   2.477   4.239  12.488  1.0152 -0.4702 -1.4226
 7162TIP3   OH242976   3.188   3.387  11.123  0.0151  0.3612  0.3170
 7162TIP3    H142977   3.094   3.400  11.112 -0.0473 -0.1358  0.2687
 7162TIP3    H242978   3.205   3.410  11.215  0.1912  2.4252 -0.1763
 7163TIP3   OH242979   3.875   3.195   0.312 -0.1062  0.1196  0.1600
 7163TIP3    H142980   3.844   3.146   0.236 -0.4544 -0.3166  0.5796
 7163TIP3    H242981   3.803   3.253   0.334  0.2802  0.7921 -0.2952
 7164TIP3   OH242982   2.366   2.193   4.225  0.4398 -0.9528 -0.1077
 7164TIP3    H142983   2.297   2.215   4.164  0.6823 -0.3033 -0.1516
 7164TIP3    H242984   2.447   2.206   4.176  0.6079 -1.5296 -0.0010
 7165TIP3   OH242985   1.283   1.057  11.444  0.1811 -0.7117  0.0429
 7165TIP3    H142986   1.283   0.961  11.437 -1.4165 -0.6875 -0.6861
 7165TIP3    H242987   1.376   1.081  11.443  0.5707 -2.1235 -1.8002
 7166TIP3   OH242988   3.762   5.190   3.961  0.2409 -0.0548  0.8093
 7166TIP3    H142989   3.716   5.123   4.013 -0.5821 -0.2123 -0.0786
 7166TIP3    H242990   3.714   5.192   3.878  0.9015  0.9108  0.4359
 7167TIP3   OH242991   0.605   5.538  16.445 -0.5542 -0.4273 -0.1016
 7167TIP3    H142992   0.627   5.597  16.373 -0.9312 -2.4417 -1.9801
 7167TIP3    H242993   0.509   5.531  16.441 -0.4636 -1.7403 -0.4511
 7168TIP3   OH242994   1.686   2.889   6.920 -0.1650 -0.1016  0.6564
 7168TIP3    H142995   1.599   2.853   6.908 -0.2564  0.5969 -1.0116
 7168TIP3    H242996   1.743   2.813   6.927 -0.8745 -0.5610  1.7216
 7169TIP3   OH242997   0.520   4.909   1.982  0.2963  0.2338 -0.0952
 7169TIP3    H142998   0.577   4.974   2.023 -0.3219  1.4619 -1.1304
 7169TIP3    H242999   0.451   4.894   2.046  0.2193  0.9204 -0.0072
 7170TIP3   OH243000   2.032   2.971  14.852  0.0216 -0.0960 -0.4634
 7170TIP3    H143001   2.062   2.909  14.919 -0.3866 -1.8238 -1.7778
 7170TIP3    H243002   1.940   2.987  14.873  0.2002  0.3139  0.0393
 7171TIP3   OH243003   5.189   3.152   2.403 -1.2040 -0.1785 -0.3732
 7171TIP3    H143004   5.195   3.091   2.476  0.6525  2.4642  1.8997
 7171TIP3    H243005   5.274   3.148   2.360 -0.3069  2.0019  1.0024
 7172TIP3   OH243006   5.293   5.671  16.357  0.0485 -0.5581 -0.0456
 7172TIP3    H143007   5.278   5.650  16.264  0.4448 -0.9354 -0.0297
 7172TIP3    H243008   5.364   5.612  16.383 -0.1736 -0.5686  0.5437
 7173TIP3   OH243009   2.159   3.611   2.590 -0.3022 -0.3735 -0.5537
 7173TIP3    H143010   2.099   3.618   2.516 -1.5251 -1.5511  0.2847
 7173TIP3    H243011   2.104   3.624   2.667  0.5927 -1.0341  0.2243
 7174TIP3   OH243012   2.548   4.895   6.279  0.2607  0.3806  0.6732
 7174TIP3    H143013   2.480   4.886   6.346 -2.4437  0.9720 -1.8088
 7174TIP3    H243014   2.534   4.981   6.241 -0.5100 -1.1273 -2.8094
 7175TIP3   OH243015   2.532   5.811  10.315  0.3689 -0.1751  0.3022
 7175TIP3    H143016   2.566   5.743  10.256 -0.4167 -0.5293  0.2540
 7175TIP3    H243017   2.611   5.849  10.354  0.8252 -1.2326  0.4572
 7176TIP3   OH243018   1.876   5.091   5.352 -0.4053  0.2107 -0.3281
 7176TIP3    H143019   1.925   5.136   5.283 -0.5471 -0.0349 -0.5900
 7176TIP3    H243020   1.921   5.008   5.364 -0.8332 -0.0711 -0.6620
 7177TIP3   OH243021   1.419   2.864  16.875  0.1277 -0.1572 -0.0422
 7177TIP3    H143022   1.481   2.795  16.902 -1.2640 -1.1992  0.6245
 7177TIP3    H243023   1.353   2.818  16.823 -1.3853  0.4402  1.2614
 7178TIP3   OH243024   1.685   4.950   4.488  0.1133  0.0111 -0.0953
 7178TIP3    H143025   1.659   5.038   4.516  0.4584 -0.4152  1.7192
 7178TIP3    H243026   1.762   4.963   4.434 -1.5812  1.0114 -2.3999
 7179TIP3   OH243027   1.800   3.011  13.001  0.3585  0.2761  0.3184
 7179TIP3    H143028   1.735   2.984  13.066 -0.9799  1.5406 -0.4360
 7179TIP3    H243029   1.803   3.106  13.008  0.4835  0.4051 -1.1779
 7180TIP3   OH243030   1.886   0.863   4.513  0.9015 -1.0964 -0.2404
 7180TIP3    H143031   1.967   0.840   4.467 -0.4838 -0.2943 -3.2554
 7180TIP3    H243032   1.829   0.787   4.501  0.1864 -0.4981 -0.7394
 7181TIP3   OH243033   4.729   5.317   3.353  0.4853 -0.3221 -0.7922
 7181TIP3    H143034   4.762   5.286   3.437  1.7521 -0.9666 -1.5022
 7181TIP3    H243035   4.797   5.293   3.290  0.7328  2.3687 -1.6594
 7182TIP3   OH243036   3.937   0.992  14.897  0.3582  0.0399 -0.2930
 7182TIP3    H143037   3.922   0.913  14.949  1.3587  0.9978  1.5580
 7182TIP3    H243038   4.031   1.006  14.902  0.0135  2.3157  0.9841
 7183TIP3   OH243039   5.696   6.210  12.387  0.3703  0.0435  0.1200
 7183TIP3    H143040   5.707   6.253  12.302  1.6736 -4.2435 -2.1993
 7183TIP3    H243041   5.776   6.233  12.436  0.3722  1.2842 -0.4207
 7184TIP3   OH243042   2.148   0.919   5.523 -0.1169  0.8359 -0.0490
 7184TIP3    H143043   2.147   0.900   5.429 -0.5461  1.4135 -0.1620
 7184TIP3    H243044   2.231   0.881   5.554 -0.2445  0.1323 -0.5490
 7185TIP3   OH243045   2.869   1.535  14.430  0.0330 -0.5596  0.1438
 7185TIP3    H143046   2.908   1.557  14.515  1.3038  0.4846 -0.6538
 7185TIP3    H243047   2.797   1.597  14.420  0.6316  0.1337 -0.0267
 7186TIP3   OH243048   6.473   1.874  15.245  0.4226  0.0564  0.2043
 7186TIP3    H143049   6.539   1.884  15.313 -0.2638  2.6286  0.5805
 7186TIP3    H243050   6.395   1.843  15.291  1.1063 -2.4200 -0.1552
 7187TIP3   OH243051   6.153   0.930   4.641 -0.3594  0.2976  0.1571
 7187TIP3    H143052   6.237   0.920   4.685  0.5659 -0.8075 -1.7433
 7187TIP3    H243053   6.121   1.015   4.670  1.0491  0.4119  1.4944
 7188TIP3   OH243054   5.570   1.513   5.368  0.5417  0.2389  0.4809
 7188TIP3    H143055   5.563   1.601   5.330  1.0174 -0.0420 -0.2827
 7188TIP3    H243056   5.634   1.468   5.312  0.8825 -0.3487  1.3265
 7189TIP3   OH243057   2.294   0.069   6.868 -0.5074  0.2760  0.5228
 7189TIP3    H143058   2.307  -0.021   6.899  0.3496 -0.3901 -1.5319
 7189TIP3    H243059   2.207   0.069   6.830 -0.1843  0.0404 -0.2414
 7190TIP3   OH243060   0.158   3.922   5.481 -0.0311  0.1926 -0.3565
 7190TIP3    H143061   0.221   3.908   5.552  0.1907 -0.1194 -0.6145
 7190TIP3    H243062   0.114   4.004   5.505 -0.2522 -0.1188  0.3566
 7191TIP3   OH243063   1.792   2.368  14.056 -0.0491 -0.5897 -0.2889
 7191TIP3    H143064   1.706   2.383  14.016  0.0043  2.2780  0.4559
 7191TIP3    H243065   1.849   2.348  13.982 -0.9587 -0.5960 -1.0177
 7192TIP3   OH243066   5.786   4.951  13.527 -0.1851  0.0660 -0.0436
 7192TIP3    H143067   5.815   5.018  13.590  3.5165 -2.0766  0.8536
 7192TIP3    H243068   5.740   4.887  13.581  0.0376 -0.1487 -0.1072
 7193TIP3   OH243069   0.794   4.220   1.093 -0.1888 -0.4440  0.2880
 7193TIP3    H143070   0.725   4.173   1.047 -1.1624  0.3599  0.9026
 7193TIP3    H243071   0.866   4.224   1.029 -0.6605 -1.3571 -0.3290
 7194TIP3   OH243072   1.777   2.802   3.982 -0.5727  0.4072  0.1484
 7194TIP3    H143073   1.692   2.760   3.968 -1.1402  1.1953  1.0969
 7194TIP3    H243074   1.780   2.819   4.076  0.0755  1.5572 -0.0653
 7195TIP3   OH243075   3.174   2.748  11.146  0.8876  0.0934 -0.6362
 7195TIP3    H143076   3.213   2.742  11.233  0.0994 -0.6184 -0.3209
 7195TIP3    H243077   3.118   2.826  11.150  0.9399  0.1265 -0.5437
 7196TIP3   OH243078   0.711   2.901   3.388  0.1132  0.3032  0.2191
 7196TIP3    H143079   0.659   2.895   3.468  0.3573  1.9128  0.5163
 7196TIP3    H243080   0.674   2.976   3.341  1.3621  0.6954 -0.1581
 7197TIP3   OH243081   0.185   0.573  14.546  0.2899  0.6074  0.1651
 7197TIP3    H143082   0.242   0.590  14.471  2.0600 -0.1598  1.2547
 7197TIP3    H243083   0.098   0.602  14.518  1.1355  1.4970 -1.7075
 7198TIP3   OH243084   0.300   0.614   0.363 -0.1022  0.7390 -0.4896
 7198TIP3    H143085   0.258   0.606   0.449  0.3710 -2.0229 -0.4071
 7198TIP3    H243086   0.394   0.610   0.383  0.0034 -0.2154 -1.1324
 7199TIP3   OH243087   4.186   2.820  14.411  0.2718 -0.0464  0.0312
 7199TIP3    H143088   4.127   2.778  14.348  0.3696 -1.4666  0.8370
 7199TIP3    H243089   4.188   2.912  14.385 -1.5990 -0.1319 -0.5626
 7200TIP3   OH243090   0.310   1.914  14.270 -0.1327  0.4018 -0.1281
 7200TIP3    H143091   0.291   1.887  14.360  4.1151 -0.3328  0.7410
 7200TIP3    H243092   0.329   1.832  14.224  1.7308  1.0167 -0.5266
 7201TIP3   OH243093   1.956   2.619   1.016 -0.5619  0.0979  0.3026
 7201TIP3    H143094   1.889   2.586   1.076  0.3152 -0.9994  0.6963
 7201TIP3    H243095   1.907   2.676   0.956 -2.3603 -2.5961 -0.9992
 7202TIP3   OH243096   5.906   5.721   0.805  0.2492  0.4621 -0.2892
 7202TIP3    H143097   5.953   5.643   0.774  0.1668  0.2062  0.2113
 7202TIP3    H243098   5.972   5.772   0.852  0.1251  0.3054  0.0582
 7203TIP3   OH243099   1.111   6.474  11.578 -0.3220  0.1823 -0.4172
 7203TIP3    H143100   1.031   6.500  11.532  0.0878  0.9392 -0.7073
 7203TIP3    H243101   1.181   6.485  11.514  0.4608  2.5367  0.7204
 7204TIP3   OH243102   4.521   5.964   0.719  0.1176  0.8781 -0.1095
 7204TIP3    H143103   4.464   5.901   0.675 -2.2576  1.0000  2.4848
 7204TIP3    H243104   4.586   5.909   0.764 -1.7420  0.1220  1.8761
 7205TIP3   OH243105   4.235   4.762  14.065  0.0017 -0.0413 -0.2076
 7205TIP3    H143106   4.292   4.825  14.109  0.9772 -2.0510  1.6553
 7205TIP3    H243107   4.148   4.801  14.071  0.7823  1.9222 -0.7900
 7206TIP3   OH243108   3.023   2.582   0.690 -0.2617 -0.4470  0.2436
 7206TIP3    H143109   3.025   2.611   0.782  1.6405 -0.8840  0.3988
 7206TIP3    H243110   3.116   2.570   0.668 -0.7246 -0.9153 -1.5678
 7207TIP3   OH243111   0.096   6.552   5.250  0.0550  0.2845 -0.1059
 7207TIP3    H143112   0.110   6.572   5.342  2.2860 -0.9147 -0.1258
 7207TIP3    H243113   0.175   6.586   5.206  0.0899 -1.1788 -1.2348
 7208TIP3   OH243114   5.460   0.671  15.490  0.0093 -0.2482  0.4007
 7208TIP3    H143115   5.505   0.668  15.575 -1.7084 -0.2274  1.3694
 7208TIP3    H243116   5.371   0.642  15.510  0.0704 -2.1477 -1.7850
 7209TIP3   OH243117   5.497   5.663   0.823  0.4329  0.7356 -0.2131
 7209TIP3    H143118   5.481   5.725   0.895  0.1112  1.9263 -1.2634
 7209TIP3    H243119   5.443   5.587   0.844  1.3361  0.5024  1.4476
 7210TIP3   OH243120   4.172   4.648  15.092 -0.1340  0.0887 -1.0252
 7210TIP3    H143121   4.221   4.592  15.032  2.5163  1.4774 -0.3150
 7210TIP3    H243122   4.199   4.737  15.070 -1.0994  0.8141  0.5205
 7211TIP3   OH243123   2.099   5.956   2.266  0.1728  0.8110  0.8310
 7211TIP3    H143124   2.135   5.940   2.179 -0.1825  1.6682  0.5164
 7211TIP3    H243125   2.106   5.872   2.311  0.4685  0.3919  0.0153
 7212TIP3   OH243126   6.419   3.570   0.931 -0.1214  0.3233 -0.3248
 7212TIP3    H143127   6.478   3.609   0.867 -0.2144  0.5755 -0.2608
 7212TIP3    H243128   6.352   3.526   0.879 -1.4404  2.3470 -0.4757
 7213TIP3   OH243129   4.041   1.971  11.207 -0.6545 -0.4220  0.1013
 7213TIP3    H143130   4.042   1.921  11.125  1.0400 -0.3722  0.0494
 7213TIP3    H243131   3.952   1.961  11.240 -1.1012 -1.2485 -1.2551
 7214TIP3   OH243132   2.457   4.859   6.892  0.1765 -0.3373  0.6045
 7214TIP3    H143133   2.486   4.943   6.857  1.3638 -1.7016 -1.9611
 7214TIP3    H243134   2.538   4.812   6.913 -0.2425 -2.0630 -1.2606
 7215TIP3   OH243135   5.702   3.586   2.939  0.0572  0.4139  0.2440
 7215TIP3    H143136   5.667   3.675   2.945  1.3895  0.8641  1.8233
 7215TIP3    H243137   5.625   3.529   2.948 -0.5892  1.3917  1.1120
 7216TIP3   OH243138   0.984   5.096  16.911 -0.0451 -0.3009  0.2362
 7216TIP3    H143139   0.931   5.159  16.960  0.2652 -0.7513  1.1656
 7216TIP3    H243140   1.017   5.035  16.977 -0.0156 -1.2162 -0.6008
 7217TIP3   OH243141   3.665   0.427  11.631 -0.0052 -0.1118 -0.5598
 7217TIP3    H143142   3.626   0.415  11.544  1.0850 -2.0622 -0.8475
 7217TIP3    H243143   3.618   0.366  11.687  1.5819 -1.4185 -0.5901
 7218TIP3   OH243144   1.895   0.698  15.443 -0.2669  0.3448  0.0180
 7218TIP3    H143145   1.909   0.787  15.475 -0.7303  0.0929  0.9614
 7218TIP3    H243146   1.812   0.702  15.396  0.3799  0.7003 -1.1305
 7219TIP3   OH243147   6.584   1.568   3.350  0.1214 -0.9696  0.2588
 7219TIP3    H143148   6.536   1.535   3.426 -0.8128  0.4968  0.3457
 7219TIP3    H243149   6.522   1.559   3.277  0.2838 -0.5356  0.0649
 7220TIP3   OH243150   2.483   6.358   3.084 -0.1915  0.3969  0.1090
 7220TIP3    H143151   2.535   6.343   3.164 -0.6976  1.0896  0.5783
 7220TIP3    H243152   2.543   6.334   3.013  0.2542 -0.2785  0.6880
 7221TIP3   OH243153   4.627   4.018   1.581 -0.2090  0.8031  0.1915
 7221TIP3    H143154   4.600   3.971   1.660 -0.5893 -0.7495 -0.8369
 7221TIP3    H243155   4.555   4.006   1.519  2.2845 -2.9252 -2.4045
 7222TIP3   OH243156   2.593   2.986  11.231  0.7679  0.1683 -0.4680
 7222TIP3    H143157   2.502   3.015  11.240  0.6032 -0.2011 -0.9045
 7222TIP3    H243158   2.596   2.943  11.146  1.3825  0.2810 -0.5065
 7223TIP3   OH243159   3.148   4.045  15.226  0.3818 -0.5984 -0.7429
 7223TIP3    H143160   3.213   4.094  15.276 -0.8726 -0.0064  0.4100
 7223TIP3    H243161   3.072   4.039  15.286 -0.1029 -2.5243 -1.4706
 7224TIP3   OH243162   1.553   1.960  11.531  0.2943  0.3628 -0.4118
 7224TIP3    H143163   1.581   2.030  11.472  0.4589 -0.3219 -1.1651
 7224TIP3    H243164   1.518   1.893  11.473  0.9323 -0.5409  0.2245
 7225TIP3   OH243165   6.053   2.107  16.898  0.3079 -0.0737 -1.1444
 7225TIP3    H143166   6.004   2.132  16.976  0.0597 -0.1663 -1.2689
 7225TIP3    H243167   6.068   2.013  16.907 -0.8763 -0.3477 -1.8357
 7226TIP3   OH243168   4.733   4.868   3.213  0.2516 -0.4853  0.0679
 7226TIP3    H143169   4.765   4.779   3.225  2.1946  0.3702  1.9214
 7226TIP3    H243170   4.719   4.901   3.302 -1.5243  0.7272 -0.5838
 7227TIP3   OH243171   1.598   0.826  12.555 -0.4611  0.1229  0.2745
 7227TIP3    H143172   1.585   0.904  12.502 -1.0403 -1.1080 -1.4785
 7227TIP3    H243173   1.510   0.803  12.586 -0.6416 -0.9732 -0.9576
 7228TIP3   OH243174   4.556   6.363   1.371  0.0195 -0.5194  0.2040
 7228TIP3    H143175   4.600   6.380   1.455 -0.9646 -1.0776  0.8572
 7228TIP3    H243176   4.552   6.267   1.366  1.3190 -0.5345 -1.1769
 7229TIP3   OH243177   6.305   2.104  15.500 -0.1955 -0.1661  0.2171
 7229TIP3    H143178   6.331   2.159  15.574 -2.6502 -0.8324  1.7080
 7229TIP3    H243179   6.315   2.161  15.424  1.0518  1.0229  1.2047
 7230TIP3   OH243180   6.563   3.224  10.741  0.5534  0.7787 -0.4269
 7230TIP3    H143181   6.482   3.240  10.692  0.7675  1.2234 -0.6394
 7230TIP3    H243182   6.630   3.271  10.692  0.5074  2.7222  1.2364
 7231TIP3   OH243183   5.128   0.078   3.463  0.3025 -0.3068 -0.3413
 7231TIP3    H143184   5.160   0.168   3.450 -3.4536  1.3814  0.6187
 7231TIP3    H243185   5.156   0.055   3.552 -1.5233  1.4151  0.7685
 7232TIP3   OH243186   5.705   2.596  12.980 -0.1004 -0.1912  0.3634
 7232TIP3    H143187   5.674   2.631  12.896  0.3528 -1.1801 -0.2383
 7232TIP3    H243188   5.756   2.518  12.956  1.3891  0.3943  1.4278
 7233TIP3   OH243189   0.470   0.675   4.480  0.2337  0.1424  0.4214
 7233TIP3    H143190   0.565   0.685   4.490  0.1729  2.2858 -0.6758
 7233TIP3    H243191   0.435   0.762   4.492 -1.8830 -0.9276  2.8476
 7234TIP3   OH243192   0.286   3.826  16.177 -0.7609  0.1346  0.6437
 7234TIP3    H143193   0.244   3.745  16.207 -1.4320  0.5972  0.9832
 7234TIP3    H243194   0.270   3.888  16.248  1.7535 -0.0343  1.4564
 7235TIP3   OH243195   1.036   6.092  12.992  0.1201 -0.2775  0.0773
 7235TIP3    H143196   1.115   6.145  13.004 -0.0999 -0.4017  2.5723
 7235TIP3    H243197   1.045   6.022  13.056 -0.6200 -2.0675 -1.6866
 7236TIP3   OH243198   2.485   6.403  12.878 -0.3100 -0.3546  0.2563
 7236TIP3    H143199   2.507   6.491  12.909  0.9252 -1.0269  1.4006
 7236TIP3    H243200   2.505   6.346  12.952  0.7798 -1.8199 -1.1110
 7237TIP3   OH243201   1.370   1.884  13.121  0.2661  0.2487 -0.1058
 7237TIP3    H143202   1.433   1.886  13.193 -0.6019  1.7185  0.6603
 7237TIP3    H243203   1.382   1.966  13.075  0.2019 -0.2942 -1.1254
 7238TIP3   OH243204   5.946   0.119   0.801 -0.2218  0.0939  0.6464
 7238TIP3    H143205   5.949   0.158   0.713 -2.9220  1.5334  1.1094
 7238TIP3    H243206   5.928   0.192   0.860 -1.0842 -1.2221  2.0924
 7239TIP3   OH243207   0.756   5.542  12.799 -0.5029  0.3325  0.4855
 7239TIP3    H143208   0.748   5.543  12.704 -1.0942 -0.5761  0.5133
 7239TIP3    H243209   0.732   5.631  12.827 -2.0386  0.1203 -0.0925
 7240TIP3   OH243210   1.360   1.461  15.414 -0.7632  0.0471 -0.5750
 7240TIP3    H143211   1.345   1.488  15.324 -0.9605 -0.6532 -0.7560
 7240TIP3    H243212   1.405   1.536  15.455  1.1393 -0.3724 -1.7642
 7241TIP3   OH243213   2.609   5.870  14.232  0.2986  0.9737  0.1312
 7241TIP3    H143214   2.614   5.953  14.280  0.4457  1.0701 -0.0429
 7241TIP3    H243215   2.517   5.844  14.237  0.4689  0.5440  1.1776
 7242TIP3   OH243216   6.548   4.931   5.763  0.4545 -0.2218 -0.2580
 7242TIP3    H143217   6.640   4.946   5.785  0.2619  1.0064 -0.2369
 7242TIP3    H243218   6.550   4.902   5.672  0.8268  0.5648 -0.5131
 7243TIP3   OH243219   6.814   1.497   4.057  0.7394 -0.3456 -0.6003
 7243TIP3    H143220   6.824   1.570   4.119 -1.6767 -0.8120  0.4504
 7243TIP3    H243221   6.808   1.538   3.971  0.2626  0.6278 -0.1119
 7244TIP3   OH243222   6.476   3.473  13.079  0.4816 -0.4267 -0.1913
 7244TIP3    H143223   6.495   3.525  13.000  2.1805 -1.4825 -0.5189
 7244TIP3    H243224   6.390   3.436  13.062  0.0183  0.8121 -0.7284
 7245TIP3   OH243225   6.046   3.467  15.320 -0.2065 -0.2332  0.6946
 7245TIP3    H143226   6.133   3.506  15.311 -0.5742  0.3182 -0.7121
 7245TIP3    H243227   6.004   3.482  15.235 -0.6720 -2.9660  0.3566
 7246TIP3   OH243228   1.199   1.652   2.925  0.5653  0.0754 -0.1835
 7246TIP3    H143229   1.223   1.732   2.971 -2.2554 -0.6055  2.8067
 7246TIP3    H243230   1.262   1.587   2.955 -0.0078  0.1266  1.2069
 7247TIP3   OH243231   2.426   5.177  17.005 -0.1065  0.1022 -0.2141
 7247TIP3    H143232   2.381   5.253  17.041 -0.5657 -0.4073  0.3089
 7247TIP3    H243233   2.438   5.197  16.913 -0.0692  0.8822 -0.0433
 7248TIP3   OH243234   2.799   1.484  16.942 -0.2848 -0.3144 -0.0725
 7248TIP3    H143235   2.855   1.453  17.014  1.4165  1.6562 -0.4623
 7248TIP3    H243236   2.715   1.500  16.983  0.6576  0.8027  1.5353
 7249TIP3   OH243237   5.415   0.830   0.085  0.5004 -0.2700 -0.7108
 7249TIP3    H143238   5.456   0.814  -0.000 -0.2509 -3.3932 -0.5916
 7249TIP3    H243239   5.406   0.743   0.124 -3.5972  0.4829  0.4872
 7250TIP3   OH243240   2.117   0.286   4.607 -0.3579  0.6476 -0.6560
 7250TIP3    H143241   2.063   0.212   4.580  0.2986 -0.4642  0.9153
 7250TIP3    H243242   2.151   0.261   4.693  3.4303  0.8158 -1.8808
 7251TIP3   OH243243   1.458   5.779   2.959 -0.4160 -0.2915  0.0566
 7251TIP3    H143244   1.503   5.695   2.956 -0.7443 -0.4407 -0.8680
 7251TIP3    H243245   1.528   5.844   2.956 -0.1225 -0.5047  1.3438
 7252TIP3   OH243246   5.152   2.814  15.822 -0.7524  0.3514 -0.4357
 7252TIP3    H143247   5.086   2.859  15.875 -1.4793 -0.9673 -0.1686
 7252TIP3    H243248   5.235   2.831  15.866 -0.9124  1.9173 -0.6929
 7253TIP3   OH243249   4.371   3.200   5.440  0.5487  0.0821  0.0249
 7253TIP3    H143250   4.369   3.244   5.525  0.5970 -0.7927  0.4928
 7253TIP3    H243251   4.455   3.224   5.402  0.2224  1.0588 -0.0992
 7254TIP3   OH243252   0.638   3.514   1.591 -0.2317 -0.6313  0.2850
 7254TIP3    H143253   0.733   3.517   1.583 -0.1765  2.1574  1.0194
 7254TIP3    H243254   0.611   3.605   1.596 -3.0244 -1.3191 -0.3704
 7255TIP3   OH243255   6.722   0.618  15.975 -0.4246 -0.0104  0.0735
 7255TIP3    H143256   6.753   0.553  15.912  0.5385  0.5690 -0.0722
 7255TIP3    H243257   6.795   0.630  16.035 -1.2409 -0.3607  1.1648
 7256TIP3   OH243258   0.469   6.086   2.532  0.2169  0.4774 -0.3997
 7256TIP3    H143259   0.398   6.095   2.469 -0.0535  1.4775  0.0150
 7256TIP3    H243260   0.537   6.144   2.499  0.4477  0.2734 -0.2797
 7257TIP3   OH243261   2.467   0.592  13.631  0.1048  0.1162  0.2046
 7257TIP3    H143262   2.547   0.561  13.673 -0.1279  1.4929  1.7515
 7257TIP3    H243263   2.427   0.513  13.594  2.5881 -0.4750 -1.4182
 7258TIP3   OH243264   5.143   2.081  12.308 -0.6045  0.1183  0.1941
 7258TIP3    H143265   5.191   2.156  12.344  0.0274 -0.0807 -0.2125
 7258TIP3    H243266   5.193   2.004  12.336 -1.4604 -0.1794  0.9240
 7259TIP3   OH243267   2.961   6.808   2.298  0.2953 -0.1019 -0.0950
 7259TIP3    H143268   2.970   6.886   2.243 -1.0192  0.9843  1.1384
 7259TIP3    H243269   2.868   6.787   2.294  0.5997 -1.4985 -0.2372
 7260TIP3   OH243270   2.418   6.633   3.089 -0.0476  0.5998 -0.5354
 7260TIP3    H143271   2.444   6.637   2.996  1.1993  1.1380 -0.1877
 7260TIP3    H243272   2.439   6.543   3.115  0.3820  0.6865 -0.5682
 7261TIP3   OH243273   5.140   6.314  13.932  0.2090 -0.1592  0.0189
 7261TIP3    H143274   5.075   6.332  13.864  0.2022  2.4281  0.5948
 7261TIP3    H243275   5.089   6.291  14.009  0.1574 -1.4366 -0.3694
 7262TIP3   OH243276   0.753   1.191   3.557 -0.4082  0.0409 -0.1471
 7262TIP3    H143277   0.824   1.127   3.544 -0.7344 -0.6958  1.4755
 7262TIP3    H243278   0.692   1.173   3.486  0.4412 -0.1231 -0.8625
 7263TIP3   OH243279   2.990   4.005   5.218 -0.4193 -0.2135  0.0781
 7263TIP3    H143280   2.912   3.950   5.227  0.1083 -0.6909  2.2135
 7263TIP3    H243281   3.064   3.945   5.228  0.1967  0.5286  0.1272
 7264TIP3   OH243282   6.356   3.787  15.867  0.3394  0.2244  0.3487
 7264TIP3    H143283   6.443   3.798  15.905  0.9245  2.0077 -1.3694
 7264TIP3    H243284   6.342   3.865  15.813 -1.7890 -0.6308 -0.4746
 7265TIP3   OH243285   2.383   3.291   4.019 -0.1085  0.0434  0.2997
 7265TIP3    H143286   2.394   3.275   3.925 -1.8122 -0.4325  0.1514
 7265TIP3    H243287   2.442   3.229   4.061 -1.2342 -1.5916 -0.4315
 7266TIP3   OH243288   6.639   3.241  12.945  0.0762  0.3189 -0.3313
 7266TIP3    H143289   6.596   3.265  13.026  0.4371  1.4370 -0.4641
 7266TIP3    H243290   6.605   3.302  12.880  1.2582  0.7111 -0.6021
 7267TIP3   OH243291   6.830   3.048  12.996 -0.4246 -0.1560  0.0746
 7267TIP3    H143292   6.769   3.114  12.964 -1.5024 -1.9130 -1.7035
 7267TIP3    H243293   6.790   3.016  13.077 -0.1551  0.9438  0.6731
 7268TIP3   OH243294   4.158   5.135   2.050  0.4917 -0.4731 -0.0041
 7268TIP3    H143295   4.242   5.114   2.010  0.1941 -1.5426 -0.0995
 7268TIP3    H243296   4.094   5.118   1.981  0.1904  0.3724  0.0563
 7269TIP3   OH243297   5.511   5.903   1.387  0.8688  0.2572 -0.4953
 7269TIP3    H143298   5.525   5.818   1.428  1.1174  0.3420 -0.4069
 7269TIP3    H243299   5.416   5.906   1.370  0.8063  0.1148 -0.1706
 7270TIP3   OH243300   4.317   6.096  16.882  0.3858  0.8925  0.8452
 7270TIP3    H143301   4.386   6.146  16.926  2.0730 -0.1701 -0.4670
 7270TIP3    H243302   4.338   6.004  16.899  0.1690  0.5027 -0.7859
 7271TIP3   OH243303   4.214   0.406   4.613  0.5485  0.6494  0.0899
 7271TIP3    H143304   4.223   0.333   4.674  0.6388  0.0808 -0.5880
 7271TIP3    H243305   4.236   0.368   4.528 -1.4919  0.9080 -0.6153
 7272TIP3   OH243306   4.861   6.410   3.403 -0.5645 -0.2201  0.2437
 7272TIP3    H143307   4.931   6.420   3.338 -0.1499 -2.6798  0.2087
 7272TIP3    H243308   4.894   6.456   3.480  0.4358 -0.0830 -0.2356
 7273TIP3   OH243309   4.004   1.380   5.334  0.2206 -0.2601  0.4415
 7273TIP3    H143310   3.959   1.461   5.357 -1.7281 -1.2066  0.1216
 7273TIP3    H243311   4.073   1.408   5.274  0.0960  1.2411  0.9385
 7274TIP3   OH243312   3.372   6.309   1.881 -0.3455 -0.4256 -0.1479
 7274TIP3    H143313   3.331   6.268   1.957  0.8860 -1.1852  0.1371
 7274TIP3    H243314   3.440   6.247   1.855 -1.1588 -0.4819 -2.2769
 7275TIP3   OH243315   2.273   1.052  14.360 -0.1197 -0.3537 -0.0472
 7275TIP3    H143316   2.268   1.144  14.386  0.8282  0.1939 -1.6550
 7275TIP3    H243317   2.182   1.023  14.357 -0.3551 -0.0585  2.3256
 7276TIP3   OH243318   3.829   5.091  12.790 -0.7455  0.4530  0.6498
 7276TIP3    H143319   3.816   5.061  12.700  0.0540  0.8848  0.3722
 7276TIP3    H243320   3.752   5.061  12.837 -1.0550 -0.0044 -0.1248
 7277TIP3   OH243321   5.044   5.335   3.785  0.5004 -0.6612  0.1605
 7277TIP3    H143322   4.980   5.271   3.817 -1.3988 -0.6495 -3.1814
 7277TIP3    H243323   5.001   5.420   3.795 -0.7962 -0.7509 -3.3226
 7278TIP3   OH243324   0.427   3.952   5.098 -0.2926 -0.1757 -0.6153
 7278TIP3    H143325   0.346   4.003   5.097 -0.4768 -0.4644 -2.1198
 7278TIP3    H243326   0.415   3.888   5.169 -1.5185 -0.4261 -1.0344
 7279TIP3   OH243327   4.847   1.482  13.756  0.0891 -0.3318 -0.1918
 7279TIP3    H143328   4.831   1.467  13.849  0.4919 -0.0778 -0.0752
 7279TIP3    H243329   4.776   1.437  13.712  0.0525 -0.6933  0.2288
 7280TIP3   OH243330   1.032   4.534   6.338  0.2542  0.1015  0.0033
 7280TIP3    H143331   1.094   4.585   6.391  0.8614  1.1756 -1.6520
 7280TIP3    H243332   0.954   4.589   6.333  0.1192 -0.0939 -0.0522
 7281TIP3   OH243333   1.750   3.076   3.383 -0.7233  0.0690 -0.0121
 7281TIP3    H143334   1.672   3.056   3.435 -0.2917 -1.0294  0.2567
 7281TIP3    H243335   1.808   3.121   3.444 -0.6706 -0.2051  0.1440
 7282TIP3   OH243336   2.760   6.790   1.381  0.1801 -0.3779 -0.3948
 7282TIP3    H143337   2.701   6.744   1.321 -0.7334  0.6743 -0.3479
 7282TIP3    H243338   2.848   6.767   1.350 -0.2486 -1.5882 -0.7698
 7283TIP3   OH243339   6.500   1.470  13.548  0.1657 -0.1827  0.7776
 7283TIP3    H143340   6.460   1.484  13.634 -0.1088 -0.9221  0.7725
 7283TIP3    H243341   6.556   1.393  13.559 -1.1453 -1.3180 -0.1069
 7284TIP3   OH243342   5.570   4.409   1.227  0.2171  0.1370  0.1935
 7284TIP3    H143343   5.584   4.372   1.315  0.0572 -0.9887 -0.2401
 7284TIP3    H243344   5.627   4.357   1.170 -2.0074 -1.2920 -0.8646
 7285TIP3   OH243345   5.796   6.772  11.682  0.4798  0.3971  0.1916
 7285TIP3    H143346   5.879   6.800  11.720  1.0676 -1.0574  0.0638
 7285TIP3    H243347   5.821   6.724  11.603 -0.3755 -1.1541  0.8220
 7286TIP3   OH243348   0.555   3.495   2.559 -0.0098  0.4885 -0.3686
 7286TIP3    H143349   0.461   3.502   2.538 -0.0071  2.0920  0.0302
 7286TIP3    H243350   0.557   3.462   2.649 -0.1930  0.6769 -0.2946
 7287TIP3   OH243351   0.634   4.930  11.770 -0.0190 -0.1880  0.2107
 7287TIP3    H143352   0.558   4.889  11.729 -0.7985  0.8452  0.5801
 7287TIP3    H243353   0.692   4.952  11.697 -0.8148  0.4633 -0.2436
 7288TIP3   OH243354   3.741   1.870   0.795 -0.3407  0.6670  0.0072
 7288TIP3    H143355   3.702   1.943   0.747 -0.3975  0.3213 -0.4807
 7288TIP3    H243356   3.829   1.863   0.759 -0.5583  0.0755 -0.4180
 7289TIP3   OH243357   0.029   6.372  12.921  0.5705  0.1172 -0.1551
 7289TIP3    H143358   0.072   6.457  12.921  1.6128 -0.3813  1.4031
 7289TIP3    H243359   0.076   6.321  12.854  1.2723  0.1249  0.3280
 7290TIP3   OH243360   4.538   5.178  10.655 -0.1585  0.1464  0.0124
 7290TIP3    H143361   4.471   5.187  10.723  0.5217  0.7548  0.6260
 7290TIP3    H243362   4.608   5.237  10.683  0.3035  0.1071 -1.0213
 7291TIP3   OH243363   4.980   2.063  13.813 -0.0634 -0.2930  0.2462
 7291TIP3    H143364   4.956   2.156  13.805 -0.2924 -0.4506 -1.1085
 7291TIP3    H243365   5.073   2.061  13.793 -0.2355 -0.4422 -0.6042
 7292TIP3   OH243366   6.080   4.258   2.783 -0.1417 -0.5584 -0.1893
 7292TIP3    H143367   6.135   4.233   2.708 -1.2555  0.5225 -1.4302
 7292TIP3    H243368   6.074   4.353   2.776  0.5804 -0.3129  1.9299
 7293TIP3   OH243369   2.994   4.453  15.344 -0.1799  0.2271  0.4299
 7293TIP3    H143370   3.008   4.435  15.251  1.2658  2.8810  0.0563
 7293TIP3    H243371   2.947   4.375  15.376 -0.8091 -0.7325 -2.4958
 7294TIP3   OH243372   0.194   2.442   5.202  0.3348 -0.0390  0.0994
 7294TIP3    H143373   0.107   2.471   5.176 -0.0623  1.6084  2.8014
 7294TIP3    H243374   0.236   2.415   5.121 -2.6595 -0.8997 -1.2969
 7295TIP3   OH243375   2.728   1.160  15.639 -0.5453  0.6141  0.0643
 7295TIP3    H143376   2.811   1.158  15.591 -0.2289 -0.5620  0.6341
 7295TIP3    H243377   2.661   1.149  15.571 -0.1440 -0.1038 -0.2236
 7296TIP3   OH243378   0.454   5.853  13.263 -0.0722 -0.2023  0.1509
 7296TIP3    H143379   0.490   5.861  13.351  0.6653  1.3187 -0.2577
 7296TIP3    H243380   0.500   5.920  13.212 -0.3543 -1.1520 -1.4380
 7297TIP3   OH243381   0.356   3.385   3.366 -0.2784  0.2322  0.0335
 7297TIP3    H143382   0.406   3.358   3.289 -2.8591 -0.3080 -1.5953
 7297TIP3    H243383   0.352   3.306   3.421  2.0290  0.7676  1.1144
 7298TIP3   OH243384   2.938   6.242   5.444  0.5594  0.1351 -0.6022
 7298TIP3    H143385   2.915   6.214   5.355  2.6202  0.3033 -1.2586
 7298TIP3    H243386   2.986   6.323   5.432  2.1098 -0.5612  0.5070
 7299TIP3   OH243387   2.443   3.514   2.785  0.3259  0.0988 -0.4497
 7299TIP3    H143388   2.495   3.434   2.781 -0.0712 -0.4556  2.5174
 7299TIP3    H243389   2.491   3.570   2.846 -1.1737  0.6132  0.3146
 7300TIP3   OH243390   1.911   5.810   4.925 -0.6340 -0.3049 -0.7402
 7300TIP3    H143391   1.865   5.893   4.935 -0.5229 -0.5485  2.9873
 7300TIP3    H243392   2.004   5.833   4.934 -0.6206 -0.8442  0.5792
 7301TIP3   OH243393   6.183   0.919  11.599  0.0194  0.2451 -0.0310
 7301TIP3    H143394   6.218   0.896  11.685 -1.1207  1.2340  0.7244
 7301TIP3    H243395   6.203   1.012  11.589 -1.1920  0.5075 -0.1477
 7302TIP3   OH243396   4.666   4.781   1.518 -0.9069  0.0693  0.3155
 7302TIP3    H143397   4.642   4.722   1.590 -0.8712  0.9501  1.0688
 7302TIP3    H243398   4.633   4.738   1.439 -0.6433 -1.0877  0.8102
 7303TIP3   OH243399   4.726   2.896   3.415 -0.0522  0.3364 -0.2392
 7303TIP3    H143400   4.785   2.885   3.490 -0.5238  0.6511  0.1777
 7303TIP3    H243401   4.692   2.808   3.400  0.8579  0.0585 -0.7676
 7304TIP3   OH243402   3.172   5.804  13.618 -0.6183  0.0757 -0.0295
 7304TIP3    H143403   3.124   5.751  13.683  0.2940 -0.8707 -0.1024
 7304TIP3    H243404   3.178   5.891  13.658 -0.9676 -0.2223  0.7002
 7305TIP3   OH243405   0.958   6.173  14.183  0.1171 -0.1575  0.0104
 7305TIP3    H143406   1.030   6.208  14.236  1.2469 -1.0896 -0.8616
 7305TIP3    H243407   0.985   6.083  14.162 -0.7899 -0.1580 -1.2570
 7306TIP3   OH243408   6.072   0.211   0.531 -0.5831  0.8010  0.0176
 7306TIP3    H143409   6.061   0.306   0.528 -4.0406  0.5011 -0.4181
 7306TIP3    H243410   6.057   0.182   0.441 -1.9355 -0.2901  0.5560
 7307TIP3   OH243411   0.135   2.199  12.402  0.3302  0.2347 -0.1883
 7307TIP3    H143412   0.071   2.135  12.370  1.1479 -0.4660 -0.4597
 7307TIP3    H243413   0.099   2.228  12.486  1.1090 -2.4408  1.1948
 7308TIP3   OH243414   3.671   2.311  13.147 -0.4162 -0.1892  0.1155
 7308TIP3    H143415   3.622   2.381  13.191 -1.5218 -0.8257 -0.0469
 7308TIP3    H243416   3.610   2.237  13.145  0.8689 -1.3119  0.6679
 7309TIP3   OH243417   4.560   5.872  15.088 -0.0735 -0.6075  0.3086
 7309TIP3    H143418   4.597   5.961  15.088 -2.0336  0.2833 -0.6798
 7309TIP3    H243419   4.593   5.833  15.007 -1.8584  0.4960 -1.0251
 7310TIP3   OH243420   2.952   4.356  11.581  0.1291 -0.0217 -0.0362
 7310TIP3    H143421   2.979   4.413  11.508 -2.1274  1.4377  0.1834
 7310TIP3    H243422   2.989   4.398  11.659 -1.1042  0.9401  0.0693
 7311TIP3   OH243423   4.128   1.225  15.573 -0.0364 -0.8383 -0.2997
 7311TIP3    H143424   4.180   1.145  15.567 -0.9660 -1.3764 -1.7167
 7311TIP3    H243425   4.154   1.264  15.657  1.9823 -1.5073 -0.5586
 7312TIP3   OH243426   0.246   0.730   2.935 -0.0097  0.1572 -0.5158
 7312TIP3    H143427   0.250   0.770   3.022  0.1369 -1.0553  0.0604
 7312TIP3    H243428   0.167   0.767   2.895 -0.3979  0.3086  0.3585
 7313TIP3   OH243429   1.485   3.217  14.349 -0.5237  0.2843 -0.1289
 7313TIP3    H143430   1.573   3.184  14.330 -0.6205 -0.8602  1.2354
 7313TIP3    H243431   1.439   3.213  14.265 -0.0755 -1.6948 -0.3265
 7314TIP3   OH243432   4.967   1.773  11.192 -0.5958  0.0928 -0.2279
 7314TIP3    H143433   5.035   1.807  11.134  0.2635 -0.1966  0.5984
 7314TIP3    H243434   4.892   1.757  11.134  0.4348 -0.7587 -1.3698
 7315TIP3   OH243435   0.262   4.216  14.847  0.3269 -0.1865  0.4489
 7315TIP3    H143436   0.248   4.122  14.845  1.5885 -0.3870 -0.7640
 7315TIP3    H243437   0.332   4.229  14.912 -0.0838 -0.0378  0.8678
 7316TIP3   OH243438   5.219   5.527   1.620 -0.1015 -0.2838 -0.3483
 7316TIP3    H143439   5.248   5.597   1.679  0.0456  0.5449 -1.3580
 7316TIP3    H243440   5.272   5.452   1.644  1.5761  0.6703 -0.8851
 7317TIP3   OH243441   6.580   5.656   1.176 -0.1420  0.4714  0.2384
 7317TIP3    H143442   6.486   5.665   1.166 -0.0782  0.7106 -0.1925
 7317TIP3    H243443   6.596   5.670   1.269 -0.6119 -0.3341  0.4479
 7318TIP3   OH243444   2.608   0.226   1.007 -0.1059  0.3751 -0.0390
 7318TIP3    H143445   2.648   0.173   0.938 -0.8792 -0.7299  0.3354
 7318TIP3    H243446   2.682   0.267   1.052  0.4263  0.8695 -1.3053
 7319TIP3   OH243447   1.855   1.262  14.083  0.2112  0.6420  0.5123
 7319TIP3    H143448   1.902   1.202  14.025  1.4961 -0.2400  2.3497
 7319TIP3    H243449   1.852   1.344  14.036  0.5631 -0.2257 -1.0827
 7320TIP3   OH243450   4.023   1.135   4.802  0.1601  0.2969 -0.2483
 7320TIP3    H143451   3.981   1.080   4.736 -2.3319  0.1785  1.2887
 7320TIP3    H243452   3.958   1.141   4.872  1.8460  2.1569  1.2628
 7321TIP3   OH243453   5.753   1.320  14.993  0.2362  0.0147  0.1735
 7321TIP3    H143454   5.776   1.389  15.056  0.5897  0.9493 -0.9382
 7321TIP3    H243455   5.683   1.271  15.035  0.7742  0.3374  1.4747
 7322TIP3   OH243456   4.497   0.923   2.059  0.1024 -0.4609  0.0968
 7322TIP3    H143457   4.590   0.944   2.059  0.3229 -1.3663  0.6891
 7322TIP3    H243458   4.486   0.864   2.133 -1.1234  0.3682  0.6063
 7323TIP3   OH243459   3.847   2.908  16.557 -0.9007  0.3003  0.1206
 7323TIP3    H143460   3.907   2.982  16.550  1.9588 -1.6732  1.7463
 7323TIP3    H243461   3.892   2.836  16.512 -2.8715 -0.8854 -0.0893
 7324TIP3   OH243462   0.109   4.714  13.398 -0.2686  0.0335 -0.3098
 7324TIP3    H143463   0.191   4.689  13.440 -0.1218 -1.6177 -1.4699
 7324TIP3    H243464   0.132   4.789  13.343  0.8892 -1.3629 -1.8383
 7325TIP3   OH243465   6.228   1.210   5.161 -0.4267  0.3696  0.5485
 7325TIP3    H143466   6.244   1.118   5.178  0.8158  0.7737  1.7037
 7325TIP3    H243467   6.202   1.213   5.069 -1.4157 -1.2190  0.7537
 7326TIP3   OH243468   4.095   2.082  13.704 -0.1533  0.3160  0.0656
 7326TIP3    H143469   4.004   2.053  13.704 -0.0173 -0.2468  2.2330
 7326TIP3    H243470   4.103   2.140  13.779  0.9348  1.6544 -1.0149
 7327TIP3   OH243471   2.896   4.915   4.375  0.3955 -0.5863 -0.1319
 7327TIP3    H143472   2.976   4.938   4.422  1.0022  0.5228 -1.6068
 7327TIP3    H243473   2.848   4.997   4.368 -0.3867 -1.0400 -0.1576
 7328TIP3   OH243474   2.677   0.182   5.638 -0.1843 -0.5068 -0.1760
 7328TIP3    H143475   2.670   0.089   5.618  0.0562 -0.6594  0.4093
 7328TIP3    H243476   2.688   0.185   5.734  0.9335  0.0536 -0.2994
 7329TIP3   OH243477   0.435   0.147  13.924  0.3363  0.0398  0.0416
 7329TIP3    H143478   0.373   0.220  13.915  1.2109  0.6702 -1.0520
 7329TIP3    H243479   0.487   0.149  13.844  0.1218 -2.0724 -0.2095
 7330TIP3   OH243480   2.750   2.929   0.406 -0.1749  0.4689  0.6257
 7330TIP3    H143481   2.668   2.899   0.444 -1.0561  2.2174  0.2227
 7330TIP3    H243482   2.813   2.859   0.425 -1.3881 -0.2442  2.2369
 7331TIP3   OH243483   2.529   3.120  13.822  0.0155 -0.6739 -0.5466
 7331TIP3    H143484   2.564   3.045  13.774 -0.1536 -0.8243 -0.4389
 7331TIP3    H243485   2.436   3.121  13.800  0.2053  0.1158 -1.3442
 7332TIP3   OH243486   4.346   4.736  16.434  0.0593  0.3197  0.5227
 7332TIP3    H143487   4.371   4.653  16.392  0.2002 -0.3108  1.8109
 7332TIP3    H243488   4.337   4.797  16.361  1.5527 -0.4160 -0.3431
 7333TIP3   OH243489   0.479   0.349   5.114 -0.1411  0.4955  0.1697
 7333TIP3    H143490   0.417   0.358   5.186  1.6709 -0.2263  1.9119
 7333TIP3    H243491   0.527   0.432   5.113 -1.1926  1.1420 -1.3180
 7334TIP3   OH243492   1.427   1.490  14.409 -0.1451  0.2908  0.5788
 7334TIP3    H143493   1.343   1.493  14.363  0.5261  0.5770 -0.6770
 7334TIP3    H243494   1.440   1.397  14.427 -0.1348  0.0841 -0.3958
 7335TIP3   OH243495   1.247   3.134   0.629 -0.1683 -0.0894  0.7969
 7335TIP3    H143496   1.170   3.190   0.622  0.3620  1.0034  2.9189
 7335TIP3    H243497   1.215   3.047   0.607 -2.0164  0.3396  1.5503
 7336TIP3   OH243498   4.018   5.811  14.348 -0.4823 -0.3112 -0.1356
 7336TIP3    H143499   4.107   5.822  14.383  0.5062 -0.7501 -2.3224
 7336TIP3    H243500   3.961   5.830  14.422  1.4215  0.3709  1.2553
 7337TIP3   OH243501   2.133   4.416   3.180 -0.3048  0.0084  0.2958
 7337TIP3    H143502   2.058   4.364   3.207 -1.3213  1.6638  0.7650
 7337TIP3    H243503   2.142   4.397   3.086 -0.1884 -1.5361  0.5955
 7338TIP3   OH243504   6.666   3.526   3.766  0.5012 -0.0304 -0.3379
 7338TIP3    H143505   6.702   3.615   3.767  1.7838 -0.5134  0.9136
 7338TIP3    H243506   6.662   3.501   3.859  2.3222 -2.0526 -0.7051
 7339TIP3   OH243507   6.057   0.020  14.588  0.0454  0.4962  0.6623
 7339TIP3    H143508   6.014   0.042  14.505 -0.5491  1.9781  1.3261
 7339TIP3    H243509   6.147   0.051  14.577 -0.0935  0.9023  0.6401
 7340TIP3   OH243510   0.925   5.004   3.376 -0.0188  0.1626 -0.1996
 7340TIP3    H143511   0.885   4.918   3.362 -1.4104  0.8860 -0.9487
 7340TIP3    H243512   0.994   5.010   3.310 -0.6759  0.0531 -0.9101
 7341TIP3   OH243513   0.960   5.884   5.200 -0.3329  0.6261  0.0112
 7341TIP3    H143514   0.924   5.890   5.289  1.1610  0.7801  0.6438
 7341TIP3    H243515   0.927   5.962   5.155  2.8050  3.4335  2.0094
 7342TIP3   OH243516   0.785   4.844  12.200  0.5024 -0.5027  0.1722
 7342TIP3    H143517   0.769   4.757  12.163 -1.7614 -0.2181  0.3266
 7342TIP3    H243518   0.772   4.833  12.294 -0.1467  0.0478  0.1569
 7343TIP3   OH243519   3.714   0.032  12.901  0.0594  0.2011  0.9407
 7343TIP3    H143520   3.770  -0.043  12.922  0.1501 -0.0577 -0.1441
 7343TIP3    H243521   3.632  -0.007  12.872  1.0195  0.3367 -2.3581
 7344TIP3   OH243522   6.552   6.177   0.780 -0.5558 -0.5367 -0.2108
 7344TIP3    H143523   6.560   6.082   0.786 -0.4296 -0.4097  3.2637
 7344TIP3    H243524   6.460   6.195   0.799 -0.1048  0.0888  1.5815
 7345TIP3   OH243525   3.732   5.164  10.411 -0.2983  0.2429 -0.1303
 7345TIP3    H143526   3.637   5.151  10.414 -0.0596 -1.6592  0.5974
 7345TIP3    H243527   3.768   5.076  10.412  1.4999  0.9330 -0.3874
 7346TIP3   OH243528   1.225   0.577  10.984  0.5324  0.0429 -0.1006
 7346TIP3    H143529   1.143   0.545  10.947  0.8891  0.9708 -1.8161
 7346TIP3    H243530   1.199   0.648  11.043 -0.0654 -1.5921  1.7044
 7347TIP3   OH243531   6.402   1.892  11.120 -0.0841  0.9794  1.1056
 7347TIP3    H143532   6.495   1.893  11.098 -0.4600 -0.3891 -0.8277
 7347TIP3    H243533   6.397   1.839  11.200  0.8288  1.4867  1.5166
 7348TIP3   OH243534   0.728   4.616   2.605  0.4575  0.0147  0.1892
 7348TIP3    H143535   0.654   4.563   2.577  0.6468 -0.1517  0.0045
 7348TIP3    H243536   0.786   4.555   2.651  0.5873  0.0983  0.1368
 7349TIP3   OH243537   1.987   1.550   3.028 -0.1928 -0.1054 -0.3701
 7349TIP3    H143538   1.958   1.641   3.033  0.5177  0.0979  0.2508
 7349TIP3    H243539   2.044   1.546   2.951  0.5911  0.2188  0.1871
 7350TIP3   OH243540   6.371   0.034  16.719  0.0344  0.4964 -0.0348
 7350TIP3    H143541   6.331   0.118  16.740  0.5401  0.6215  0.4598
 7350TIP3    H243542   6.460   0.041  16.752 -0.3071 -0.7092  1.2252
 7351TIP3   OH243543   1.950   5.300   0.433 -0.3993 -0.0127  0.9117
 7351TIP3    H143544   1.899   5.308   0.352  0.4507  0.2748  0.3797
 7351TIP3    H243545   1.897   5.343   0.499 -1.5683 -1.1409  0.7287
 7352TIP3   OH243546   1.949   0.077  11.418 -0.4150 -0.1150 -0.0529
 7352TIP3    H143547   1.949   0.046  11.328  1.6143  0.2669 -0.2351
 7352TIP3    H243548   1.868   0.127  11.427 -0.2109  0.6177 -1.9546
 7353TIP3   OH243549   2.799   3.292  16.390 -0.0776 -1.2636 -0.4930
 7353TIP3    H143550   2.722   3.330  16.349  0.5718  0.9846  0.1901
 7353TIP3    H243551   2.856   3.267  16.318 -0.3057 -0.3696 -0.9931
 7354TIP3   OH243552   4.607   4.418  13.475  0.1946  0.7421 -0.1078
 7354TIP3    H143553   4.585   4.502  13.515 -0.5639  1.3007 -1.6476
 7354TIP3    H243554   4.664   4.440  13.402  0.4973 -0.1540 -0.1587
 7355TIP3   OH243555   6.562   6.700  14.813  0.5401 -0.5826  0.8397
 7355TIP3    H143556   6.606   6.740  14.738 -0.4612 -1.9659 -0.5352
 7355TIP3    H243557   6.475   6.739  14.814  1.0277  0.5716  2.2679
 7356TIP3   OH243558   4.219   3.058  13.041  0.0880  0.3464 -0.6845
 7356TIP3    H143559   4.159   2.990  13.069 -0.0633  1.3942  1.7485
 7356TIP3    H243560   4.169   3.139  13.049  1.2060  1.0434 -0.4990
 7357TIP3   OH243561   1.080   6.509   4.841 -0.0154 -0.3061 -0.1069
 7357TIP3    H143562   1.111   6.578   4.782  1.1208  0.1213  0.9499
 7357TIP3    H243563   1.099   6.542   4.929 -1.5690 -0.9740  0.5246
 7358TIP3   OH243564   6.462   0.726   5.075 -0.0729 -0.7498  0.4918
 7358TIP3    H143565   6.383   0.673   5.084  0.0556 -1.7987 -3.0865
 7358TIP3    H243566   6.533   0.670   5.108 -0.4793 -0.8971  1.1343
 7359TIP3   OH243567   3.866   2.584   4.038  0.1439 -0.2734 -0.6862
 7359TIP3    H143568   3.953   2.559   4.071  0.5041  0.1824 -1.2737
 7359TIP3    H243569   3.868   2.558   3.946 -1.1190 -2.2378 -0.2119
 7360TIP3   OH243570   3.147   0.486  14.993 -0.4717  0.1909 -0.1868
 7360TIP3    H143571   3.223   0.521  14.948 -0.4968 -0.5053 -0.7843
 7360TIP3    H243572   3.115   0.416  14.936 -1.1529  0.0242  0.3830
 7361TIP3   OH243573   2.498   1.976  16.105  0.0396  0.3987 -0.1546
 7361TIP3    H143574   2.531   1.888  16.119 -1.0229  0.1329  0.8305
 7361TIP3    H243575   2.536   2.028  16.175 -1.1754  0.1983  0.6803
 7362TIP3   OH243576   1.193   6.210  11.321 -0.0276  0.5815 -0.6111
 7362TIP3    H143577   1.149   6.289  11.290 -0.5543  0.4360 -0.2544
 7362TIP3    H243578   1.286   6.231  11.316 -0.1648  1.2692 -0.4108
 7363TIP3   OH243579   0.525   6.722   0.114  0.3070 -0.1333 -0.2181
 7363TIP3    H143580   0.594   6.729   0.180  0.6352 -0.2319 -0.5462
 7363TIP3    H243581   0.513   6.628   0.103 -1.8256 -0.1929  1.8381
 7364TIP3   OH243582   6.478   0.698  13.111  0.5594 -0.2217  0.1183
 7364TIP3    H143583   6.439   0.785  13.105 -0.0215 -0.4679  0.2416
 7364TIP3    H243584   6.546   0.697  13.043 -0.0264  0.0214 -0.4764
 7365TIP3   OH243585   1.323   3.251   2.788  1.3423 -0.1187 -0.2372
 7365TIP3    H143586   1.345   3.216   2.874  0.6134 -2.3053 -0.8644
 7365TIP3    H243587   1.307   3.344   2.803 -1.0799 -0.8421  2.4457
 7366TIP3   OH243588   6.231   2.906  12.037 -0.2222 -0.3468 -0.1247
 7366TIP3    H143589   6.138   2.909  12.013 -0.3790 -0.9615  0.3909
 7366TIP3    H243590   6.276   2.933  11.957 -0.8080 -0.8438 -0.6408
 7367TIP3   OH243591   5.790   3.870  11.298  1.0869 -0.2374  0.1366
 7367TIP3    H143592   5.816   3.901  11.211  0.6472  0.0850  0.1191
 7367TIP3    H243593   5.695   3.866  11.295  1.0660 -0.1945  0.6134
 7368TIP3   OH243594   5.724   5.565   4.975 -0.0963  0.5892 -0.7259
 7368TIP3    H143595   5.665   5.490   4.982  1.5289 -0.6797  0.3113
 7368TIP3    H243596   5.806   5.528   4.942  1.6857  1.2568  2.5029
 7369TIP3   OH243597   0.053   6.144  12.051  0.4216  0.5389  0.6530
 7369TIP3    H143598   0.086   6.057  12.028  0.2454  0.4464  0.7463
 7369TIP3    H243599   0.025   6.182  11.968  0.0090  0.2986  0.6768
 7370TIP3   OH243600   0.894   5.373  10.995 -0.5206 -0.0955  0.1115
 7370TIP3    H143601   0.980   5.391  11.034  0.6369  1.6837 -2.9266
 7370TIP3    H243602   0.860   5.298  11.045  2.6949 -0.7813  1.5258
 7371TIP3   OH243603   5.175   2.958   0.602 -0.0773  0.1519 -0.6270
 7371TIP3    H143604   5.145   3.018   0.671 -0.9505  0.2142 -1.0411
 7371TIP3    H243605   5.109   2.890   0.599  1.1800 -1.1497  0.1917
 7372TIP3   OH243606   1.032   1.546  11.648 -0.2443 -0.0548  0.3269
 7372TIP3    H143607   0.986   1.473  11.607 -0.2343  0.5954 -0.8901
 7372TIP3    H243608   0.981   1.566  11.726 -0.3707 -1.2144  0.5576
 7373TIP3   OH243609   2.270   2.364   2.255  0.1876  0.0495  0.3621
 7373TIP3    H143610   2.200   2.428   2.265 -0.1146 -0.3160  0.6174
 7373TIP3    H243611   2.299   2.374   2.164 -0.3181  0.0781  0.2010
 7374TIP3   OH243612   2.636   4.551  15.102  0.1901  0.5683 -0.0600
 7374TIP3    H143613   2.680   4.612  15.162  1.8773 -0.6620  0.0273
 7374TIP3    H243614   2.645   4.592  15.016  2.3374 -0.0029 -0.1781
 7375TIP3   OH243615   4.371   5.059   5.408  0.5558  0.4094  0.3927
 7375TIP3    H143616   4.314   5.129   5.440  0.5324  0.0374  1.1882
 7375TIP3    H243617   4.448   5.062   5.465  1.4955  1.0877 -0.8465
 7376TIP3   OH243618   6.146   5.012   1.212 -0.5594 -0.5776 -0.3252
 7376TIP3    H143619   6.091   5.090   1.217  0.7280  0.5906 -2.6606
 7376TIP3    H243620   6.087   4.939   1.232 -1.6681  0.9298  2.6257
 7377TIP3   OH243621   2.272   4.534  15.293  0.2219  0.3004  0.0352
 7377TIP3    H143622   2.191   4.507  15.336  0.4165  0.5099  0.5410
 7377TIP3    H243623   2.281   4.474  15.218  0.7061 -1.1372  1.1874
 7378TIP3   OH243624   6.047   4.391   0.058  0.2267 -0.4675 -0.0904
 7378TIP3    H143625   6.074   4.467   0.008 -0.4318  0.3860  0.8131
 7378TIP3    H243626   6.122   4.373   0.116  0.4169 -0.5760 -0.3659
 7379TIP3   OH243627   2.245   5.059  11.903  0.3539 -0.6486 -0.1648
 7379TIP3    H143628   2.209   5.011  11.978  0.9754  0.0460  0.6111
 7379TIP3    H243629   2.220   5.150  11.919 -0.1317 -0.5938 -1.1964
 7380TIP3   OH243630   2.696   1.825  16.833  0.1463  0.6889 -0.0847
 7380TIP3    H143631   2.608   1.862  16.845 -0.0475  0.5165 -0.9446
 7380TIP3    H243632   2.695   1.787  16.745  1.1168  0.7804 -0.1477
 7381TIP3   OH243633   1.232   1.031  12.754  0.2494  0.9816 -0.3139
 7381TIP3    H143634   1.289   1.028  12.830 -0.7599  3.3854  0.6308
 7381TIP3    H243635   1.150   0.990  12.782  0.4316  0.3709 -0.6562
 7382TIP3   OH243636   1.694   6.597   0.653 -0.4354  0.0273  0.0131
 7382TIP3    H143637   1.709   6.660   0.582 -1.1831  0.4363  0.2052
 7382TIP3    H243638   1.781   6.564   0.674  0.1419  1.8087  0.6334
 7383TIP3   OH243639   5.248   0.651  16.496  0.5850 -0.4239 -0.3564
 7383TIP3    H143640   5.253   0.742  16.525 -0.2560 -0.4265 -0.2068
 7383TIP3    H243641   5.334   0.636  16.455  0.9125  0.2832  0.0356
 7384TIP3   OH243642   4.405   0.558  14.071 -0.4454  0.0543 -0.6632
 7384TIP3    H143643   4.408   0.633  14.130 -0.2699 -0.9763  0.6874
 7384TIP3    H243644   4.341   0.499  14.111  1.2882 -1.6523 -0.2649
 7385TIP3   OH243645   2.408   2.549   3.149 -0.6560  0.2148 -0.0675
 7385TIP3    H143646   2.385   2.522   3.061 -0.7042  0.8028 -0.2362
 7385TIP3    H243647   2.385   2.642   3.153 -1.6696 -0.0578  0.9037
 7386TIP3   OH243648   2.029   0.398   0.550 -0.4341  0.3898 -0.7219
 7386TIP3    H143649   2.033   0.400   0.455 -0.5588 -0.7439 -0.7643
 7386TIP3    H243650   2.014   0.306   0.572  2.2259  0.1546  0.4947
 7387TIP3   OH243651   0.619   4.237  11.019 -0.4287  0.3232  0.6920
 7387TIP3    H143652   0.555   4.302  11.047 -0.7398 -0.4577  1.8973
 7387TIP3    H243653   0.572   4.181  10.958 -0.3453  0.8336  0.1508
 7388TIP3   OH243654   0.445   2.934   2.963  0.8212  0.4562 -0.5933
 7388TIP3    H143655   0.535   2.962   2.981  0.6506  2.2432 -2.2144
 7388TIP3    H243656   0.417   2.890   3.043  2.6792  1.0221  0.4321
 7389TIP3   OH243657   6.296   1.120   0.162  0.1500 -0.0614  0.0107
 7389TIP3    H143658   6.336   1.111   0.075 -2.2351  1.1969 -1.3354
 7389TIP3    H243659   6.262   1.033   0.181 -1.4031  0.1661 -1.4993
 7390TIP3   OH243660   0.370   1.880   1.978 -0.3394 -0.5908 -0.0604
 7390TIP3    H143661   0.413   1.795   1.968  0.8942  0.1930 -2.0661
 7390TIP3    H243662   0.279   1.859   1.996  0.2760 -2.3197  1.2381
 7391TIP3   OH243663   5.014   6.704  13.695 -0.4025  0.1221  0.2251
 7391TIP3    H143664   4.976   6.792  13.700 -1.7690 -0.3552 -1.1424
 7391TIP3    H243665   5.088   6.714  13.634 -0.3244  0.3910  0.3593
 7392TIP3   OH243666   3.361   3.542  12.679  0.5357 -0.0432 -0.4164
 7392TIP3    H143667   3.305   3.476  12.640  0.6956  0.3743 -1.4005
 7392TIP3    H243668   3.388   3.505  12.763 -0.6711 -0.5199 -0.2217
 7393TIP3   OH243669   2.911   0.374  12.837 -0.2701 -0.4081 -0.1885
 7393TIP3    H143670   2.860   0.455  12.830  1.5446  0.7583 -0.5533
 7393TIP3    H243671   2.982   0.384  12.774 -0.2987 -2.5538 -0.6543
 7394TIP3   OH243672   3.828   3.208   1.731 -0.1312 -0.1942  0.3753
 7394TIP3    H143673   3.747   3.175   1.692  1.0049 -0.9240 -1.5289
 7394TIP3    H243674   3.831   3.300   1.706  0.0264 -0.3774 -0.3036
 7395TIP3   OH243675   1.947   6.301  16.308 -0.2691  0.0341 -0.7168
 7395TIP3    H143676   1.859   6.267  16.293 -0.8744  1.5333 -0.7986
 7395TIP3    H243677   1.953   6.314  16.402 -0.4335  0.6384 -0.7827
 7396TIP3   OH243678   1.784   2.419  14.755  0.2958  0.3221  0.3909
 7396TIP3    H143679   1.791   2.327  14.730  0.6187  0.4829 -0.1307
 7396TIP3    H243680   1.736   2.460  14.682  2.8705  1.1587 -0.9462
 7397TIP3   OH243681   5.339   1.082  14.439  0.5200 -0.2214  0.5636
 7397TIP3    H143682   5.415   1.085  14.381  0.1590  0.0027  0.0940
 7397TIP3    H243683   5.358   1.010  14.499  1.7019  0.6842  1.3095
 7398TIP3   OH243684   5.007   0.633   2.000  0.6167  0.5530  0.4114
 7398TIP3    H143685   4.975   0.589   2.079 -0.8842  0.1596 -0.3726
 7398TIP3    H243686   5.069   0.572   1.961 -0.0130 -0.0655  0.3486
 7399TIP3   OH243687   2.532   4.874   1.595 -0.2751 -0.7051 -0.5118
 7399TIP3    H143688   2.490   4.926   1.527  0.5839 -0.0172 -0.5251
 7399TIP3    H243689   2.531   4.930   1.673  0.5825 -0.6842 -0.5062
 7400TIP3   OH243690   6.088   4.082   6.233  0.1040 -0.5003 -0.2961
 7400TIP3    H143691   6.033   4.008   6.206  1.2202 -1.1315 -0.9343
 7400TIP3    H243692   6.041   4.159   6.200 -0.5862 -0.9899 -0.4953
 7401TIP3   OH243693   5.853   6.276   3.967 -0.4960 -0.2825 -0.4657
 7401TIP3    H143694   5.862   6.337   4.040 -0.3201  1.0978 -1.6028
 7401TIP3    H243695   5.766   6.238   3.979  0.6241 -2.3573  2.0873
 7402TIP3   OH243696   0.530   0.735  15.547 -0.1636  0.1658 -0.2876
 7402TIP3    H143697   0.564   0.645  15.543 -0.9326 -0.4164  3.1130
 7402TIP3    H243698   0.461   0.737  15.482  0.6944 -1.3091 -1.3100
 7403TIP3   OH243699   2.779   6.685   2.997  0.2754  0.1002 -0.5988
 7403TIP3    H143700   2.686   6.703   2.985  0.4847  0.3763 -2.0891
 7403TIP3    H243701   2.817   6.769   3.021  0.1455 -0.0063 -0.0184
 7404TIP3   OH243702   1.790   6.062  13.919 -0.3468 -0.3988  0.1889
 7404TIP3    H143703   1.761   6.024  14.002 -2.2658  1.1643  0.2862
 7404TIP3    H243704   1.723   6.038  13.856 -0.5696  1.0842 -0.1807
 7405TIP3   OH243705   6.295   2.290  14.349 -0.2679 -0.2246  0.4967
 7405TIP3    H143706   6.254   2.205  14.334 -2.0719  0.7826 -0.5931
 7405TIP3    H243707   6.281   2.338  14.268 -0.8171  1.6955  1.6650
 7406TIP3   OH243708   0.553   5.690  15.943 -0.0653  0.0227  0.9104
 7406TIP3    H143709   0.463   5.657  15.944 -0.3800  0.7960 -0.1977
 7406TIP3    H243710   0.607   5.612  15.928 -0.6267 -0.3048  0.5373
 7407TIP3   OH243711   4.193   0.489  16.432  0.1429  0.3319 -0.0915
 7407TIP3    H143712   4.182   0.536  16.515  0.3794  0.2158  0.0067
 7407TIP3    H243713   4.168   0.399  16.451  0.2014  0.3040 -0.1449
 7408TIP3   OH243714   1.511   6.060   4.470 -0.2717 -0.7516  0.7074
 7408TIP3    H143715   1.467   6.112   4.403  0.0603 -2.2830 -0.7494
 7408TIP3    H243716   1.595   6.103   4.483 -0.1555 -0.6849 -0.1985
 7409TIP3   OH243717   1.768   6.209   4.585  0.0987  0.2924 -0.5427
 7409TIP3    H143718   1.858   6.182   4.599 -0.2197  0.0573  1.3271
 7409TIP3    H243719   1.753   6.278   4.650 -1.6219 -1.0573  0.5947
 7410TIP3   OH243720   4.281   6.533  16.910 -0.3956 -0.9135 -0.3925
 7410TIP3    H143721   4.213   6.515  16.846 -1.2611  1.5366 -0.2981
 7410TIP3    H243722   4.251   6.612  16.955  1.7995 -0.6106  0.7070
 7411TIP3   OH243723   6.195   5.306  11.448  0.8063  0.1512  0.0369
 7411TIP3    H143724   6.179   5.341  11.361 -1.2176  1.2186  0.7847
 7411TIP3    H243725   6.253   5.370  11.489  1.4208 -0.1401 -0.3514
 7412TIP3   OH243726   2.483   4.005   6.593 -0.3925  0.2426  0.4058
 7412TIP3    H143727   2.472   4.088   6.546  0.9092  0.9836  1.3652
 7412TIP3    H243728   2.423   4.011   6.667 -1.3415 -0.2907 -0.3055
 7413TIP3   OH243729   0.216   3.547  13.420 -0.1180 -0.0308 -0.5681
 7413TIP3    H143730   0.134   3.559  13.469 -0.2643 -0.5403 -0.6827
 7413TIP3    H243731   0.223   3.625  13.365 -0.3636  0.1666 -0.3231
 7414TIP3   OH243732   2.457   0.629  13.299  0.3388 -0.3710 -0.5112
 7414TIP3    H143733   2.378   0.602  13.346  0.4008 -2.6168 -1.5281
 7414TIP3    H243734   2.445   0.722  13.282 -1.5505 -0.4129  0.3653
 7415TIP3   OH243735   3.628   5.143  15.992 -0.3005  0.2227 -0.5062
 7415TIP3    H143736   3.546   5.192  16.001  0.0154  1.1576 -2.3065
 7415TIP3    H243737   3.602   5.051  16.002 -1.3137  0.5819  0.3783
 7416TIP3   OH243738   0.402   5.852  15.000 -0.0451 -0.2291 -0.3272
 7416TIP3    H143739   0.333   5.875  15.062  1.2726 -1.6839  1.8136
 7416TIP3    H243740   0.355   5.813  14.926 -1.5432 -1.5307  1.2166
 7417TIP3   OH243741   3.458   1.974   3.638 -0.0655  0.4712  0.3615
 7417TIP3    H143742   3.397   2.027   3.587 -1.9153 -0.2437  1.7216
 7417TIP3    H243743   3.453   1.887   3.598 -0.5761  0.2153  0.9631
 7418TIP3   OH243744   6.278   2.608   3.416  0.0249  0.6332  0.2906
 7418TIP3    H143745   6.208   2.566   3.465 -1.5748  0.9084 -1.6241
 7418TIP3    H243746   6.311   2.540   3.357 -0.0338  1.0423 -0.2256
 7419TIP3   OH243747   5.475   5.867   1.733  0.1124 -0.3421  0.5549
 7419TIP3    H143748   5.406   5.845   1.671  0.2018 -0.7142  0.5866
 7419TIP3    H243749   5.477   5.963   1.734  1.9417 -0.2550 -2.0759
 7420TIP3   OH243750   1.942   2.262   4.474  0.5749  0.2533 -0.4017
 7420TIP3    H143751   2.037   2.266   4.467  0.5857  0.0696 -0.3744
 7420TIP3    H243752   1.918   2.182   4.426  0.1997  1.7092 -2.8060
 7421TIP3   OH243753   0.742   4.191  16.957  0.5466  0.7670 -0.1035
 7421TIP3    H143754   0.658   4.175  17.000  0.6231  0.8168  0.0660
 7421TIP3    H243755   0.807   4.169  17.023  0.6813 -0.0639 -0.4997
 7422TIP3   OH243756   0.225   6.379  10.987 -0.3718 -0.3300  0.4153
 7422TIP3    H143757   0.295   6.322  11.018 -0.5794 -1.5617 -1.2491
 7422TIP3    H243758   0.176   6.326  10.924 -2.3421  0.7459  0.9336
 7423TIP3   OH243759   2.894   2.358   0.602  0.3254 -0.6199  0.0834
 7423TIP3    H143760   2.928   2.439   0.639 -0.2143  0.7673 -2.2195
 7423TIP3    H243761   2.898   2.372   0.507 -1.9831 -2.3505 -0.3663
 7424TIP3   OH243762   1.089   4.948  16.211 -0.3003  0.1159  0.6791
 7424TIP3    H143763   1.133   4.928  16.293  0.3530  0.3384  0.3878
 7424TIP3    H243764   1.031   5.022  16.232  1.2862  1.4652  0.5153
 7425TIP3   OH243765   3.270   0.242   4.117  0.1697 -0.1901  0.0991
 7425TIP3    H143766   3.365   0.242   4.128  0.0164  0.3157  1.7018
 7425TIP3    H243767   3.257   0.238   4.022  1.7750 -0.7288 -0.1289
 7426TIP3   OH243768   1.598   2.905   5.483  0.2989  0.6472 -0.2840
 7426TIP3    H143769   1.662   2.942   5.544 -0.7275  2.0423 -0.0083
 7426TIP3    H243770   1.559   2.981   5.440 -2.0017 -0.0504  0.4116
 7427TIP3   OH243771   5.496   1.955  17.128  0.5901 -0.2943  0.4786
 7427TIP3    H143772   5.460   1.996  17.206 -1.0778 -1.6568  0.4682
 7427TIP3    H243773   5.438   1.882  17.109  2.2313 -1.3665 -0.7528
 7428TIP3   OH243774   3.180   2.753  13.200 -0.7747  1.0650 -0.1117
 7428TIP3    H143775   3.100   2.703  13.186  0.1047 -0.8063  1.1219
 7428TIP3    H243776   3.248   2.705  13.153  0.0676  1.1504  0.9693
 7429TIP3   OH243777   6.376   3.745   4.567 -0.8220  0.4836 -0.1117
 7429TIP3    H143778   6.467   3.776   4.562 -0.5236  0.0442  1.8019
 7429TIP3    H243779   6.379   3.658   4.528 -0.7350  0.9980 -1.3148
 7430TIP3   OH243780   2.880   6.392  16.500  0.1975 -0.2754  0.5258
 7430TIP3    H143781   2.948   6.338  16.540 -0.4415 -2.4130 -1.1024
 7430TIP3    H243782   2.803   6.336  16.497 -0.3948  0.5377 -1.5892
 7431TIP3   OH243783   4.051   0.129  14.105 -0.0255 -0.1874 -0.8922
 7431TIP3    H143784   4.113   0.108  14.175 -1.1159  0.6127  0.3482
 7431TIP3    H243785   4.099   0.188  14.047  0.2551  0.7891  0.2923
 7432TIP3   OH243786   4.146   4.432  12.301 -0.1449 -0.3571  0.5317
 7432TIP3    H143787   4.179   4.497  12.239  1.4871 -1.3411  0.3369
 7432TIP3    H243788   4.066   4.400  12.260 -0.0097  0.2344 -0.2308
 7433TIP3   OH243789   6.818   1.702  10.662 -0.2127  0.6239  0.0053
 7433TIP3    H143790   6.744   1.676  10.718  0.0678  1.2713  0.6901
 7433TIP3    H243791   6.834   1.794  10.684 -0.1219  0.9138 -1.1802
 7434TIP3   OH243792   2.762   6.559   4.222  0.3684  0.2515 -0.0142
 7434TIP3    H143793   2.719   6.543   4.306  1.5014  0.8719  0.7044
 7434TIP3    H243794   2.761   6.473   4.178 -0.1796 -0.0866  0.6457
 7435TIP3   OH243795   1.740   1.161  15.455  0.1205 -0.1997 -0.2228
 7435TIP3    H143796   1.659   1.114  15.476 -0.6882  1.0104 -0.4671
 7435TIP3    H243797   1.741   1.166  15.360  1.5735 -1.9759 -0.3430
 7436TIP3   OH243798   4.817   1.811   2.713 -0.3524 -0.2431  0.4918
 7436TIP3    H143799   4.752   1.772   2.772  1.2310 -1.9085  1.2452
 7436TIP3    H243800   4.776   1.892   2.683 -2.6527 -1.0608  1.1375
 7437TIP3   OH243801   6.762   2.345  12.881 -0.0278 -0.1467 -0.2859
 7437TIP3    H143802   6.782   2.439  12.872 -0.2898 -0.2415 -2.6532
 7437TIP3    H243803   6.820   2.315  12.951  1.8663  1.3235 -1.0970
 7438TIP3   OH243804   4.262   2.991   4.376 -0.4405  0.4579  0.3472
 7438TIP3    H143805   4.276   2.933   4.450 -0.8027 -1.1008 -0.7410
 7438TIP3    H243806   4.277   2.936   4.299 -0.4968  1.8999 -0.7543
 7439TIP3   OH243807   3.821   1.810   1.544  0.2589 -0.3214 -0.0269
 7439TIP3    H143808   3.814   1.905   1.554  1.0256 -0.1324 -1.1234
 7439TIP3    H243809   3.821   1.777   1.634 -0.3639  0.6782  0.3627
 7440TIP3   OH243810   6.357   4.114  13.491  0.2926  0.0637 -0.1091
 7440TIP3    H143811   6.446   4.132  13.522  0.5485 -0.2501 -0.6365
 7440TIP3    H243812   6.365   4.033  13.440 -0.4482 -0.3918  0.4839
 7441TIP3   OH243813   0.096   5.942   3.767  0.1412  0.1447 -0.4777
 7441TIP3    H143814   0.031   5.944   3.837 -0.7365  0.1629 -1.2774
 7441TIP3    H243815   0.047   5.913   3.689  1.5970 -2.2974 -0.5709
 7442TIP3   OH243816   0.431   4.320   4.570 -0.4149  0.2735 -0.3042
 7442TIP3    H143817   0.415   4.225   4.576  1.2266 -0.0127  0.0841
 7442TIP3    H243818   0.437   4.349   4.661  0.2133  0.5230 -0.4177
 7443TIP3   OH243819   4.168   0.067  12.628 -0.3977  0.3336  0.0836
 7443TIP3    H143820   4.168   0.032  12.718 -0.7814  1.6970  0.6405
 7443TIP3    H243821   4.075   0.066  12.603 -0.7147  2.7113  0.8744
 7444TIP3   OH243822   4.459   6.495   3.878 -0.4544 -0.4363  0.4255
 7444TIP3    H143823   4.482   6.406   3.854  0.5196  0.4038 -1.9580
 7444TIP3    H243824   4.363   6.496   3.876 -0.4676 -0.8057 -2.2432
 7445TIP3   OH243825   6.474   5.922  11.763 -0.4362 -0.2430 -0.2705
 7445TIP3    H143826   6.533   5.931  11.838  2.3012  0.2448 -2.3383
 7445TIP3    H243827   6.437   6.009  11.751 -0.2287 -0.1146  0.0108
 7446TIP3   OH243828   1.195   5.320   1.117 -0.4211 -0.0377  0.2971
 7446TIP3    H143829   1.203   5.409   1.150 -0.0726  0.0288  0.0394
 7446TIP3    H243830   1.221   5.264   1.190 -0.1336  0.0902  0.2918
 7447TIP3   OH243831   5.591   6.596   3.583 -0.1987 -0.0375  0.3207
 7447TIP3    H143832   5.507   6.562   3.613 -0.4548 -0.8904 -1.2295
 7447TIP3    H243833   5.652   6.577   3.654 -1.2357  0.3296  1.3471
 7448TIP3   OH243834   5.458   1.652  11.312 -0.2119  0.4514  0.0552
 7448TIP3    H143835   5.409   1.588  11.363  0.4088 -1.3351 -1.4936
 7448TIP3    H243836   5.542   1.610  11.295  1.0739  2.5702  0.7845
 7449TIP3   OH243837   5.213   1.192   3.209 -0.5261 -0.0043  0.2721
 7449TIP3    H143838   5.278   1.257   3.237 -0.4424  0.0588 -0.0647
 7449TIP3    H243839   5.257   1.108   3.222  0.8390  0.1054 -2.8629
 7450TIP3   OH243840   2.660   1.721  14.487  0.9842 -0.1116  0.3422
 7450TIP3    H143841   2.566   1.717  14.465  0.9727 -1.1172  0.5058
 7450TIP3    H243842   2.662   1.741  14.581  0.9132 -0.5359  0.4378
 7451TIP3   OH243843   3.812   3.360  14.782 -0.4586  0.3961 -0.4424
 7451TIP3    H143844   3.736   3.361  14.841 -0.4932 -0.5235 -0.4526
 7451TIP3    H243845   3.869   3.429  14.814 -0.0151 -0.7331  1.2927
 7452TIP3   OH243846   6.425   3.953  13.142 -0.2949  0.5172 -0.1690
 7452TIP3    H143847   6.453   3.906  13.063  0.0671  1.1503 -0.4223
 7452TIP3    H243848   6.478   3.916  13.212 -1.5965 -1.0440  0.0455
 7453TIP3   OH243849   3.818   6.184  14.191 -0.4660 -0.1350 -0.1131
 7453TIP3    H143850   3.845   6.203  14.101 -1.2358 -0.2374 -0.3749
 7453TIP3    H243851   3.900   6.172  14.239 -0.0365  0.3668 -0.7018
 7454TIP3   OH243852   5.254   2.031  13.148 -1.0513 -0.7102  0.3355
 7454TIP3    H143853   5.326   1.988  13.102 -1.5312 -1.0923 -0.0720
 7454TIP3    H243854   5.230   1.970  13.217 -0.8653 -0.5015  0.5845
 7455TIP3   OH243855   3.989   5.575   6.348  0.3202  0.1992 -0.1982
 7455TIP3    H143856   4.076   5.612   6.360  0.6408 -0.9092  1.1413
 7455TIP3    H243857   4.001   5.481   6.358 -1.0879  0.0589  0.4905
 7456TIP3   OH243858   6.804   3.403  16.076 -0.0283  0.2842 -0.1994
 7456TIP3    H143859   6.754   3.370  16.001 -1.0299 -1.1103  1.0324
 7456TIP3    H243860   6.885   3.436  16.038  0.8947 -3.1985 -1.6343
 7457TIP3   OH243861   6.069   6.157  11.557  0.7182 -0.4482  0.3005
 7457TIP3    H143862   6.066   6.081  11.615 -0.4970 -1.5916 -1.1926
 7457TIP3    H243863   5.977   6.175  11.537  1.1134 -0.3778 -1.6058
 7458TIP3   OH243864   2.958   2.114  16.284  0.2885  0.7686 -0.4496
 7458TIP3    H143865   2.913   2.189  16.323 -1.0665 -0.1045 -0.2830
 7458TIP3    H243866   3.048   2.144  16.272  0.5991  1.3963  2.5667
 7459TIP3   OH243867   1.542   5.096  12.098 -0.7579  0.3449  0.1939
 7459TIP3    H143868   1.460   5.102  12.049 -0.4626  0.5016 -0.2865
 7459TIP3    H243869   1.571   5.187  12.107 -1.4453  0.4432  1.7634
 7460TIP3   OH243870   1.944   4.201  16.894 -0.4478 -0.0522  0.2272
 7460TIP3    H143871   1.877   4.222  16.829 -0.2332  3.4182  0.9260
 7460TIP3    H243872   2.026   4.230  16.855  0.1745 -0.9431  0.8179
 7461TIP3   OH243873   2.745   6.297   0.041 -0.5336  0.4431  0.0494
 7461TIP3    H143874   2.790   6.220   0.006 -0.1670 -0.2132  1.8421
 7461TIP3    H243875   2.652   6.274   0.036 -0.3716 -0.8645  2.0750
 7462TIP3   OH243876   3.547   1.800  13.409  0.5576 -0.2617  0.6951
 7462TIP3    H143877   3.592   1.817  13.326  0.9096  1.5258  1.1969
 7462TIP3    H243878   3.607   1.744  13.458 -0.1745 -2.3273 -0.6602
 7463TIP3   OH243879   5.246   0.924  13.395 -1.1624  0.0218  0.1240
 7463TIP3    H143880   5.302   0.996  13.425 -1.7690 -0.0005  1.3431
 7463TIP3    H243881   5.301   0.846  13.400  0.1762  0.5750 -3.1056
 7464TIP3   OH243882   3.745   3.715  13.260  0.1601  0.1032 -0.1385
 7464TIP3    H143883   3.788   3.710  13.345 -1.4252 -0.0168  0.7023
 7464TIP3    H243884   3.697   3.798  13.263 -1.0381 -0.5591 -0.3162
 7465TIP3   OH243885   3.792   5.770   5.458  0.3097  0.1373 -0.5021
 7465TIP3    H143886   3.866   5.781   5.398 -1.5817  0.7751 -2.8959
 7465TIP3    H243887   3.783   5.675   5.466  0.2118  0.0068 -1.8218
 7466TIP3   OH243888   6.575   5.065  11.206 -0.1153  0.2132 -0.0738
 7466TIP3    H143889   6.566   5.156  11.233  0.8835  0.3530 -0.1669
 7466TIP3    H243890   6.594   5.069  11.112  1.3425  0.0063  0.1872
 7467TIP3   OH243891   6.582   4.545   4.596  0.2592 -0.1123  0.3964
 7467TIP3    H143892   6.508   4.533   4.535  0.7722 -0.9520 -0.0794
 7467TIP3    H243893   6.650   4.585   4.542  1.3407 -2.4636 -0.0914
 7468TIP3   OH243894   5.630   4.392   3.025 -0.5827 -0.4234  0.4722
 7468TIP3    H143895   5.677   4.471   3.053 -0.3904 -0.6367  0.7566
 7468TIP3    H243896   5.657   4.378   2.935 -0.2807 -0.4127  0.5604
 7469TIP3   OH243897   4.526   2.754   5.677 -0.0808 -0.1232 -0.0211
 7469TIP3    H143898   4.471   2.727   5.751 -0.8558 -0.0939 -0.5766
 7469TIP3    H243899   4.607   2.786   5.717 -0.4701 -0.1666  0.8108
 7470TIP3   OH243900   1.882   3.913  11.509 -0.0166 -0.1739 -0.0653
 7470TIP3    H143901   1.844   3.975  11.446 -2.3141 -2.4016 -1.0262
 7470TIP3    H243902   1.955   3.874  11.462  0.7418  0.9600  0.1362
 7471TIP3   OH243903   5.126   4.902   3.918  0.1539  0.4119 -0.2007
 7471TIP3    H143904   5.178   4.860   3.986 -0.5826  1.5652  1.1311
 7471TIP3    H243905   5.137   4.996   3.934  1.2372  0.7898 -2.6860
 7472TIP3   OH243906   3.141   3.629   1.266 -0.2077 -0.3177 -0.3112
 7472TIP3    H143907   3.091   3.659   1.190 -1.8363  1.7314  1.4225
 7472TIP3    H243908   3.092   3.552   1.297  0.4433 -1.1396 -1.2556
 7473TIP3   OH243909   3.800   2.788  14.076 -0.3214  0.5587  0.2223
 7473TIP3    H143910   3.887   2.761  14.106  0.5285 -0.3317 -2.7119
 7473TIP3    H243911   3.746   2.710  14.087  0.4024 -0.3026 -1.9063
 7474TIP3   OH243912   5.431   3.892   0.318  0.1840  0.2379  0.2413
 7474TIP3    H143913   5.400   3.821   0.375 -2.4953  1.6806  0.7474
 7474TIP3    H243914   5.498   3.851   0.264 -1.1337 -2.6618  0.5903
 7475TIP3   OH243915   5.077   4.213   4.327 -0.1904 -0.2949 -0.4792
 7475TIP3    H143916   5.145   4.275   4.354 -2.2149  1.4748  0.9593
 7475TIP3    H243917   5.013   4.267   4.280 -1.9349 -1.2855  0.6539
 7476TIP3   OH243918   3.295   6.766  13.648  0.0922  0.0500  0.3242
 7476TIP3    H143919   3.273   6.777  13.741  1.3259  0.6812  0.5605
 7476TIP3    H243920   3.362   6.832  13.631  0.1980 -0.3475 -0.9170
 7477TIP3   OH243921   2.210   1.757   4.086  0.6017 -0.5050  0.4066
 7477TIP3    H143922   2.132   1.707   4.062  0.5003  0.5538 -1.7023
 7477TIP3    H243923   2.179   1.820   4.151 -0.1847 -0.4947  0.0351
 7478TIP3   OH243924   3.683   1.773   2.815 -0.2108 -0.0601 -0.3981
 7478TIP3    H143925   3.657   1.778   2.723 -1.1045  0.1200 -0.1487
 7478TIP3    H243926   3.767   1.729   2.814  0.2018  0.7165 -1.3731
 7479TIP3   OH243927   0.410   5.741   3.981  0.4317 -0.9358  0.0178
 7479TIP3    H143928   0.505   5.744   3.974  0.4329  0.5819  0.3560
 7479TIP3    H243929   0.378   5.773   3.897  0.2520  0.0020  0.4311
 7480TIP3   OH243930   1.014   3.189  11.610  0.5552 -0.5404  0.1222
 7480TIP3    H143931   1.035   3.095  11.616 -0.8987 -0.9961 -1.1522
 7480TIP3    H243932   0.961   3.196  11.530  1.2013  1.4925 -0.1600
 7481TIP3   OH243933   0.961   5.124  12.490 -0.1047 -0.1574 -0.0506
 7481TIP3    H143934   0.916   5.204  12.516 -0.8201 -0.9188  1.1517
 7481TIP3    H243935   0.921   5.099  12.407 -0.9296 -0.0697  0.3173
 7482TIP3   OH243936   2.368   4.821   6.469  0.3656  0.0375 -0.3120
 7482TIP3    H143937   2.351   4.808   6.562  0.1354  0.4389 -0.2939
 7482TIP3    H243938   2.329   4.745   6.426 -0.8238  0.5582 -0.2011
 7483TIP3   OH243939   0.886   3.865  11.221 -0.2235 -0.5130  0.5650
 7483TIP3    H143940   0.879   3.934  11.155  0.9418 -1.0912 -0.1900
 7483TIP3    H243941   0.822   3.799  11.193 -0.6397 -0.1901  0.7403
 7484TIP3   OH243942   1.314   4.989  11.433  0.2273  0.1582  0.1063
 7484TIP3    H143943   1.293   5.073  11.473  0.8422  0.4987 -0.2708
 7484TIP3    H243944   1.327   5.010  11.340  1.2245 -0.2012  0.1538
 7485TIP3   OH243945   6.457   3.127  17.097  0.1211 -0.0518 -0.7654
 7485TIP3    H143946   6.477   3.127  17.004  2.9391  2.0325 -0.2804
 7485TIP3    H243947   6.517   3.062  17.134 -0.4191 -0.2845 -0.2840
 7486TIP3   OH243948   6.538   3.705   0.741  0.7107 -0.0501 -0.1404
 7486TIP3    H143949   6.552   3.785   0.691  1.6294  0.4160  0.8175
 7486TIP3    H243950   6.545   3.635   0.676  0.7264  0.5867 -0.8477
 7487TIP3   OH243951   2.181   4.209   3.525  0.5023  0.2881 -0.7149
 7487TIP3    H143952   2.232   4.253   3.457  1.1320  1.6304  0.5691
 7487TIP3    H243953   2.136   4.137   3.479  1.8041  0.4338 -2.2961
 7488TIP3   OH243954   3.658   6.561  15.636 -0.1492 -1.0059 -0.5584
 7488TIP3    H143955   3.656   6.466  15.650 -2.3032 -1.3431 -2.5646
 7488TIP3    H243956   3.729   6.574  15.573  2.4790 -0.7270  2.1782
 7489TIP3   OH243957   2.710   1.728   6.423  0.0978  0.2353 -0.2633
 7489TIP3    H143958   2.718   1.763   6.335  0.4467 -0.8062 -0.6718
 7489TIP3    H243959   2.631   1.768   6.459 -0.1405  0.5390 -1.1059
 7490TIP3   OH243960   0.453   3.577  13.713 -0.2249  0.1087 -0.2241
 7490TIP3    H143961   0.524   3.616  13.663  0.5105 -1.4898 -0.4618
 7490TIP3    H243962   0.387   3.647  13.718  0.4824  0.9372 -1.7512
 7491TIP3   OH243963   2.880   3.163  14.764  0.7730  0.1253  0.2014
 7491TIP3    H143964   2.934   3.113  14.703  0.4891 -0.6422  0.5798
 7491TIP3    H243965   2.929   3.245  14.776  0.4998  0.6049 -1.5896
 7492TIP3   OH243966   0.896   1.939   6.067 -0.2672  0.1410  0.3248
 7492TIP3    H143967   0.834   2.012   6.072 -0.1785  0.1327  2.4378
 7492TIP3    H243968   0.978   1.979   6.041 -0.7067  0.4478 -0.6270
 7493TIP3   OH243969   3.184   5.718   3.000 -0.1248 -0.6547 -0.5653
 7493TIP3    H143970   3.128   5.773   2.945 -0.2420 -0.7349 -0.5276
 7493TIP3    H243971   3.187   5.634   2.955  2.0728  0.0829 -1.9472
 7494TIP3   OH243972   2.685   6.367  14.842  0.5385 -0.6572 -0.1273
 7494TIP3    H143973   2.611   6.314  14.812  0.3233 -0.2176 -0.3804
 7494TIP3    H243974   2.673   6.374  14.936  0.1982 -0.5040 -0.1800
 7495TIP3   OH243975   2.684   4.864   1.008 -0.1835  0.3886 -0.3567
 7495TIP3    H143976   2.676   4.935   0.944 -0.0005  1.5090  0.8143
 7495TIP3    H243977   2.778   4.861   1.027 -0.4388  1.4478  1.3053
 7496TIP3   OH243978   2.169   3.830  13.863 -0.2201  0.3304 -0.1338
 7496TIP3    H143979   2.195   3.760  13.803  2.0315  1.3143 -0.4137
 7496TIP3    H243980   2.231   3.825  13.935 -0.0958  1.9123 -0.0871
 7497TIP3   OH243981   2.454   5.993   2.257  0.8043 -0.5714  0.4145
 7497TIP3    H143982   2.427   6.024   2.343  0.9272  1.2582 -0.1533
 7497TIP3    H243983   2.468   5.899   2.268  0.4906 -0.4333  2.2941
 7498TIP3   OH243984   5.559   5.577   2.615 -0.0532  0.2708 -0.5516
 7498TIP3    H143985   5.498   5.638   2.656 -2.4862 -1.3489 -1.5355
 7498TIP3    H243986   5.555   5.499   2.671  0.9100  0.0365 -0.8000
 7499TIP3   OH243987   1.736   6.037   4.824 -0.0209 -0.1359  0.4686
 7499TIP3    H143988   1.750   6.033   4.729 -0.1390  0.4978  0.4263
 7499TIP3    H243989   1.661   6.095   4.836  0.1887  0.0395  0.9726
 7500TIP3   OH243990   3.179   5.643  14.696 -0.3210 -0.5390  0.1747
 7500TIP3    H143991   3.267   5.675  14.678 -0.5619  0.0580  0.0166
 7500TIP3    H243992   3.153   5.597  14.616 -0.8040  0.7845 -0.4641
 7501TIP3   OH243993   5.713   2.390   0.418  0.4277  0.3218 -0.4792
 7501TIP3    H143994   5.718   2.440   0.337 -0.9977 -0.3857 -1.0361
 7501TIP3    H243995   5.666   2.447   0.478 -0.1148  0.1464 -0.7302
 7502TIP3   OH243996   0.534   1.391  12.884  0.1687 -0.2219  0.1997
 7502TIP3    H143997   0.539   1.384  12.980  0.6690 -1.4829  0.1067
 7502TIP3    H243998   0.573   1.309  12.853 -2.0191 -0.8518 -1.0463
 7503TIP3   OH243999   3.673   0.367  14.553 -0.1343  0.0847 -0.7933
 7503TIP3    H144000   3.610   0.297  14.536 -0.2431  0.2913 -1.2594
 7503TIP3    H244001   3.683   0.412  14.468  0.0497  0.5352 -0.5366
 7504TIP3   OH244002   2.565   6.271   4.802 -0.1221  0.5141  0.6420
 7504TIP3    H144003   2.611   6.190   4.779  0.4942  0.8921  0.5057
 7504TIP3    H244004   2.531   6.255   4.890 -0.3873 -0.0497  0.4406
 7505TIP3   OH244005   1.255   3.025   0.972 -0.1693  0.1377  0.3367
 7505TIP3    H144006   1.274   3.063   1.058 -3.4427  0.1085  1.1816
 7505TIP3    H244007   1.193   3.087   0.932 -1.0952 -1.4077 -0.7009
 7506TIP3   OH244008   6.441   6.524   1.032 -0.1105  0.2380 -0.5721
 7506TIP3    H144009   6.385   6.446   1.038 -0.9267  0.6729 -1.9738
 7506TIP3    H244010   6.390   6.586   0.980  1.2523  1.0420 -1.0137
 7507TIP3   OH244011   5.791   6.515   3.802 -0.7467  0.3511  0.2681
 7507TIP3    H144012   5.756   6.440   3.851 -1.8805  0.2491 -0.6440
 7507TIP3    H244013   5.774   6.591   3.858 -0.7689  0.0797  0.6330
 7508TIP3   OH244014   0.650   2.265   1.256  0.5015 -0.4135 -0.3260
 7508TIP3    H144015   0.622   2.352   1.287  0.9310 -0.3691 -0.0662
 7508TIP3    H244016   0.626   2.205   1.326  0.9015 -0.3994 -0.1763
 7509TIP3   OH244017   2.265   0.812  12.026 -0.3425 -0.2408 -0.2914
 7509TIP3    H144018   2.218   0.744  11.978  2.6997 -1.6214 -1.6188
 7509TIP3    H244019   2.357   0.797  12.004  0.7138  2.6559  1.5689
 7510TIP3   OH244020   0.635   1.540   4.620 -0.2798 -0.4632  0.2632
 7510TIP3    H144021   0.688   1.610   4.655 -0.8148 -0.0717  0.3078
 7510TIP3    H244022   0.674   1.520   4.535 -0.9630  0.8706 -0.3984
 7511TIP3   OH244023   2.412   4.469   6.093  0.8747  0.5412  0.1451
 7511TIP3    H144024   2.429   4.399   6.156 -0.3631  0.6948  0.6746
 7511TIP3    H244025   2.498   4.490   6.057  1.0607 -2.7957 -1.7263
 7512TIP3   OH244026   0.926   5.052  15.531  0.0210  0.8074 -0.2846
 7512TIP3    H144027   1.006   5.100  15.550  0.6542 -0.0701 -0.6940
 7512TIP3    H244028   0.955   4.971  15.490 -1.0619  0.3512 -0.1930
 7513TIP3   OH244029   5.636   1.772  11.507  0.7208  0.6755  0.0503
 7513TIP3    H144030   5.594   1.718  11.441  3.0189 -1.5964  0.2734
 7513TIP3    H244031   5.565   1.803  11.562 -0.9231 -0.0960 -1.5510
 7514TIP3   OH244032   2.962   3.584  15.483  0.2901 -0.0661 -0.0808
 7514TIP3    H144033   3.047   3.560  15.522 -0.2412  0.7386  1.6721
 7514TIP3    H244034   2.980   3.663  15.434  0.7473 -0.4607 -0.5632
 7515TIP3   OH244035   2.866   4.089   4.806  0.1445  0.2387  0.1032
 7515TIP3    H144036   2.789   4.065   4.857 -0.7505 -0.3713 -1.4909
 7515TIP3    H244037   2.834   4.149   4.739  1.0900  0.1385 -0.4657
 7516TIP3   OH244038   4.482   2.901   3.106  0.4399 -0.0461 -0.3295
 7516TIP3    H144039   4.444   2.937   3.026  1.2659  0.3211 -0.5559
 7516TIP3    H244040   4.551   2.962   3.130  0.5128 -0.4071  0.4068
 7517TIP3   OH244041   1.239   3.473  15.724  0.3860 -0.2982 -0.2908
 7517TIP3    H144042   1.150   3.446  15.746  0.3063 -1.9565 -2.3726
 7517TIP3    H244043   1.234   3.499  15.632  1.7070  1.4163  0.0636
 7518TIP3   OH244044   4.016   0.902  10.403 -0.9544 -0.1855 -0.1065
 7518TIP3    H144045   4.033   0.818  10.361  0.3191  0.5316 -1.1259
 7518TIP3    H244046   4.075   0.903  10.478 -0.8784 -0.1623 -0.1658
 7519TIP3   OH244047   0.006   3.879   2.908 -0.7444  0.0102  1.1240
 7519TIP3    H144048   0.030   3.790   2.881  2.1533  0.7477  0.9491
 7519TIP3    H244049  -0.009   3.925   2.825  2.8950  0.9004  0.7880
 7520TIP3   OH244050   4.805   2.287  13.569  0.0918 -0.0698 -1.0649
 7520TIP3    H144051   4.897   2.305  13.586 -0.3376  0.8974  0.4676
 7520TIP3    H244052   4.782   2.345  13.495  0.0409  1.9036  0.4133
 7521TIP3   OH244053   4.299   5.411   0.625 -0.0489 -0.4168  0.4703
 7521TIP3    H144054   4.279   5.326   0.664  0.8510 -1.0698 -0.4243
 7521TIP3    H244055   4.328   5.464   0.698 -2.1532 -0.3291  1.3251
 7522TIP3   OH244056   0.140   0.923  16.986 -0.7908  0.6000 -0.4179
 7522TIP3    H144057   0.196   0.977  17.042  0.3208 -1.4681  0.5406
 7522TIP3    H244058   0.052   0.960  16.999 -0.5175  0.5160  2.3632
 7523TIP3   OH244059   5.197   4.874  12.194 -0.1323  0.1705  0.0960
 7523TIP3    H144060   5.146   4.813  12.140 -0.3772 -0.8623  1.4361
 7523TIP3    H244061   5.135   4.906  12.260  0.4096  0.5997  0.4059
 7524TIP3   OH244062   3.333   2.538  16.402 -0.3682 -0.0074  0.0347
 7524TIP3    H144063   3.367   2.541  16.491 -1.1638 -1.4298  0.4194
 7524TIP3    H244064   3.410   2.553  16.346 -0.1326  2.5343  0.9393
 7525TIP3   OH244065   6.478   3.144  16.824 -0.0842  0.0031 -0.3119
 7525TIP3    H144066   6.538   3.180  16.759  0.3037  0.6022  0.3634
 7525TIP3    H244067   6.393   3.184  16.802 -0.6387 -2.0269 -2.2258
 7526TIP3   OH244068   1.632   4.357   3.879  0.5546 -0.6434 -0.3106
 7526TIP3    H144069   1.665   4.379   3.966 -0.0309  1.8981 -0.6486
 7526TIP3    H244070   1.684   4.411   3.819 -0.9193 -0.2144 -1.2660
 7527TIP3   OH244071   3.641   2.657  15.340 -0.0648  0.7190  0.1369
 7527TIP3    H144072   3.648   2.573  15.295  1.5648  0.2991  1.1228
 7527TIP3    H244073   3.554   2.689  15.315 -0.9335 -1.4623  0.1086
 7528TIP3   OH244074   0.187   6.800   6.182  0.2752  0.0110 -0.3272
 7528TIP3    H144075   0.180   6.871   6.118  1.4983 -0.0168 -0.5301
 7528TIP3    H244076   0.116   6.815   6.244  0.4806  1.3664 -0.4031
 7529TIP3   OH244077   4.847   1.935   0.470  0.0396  0.0385  0.6705
 7529TIP3    H144078   4.813   1.933   0.560  0.9964 -0.4667  1.0343
 7529TIP3    H244079   4.942   1.946   0.481  0.2272 -0.5625 -0.2590
 7530TIP3   OH244080   0.296   6.087  16.754 -0.1710  0.2870  0.6023
 7530TIP3    H144081   0.242   6.009  16.762  0.1978 -0.0209  0.1317
 7530TIP3    H244082   0.365   6.077  16.820  1.6795 -1.2807 -1.3975
 7531TIP3   OH244083   0.605   1.699  14.438  0.8869  0.0886 -0.0701
 7531TIP3    H144084   0.599   1.617  14.487  2.4294  0.1110  0.2055
 7531TIP3    H244085   0.571   1.765  14.499  0.1985 -0.2577 -0.0718
 7532TIP3   OH244086   3.127   1.512  15.025  0.2475 -0.3949  0.6609
 7532TIP3    H144087   3.154   1.513  15.117 -1.1217 -1.3568  1.1204
 7532TIP3    H244088   3.140   1.421  14.997  2.1181  0.2216 -0.6008
 7533TIP3   OH244089   5.807   5.336  15.660 -0.7387 -0.3929 -0.6441
 7533TIP3    H144090   5.883   5.383  15.694 -0.3495  0.2673 -2.3085
 7533TIP3    H244091   5.733   5.369  15.710  0.1628 -2.0325  1.9689
 7534TIP3   OH244092   6.497   4.986  14.844 -0.2860  0.0295  0.2941
 7534TIP3    H144093   6.477   5.078  14.827  1.1986  0.5808  1.2878
 7534TIP3    H244094   6.564   4.964  14.779 -0.2703 -0.2072  0.3895
 7535TIP3   OH244095   4.643   6.543  11.718 -0.6600 -0.0132  0.3750
 7535TIP3    H144096   4.580   6.472  11.702 -0.9604  0.5434 -1.0553
 7535TIP3    H244097   4.613   6.615  11.662 -0.3858  1.2794  1.8333
 7536TIP3   OH244098   3.514   5.709   0.696 -0.0929  0.4190 -0.0990
 7536TIP3    H144099   3.569   5.748   0.630 -1.1698  0.8007 -0.8016
 7536TIP3    H244100   3.543   5.618   0.702 -0.5021  0.1621 -1.6899
 7537TIP3   OH244101   4.223   6.254  11.546 -0.2146 -0.4085 -0.1335
 7537TIP3    H144102   4.229   6.269  11.641 -0.9063  1.4677 -0.3427
 7537TIP3    H244103   4.136   6.217  11.533  0.1898 -1.4428  0.0317
 7538TIP3   OH244104   0.945   5.672   4.566 -0.0548 -1.0337 -0.1409
 7538TIP3    H144105   1.025   5.700   4.609  0.2320 -0.5725 -0.9648
 7538TIP3    H244106   0.940   5.578   4.584  0.4536 -0.9943  0.2439
 7539TIP3   OH244107   2.544   0.339   1.686 -0.1895  0.5259 -0.8969
 7539TIP3    H144108   2.535   0.256   1.640  4.9865 -0.8285 -0.0387
 7539TIP3    H244109   2.489   0.330   1.763 -0.4788 -1.7090 -1.3067
 7540TIP3   OH244110   4.643   2.818  16.272 -0.1347 -0.3922  0.3692
 7540TIP3    H144111   4.726   2.777  16.297  0.6745  0.7551 -0.3238
 7540TIP3    H244112   4.622   2.780  16.187 -0.2219 -0.5296  0.4509
 7541TIP3   OH244113   5.787   1.140  11.302 -0.0177 -0.5350  0.4511
 7541TIP3    H144114   5.774   1.231  11.328  1.8832  0.6498 -2.2995
 7541TIP3    H244115   5.842   1.103  11.371 -0.6820  0.3998  1.5193
 7542TIP3   OH244116   0.500   3.640  17.161 -0.5210  0.2673  0.0268
 7542TIP3    H144117   0.577   3.604  17.205 -0.7566  1.6037  1.6513
 7542TIP3    H244118   0.531   3.665  17.075  0.5556 -0.3466  0.2183
 7543TIP3   OH244119   1.241   5.070   5.987 -0.1410  0.3412 -0.2512
 7543TIP3    H144120   1.247   5.160   5.955 -0.7180  0.0374 -1.2950
 7543TIP3    H244121   1.320   5.028   5.954  0.3775  0.5854  0.6683
 7544TIP3   OH244122   0.615   2.205  16.516 -0.0390 -0.2333  0.1782
 7544TIP3    H144123   0.598   2.290  16.475  1.9494 -0.3102 -0.9739
 7544TIP3    H244124   0.529   2.166  16.528 -0.9409  1.5685 -0.0911
 7545TIP3   OH244125   6.110   4.144  15.278  0.3806  0.4224  0.0195
 7545TIP3    H144126   6.081   4.162  15.367  0.2337 -1.5373  0.4091
 7545TIP3    H244127   6.051   4.195  15.223 -0.5273  0.4439  0.9872
 7546TIP3   OH244128   2.415   0.211  12.495 -0.3131 -0.4753 -0.1412
 7546TIP3    H144129   2.451   0.248  12.414 -0.8103 -2.4906 -1.3538
 7546TIP3    H244130   2.466   0.251  12.565 -1.7629  3.5994 -1.1421
 7547TIP3   OH244131   5.520   2.503  14.227  0.2292  0.0060  0.2161
 7547TIP3    H144132   5.488   2.474  14.312  2.3698  0.0999  1.1111
 7547TIP3    H244133   5.552   2.424  14.185  0.2071  0.1341 -0.0441
 7548TIP3   OH244134   0.562   3.577   0.364 -0.2515  0.0388  0.3937
 7548TIP3    H144135   0.615   3.569   0.284 -1.0692 -3.2098  0.0379
 7548TIP3    H244136   0.504   3.651   0.346  0.5441  0.2816 -1.4472
 7549TIP3   OH244137   1.224   5.635  14.697 -0.0215  0.0718 -0.5819
 7549TIP3    H144138   1.179   5.703  14.646 -0.4150 -1.0503 -1.7920
 7549TIP3    H244139   1.213   5.662  14.788 -0.5328  1.4017 -1.0077
 7550TIP3   OH244140   1.649   1.966  16.998 -0.3898  0.2216 -0.5259
 7550TIP3    H144141   1.698   2.048  17.004  2.4547 -1.4270  0.9000
 7550TIP3    H244142   1.618   1.950  17.087  0.2109 -0.8647 -0.5022
 7551TIP3   OH244143   2.514   2.266   2.979  0.1784  0.1929  0.1596
 7551TIP3    H144144   2.516   2.194   3.042  0.5169  0.5011  0.5064
 7551TIP3    H244145   2.533   2.344   3.031  1.6807  0.3135 -0.5270
 7552TIP3   OH244146   2.556   4.371   5.375  0.0991 -0.2916 -0.2199
 7552TIP3    H144147   2.618   4.314   5.420 -1.6719 -1.2909  1.0708
 7552TIP3    H244148   2.483   4.314   5.351 -1.1788  1.1748  0.0060
 7553TIP3   OH244149   5.288   4.251  11.442 -0.1902 -0.3173 -0.5708
 7553TIP3    H144150   5.216   4.220  11.498  0.3087 -0.2177  0.1392
 7553TIP3    H244151   5.290   4.189  11.369 -1.1860 -0.1515 -0.7552
 7554TIP3   OH244152   5.434   1.181  16.488 -0.3241  0.1291 -0.3499
 7554TIP3    H144153   5.412   1.243  16.418  0.5927 -1.4982 -2.1625
 7554TIP3    H244154   5.442   1.236  16.567 -1.2740  2.0406 -1.5210
 7555TIP3   OH244155   5.814   3.132  13.609 -0.7353  0.2029 -0.5073
 7555TIP3    H144156   5.743   3.150  13.548 -0.5580 -0.9546 -1.0809
 7555TIP3    H244157   5.871   3.072  13.563  1.3439  2.0717 -0.5718
 7556TIP3   OH244158   3.164   6.736   4.444  0.1676  0.0485 -0.7569
 7556TIP3    H144159   3.156   6.784   4.527  1.6784 -3.7332  1.8536
 7556TIP3    H244160   3.102   6.663   4.452  1.9850 -1.7335 -1.8461
 7557TIP3   OH244161   5.840   6.294   4.335  0.4276 -0.5717 -0.1646
 7557TIP3    H144162   5.859   6.263   4.423 -0.9793  0.3622  0.5192
 7557TIP3    H244163   5.753   6.260   4.316 -0.4853  1.5051 -0.0176
 7558TIP3   OH244164   2.557   1.934  14.210  0.3835 -0.4114 -0.7432
 7558TIP3    H144165   2.558   2.030  14.215 -0.8426 -0.4300  0.2931
 7558TIP3    H244166   2.477   1.908  14.257  1.9523 -2.0545  1.2310
 7559TIP3   OH244167   5.476   6.350  16.551 -0.3924  0.1341 -0.0141
 7559TIP3    H144168   5.544   6.396  16.599 -0.9350 -0.5501  1.4507
 7559TIP3    H244169   5.499   6.257  16.558 -0.4059  0.0205 -1.2171
 7560TIP3   OH244170   1.443   1.880  11.796 -0.0854 -0.6406  0.7735
 7560TIP3    H144171   1.505   1.935  11.748 -0.0406 -1.8426 -0.6160
 7560TIP3    H244172   1.495   1.806  11.826 -0.6792 -1.2579  0.2935
 7561TIP3   OH244173   5.318   0.385  12.278  0.1320 -0.5088  0.0875
 7561TIP3    H144174   5.361   0.300  12.270  0.0096 -0.4827 -1.0734
 7561TIP3    H244175   5.327   0.408  12.370  0.1841 -1.7686  0.4166
 7562TIP3   OH244176   6.733   4.282   0.013  0.1211  0.2062 -0.0899
 7562TIP3    H144177   6.646   4.275  -0.027  0.7808  1.1670 -1.8031
 7562TIP3    H244178   6.720   4.254   0.104 -1.8237 -0.3350 -0.4887
 7563TIP3   OH244179   1.053   1.217  14.303  0.5090  0.5215  0.4868
 7563TIP3    H144180   0.974   1.196  14.352  0.7169 -0.7730  0.3042
 7563TIP3    H244181   1.031   1.200  14.212 -0.0885  3.5489 -0.0487
 7564TIP3   OH244182   6.657   4.394  13.002  0.0805 -0.3391  0.6822
 7564TIP3    H144183   6.646   4.330  12.931 -2.5238  0.1620  0.5382
 7564TIP3    H244184   6.750   4.419  12.997  0.1182 -0.6432 -2.2975
 7565TIP3   OH244185   2.456   2.017  12.829 -0.1315  0.0842 -0.2927
 7565TIP3    H144186   2.513   2.090  12.808 -2.5956  2.4862  0.7415
 7565TIP3    H244187   2.459   2.011  12.925 -1.2189 -0.0209 -0.2488
 7566TIP3   OH244188   1.764   3.084  16.929  0.4375 -0.5966  0.2505
 7566TIP3    H144189   1.779   3.167  16.975 -0.4054  0.5764 -1.4837
 7566TIP3    H244190   1.671   3.086  16.906  0.7129 -1.3543 -1.0272
 7567TIP3   OH244191   3.059   3.132   1.823  0.1181 -0.3795  0.2905
 7567TIP3    H144192   3.102   3.207   1.865  0.5181 -0.0185 -0.7257
 7567TIP3    H244193   3.012   3.088   1.894 -0.1478  0.8517  0.9005
 7568TIP3   OH244194   4.116   6.000  11.611 -0.1879  0.2162 -0.1693
 7568TIP3    H144195   4.070   6.029  11.532 -0.0402 -1.8869 -1.0837
 7568TIP3    H244196   4.170   5.926  11.582  0.5267 -0.0737  1.7405
 7569TIP3   OH244197   0.345   2.029   5.257  0.5201  0.5849 -0.4749
 7569TIP3    H144198   0.296   1.955   5.222  2.2493 -0.9786  0.2294
 7569TIP3    H244199   0.290   2.064   5.327 -0.1810 -0.2409 -0.6007
 7570TIP3   OH244200   3.814   3.717  12.748 -0.4913 -0.2300 -0.9013
 7570TIP3    H144201   3.743   3.672  12.701 -1.7078 -0.4619  1.0735
 7570TIP3    H244202   3.785   3.720  12.839  2.4044 -1.1196  0.1769
 7571TIP3   OH244203   1.701   6.229  10.411 -0.6573 -0.3041 -0.6896
 7571TIP3    H144204   1.745   6.151  10.444 -1.0520 -0.2716 -0.0623
 7571TIP3    H244205   1.757   6.302  10.438 -2.2336 -0.0445  2.2980
 7572TIP3   OH244206   6.143   2.201  10.413  0.4134 -0.4306  0.0567
 7572TIP3    H144207   6.182   2.163  10.335 -0.0443  0.3111 -0.5461
 7572TIP3    H244208   6.171   2.293  10.411 -0.2049 -0.2338  0.3681
 7573TIP3   OH244209   5.898   3.615  16.288  0.7795  0.8413 -0.1616
 7573TIP3    H144210   5.916   3.587  16.198  1.9143 -0.4183  0.4342
 7573TIP3    H244211   5.805   3.596  16.300  0.9639 -0.4738 -0.5834
 7574TIP3   OH244212   4.191   1.181   5.037  0.4203  0.0995 -0.7476
 7574TIP3    H144213   4.286   1.173   5.036  0.5039  0.9725 -1.0303
 7574TIP3    H244214   4.167   1.188   4.944 -0.0722 -1.5890 -0.7726
 7575TIP3   OH244215   3.172   3.931  17.108 -0.1487 -0.3449  0.2142
 7575TIP3    H144216   3.220   3.862  17.154 -1.5132  0.1111  2.4874
 7575TIP3    H244217   3.208   3.930  17.019  0.5442 -3.3312  0.4052
 7576TIP3   OH244218   4.141   4.347  14.361 -0.4446 -0.1086  0.4313
 7576TIP3    H144219   4.173   4.353  14.271 -0.0636  3.9445  0.6490
 7576TIP3    H244220   4.078   4.275  14.359  0.3656 -0.9004 -2.7636
 7577TIP3   OH244221   2.766   0.037  11.461  0.4117 -0.0685 -0.5791
 7577TIP3    H144222   2.714   0.093  11.518  3.0430  2.3573 -0.3116
 7577TIP3    H244223   2.820  -0.015  11.521  0.8734  0.1211 -0.8190
 7578TIP3   OH244224   2.497   5.248   1.937  0.1501 -0.2468 -0.4290
 7578TIP3    H144225   2.537   5.220   1.855  2.0567  1.1352 -0.0448
 7578TIP3    H244226   2.447   5.326   1.914  0.6403  0.1089 -0.3143
 7579TIP3   OH244227   5.653   3.602  15.771  0.5271  0.2455 -0.7834
 7579TIP3    H144228   5.621   3.512  15.761  2.7484 -0.4414 -2.6577
 7579TIP3    H244229   5.698   3.602  15.855 -1.1399  0.2230  0.1592
 7580TIP3   OH244230   5.145   5.733  15.464 -0.0240  0.7371  0.1256
 7580TIP3    H144231   5.052   5.745  15.486 -0.3485  0.4554 -0.9830
 7580TIP3    H244232   5.190   5.802  15.511 -0.7035  0.4303  1.2722
 7581TIP3   OH244233   0.084   0.065   4.764 -0.1429  0.3330 -0.1000
 7581TIP3    H144234   0.084   0.014   4.845 -0.6924  0.5884  0.0636
 7581TIP3    H244235   0.028   0.141   4.783 -0.4641  0.2778 -0.7910
 7582TIP3   OH244236   6.633   2.298   0.670  0.3967  0.2150  0.0499
 7582TIP3    H144237   6.692   2.235   0.630  0.5016  0.2056  0.2175
 7582TIP3    H244238   6.556   2.299   0.613  0.4813  0.0905 -0.0664
 7583TIP3   OH244239   1.527   0.540   5.304 -0.4210 -0.1744 -0.6017
 7583TIP3    H144240   1.433   0.550   5.313 -0.5429 -1.2652 -0.4834
 7583TIP3    H244241   1.543   0.446   5.318  0.5304 -0.2307 -1.8617
 7584TIP3   OH244242   4.220   0.992   1.589  0.0989 -0.2279 -0.6336
 7584TIP3    H144243   4.133   0.957   1.573  0.0328 -0.1060 -0.5422
 7584TIP3    H244244   4.262   0.927   1.645 -0.2652  0.1678  0.1178
 7585TIP3   OH244245   5.540   2.947  11.590 -0.1286 -0.1877  0.0261
 7585TIP3    H144246   5.470   2.912  11.645  1.5056 -1.1688  1.5821
 7585TIP3    H244247   5.513   2.924  11.501 -1.5362 -0.9649  0.6119
 7586TIP3   OH244248   4.580   4.382  11.018  0.0425 -0.0061  0.3418
 7586TIP3    H144249   4.541   4.301  10.986 -2.6633  1.4669 -0.4098
 7586TIP3    H244250   4.584   4.439  10.941  0.6399  1.0108  1.1022
 7587TIP3   OH244251   4.639   6.446   5.538  0.3793  0.1089 -0.3150
 7587TIP3    H144252   4.706   6.441   5.469 -1.0624 -3.4886 -1.6843
 7587TIP3    H244253   4.556   6.441   5.490 -0.6958 -1.8487  1.6325
 7588TIP3   OH244254   4.647   4.283   1.439  0.4082  0.1870 -0.7537
 7588TIP3    H144255   4.585   4.260   1.370 -1.7619  1.9481  0.4662
 7588TIP3    H244256   4.647   4.207   1.497  0.5894 -0.4519 -1.5839
 7589TIP3   OH244257   4.798   0.450  13.566 -0.8941  0.0603 -0.0359
 7589TIP3    H144258   4.710   0.431  13.532 -0.9584  1.3136 -0.6417
 7589TIP3    H244259   4.782   0.507  13.642 -0.6201  0.1497 -0.0431
 7590TIP3   OH244260   4.096   2.065   5.534  0.5894 -0.0355 -0.0803
 7590TIP3    H144261   4.053   1.990   5.574  0.7832 -0.0289  0.1410
 7590TIP3    H244262   4.104   2.129   5.605 -1.2166  0.9187 -0.6807
 7591TIP3   OH244263   2.338   4.245  11.385 -0.0011 -0.2525 -0.6162
 7591TIP3    H144264   2.337   4.291  11.469  0.3339 -0.4879 -0.4798
 7591TIP3    H244265   2.376   4.160  11.404  1.2745  0.1503 -1.2252
 7592TIP3   OH244266   2.646   1.812   1.751 -0.2297 -0.3497 -0.4427
 7592TIP3    H144267   2.734   1.805   1.790  0.1716 -0.5347 -1.3536
 7592TIP3    H244268   2.661   1.856   1.667 -0.9859 -0.5236 -0.6709
 7593TIP3   OH244269   5.004   1.592   3.817  0.2029  0.1299  0.5246
 7593TIP3    H144270   4.936   1.655   3.795  0.6803  0.3725 -0.2971
 7593TIP3    H244271   4.981   1.561   3.905 -0.4132  0.9311  0.6547
 7594TIP3   OH244272   1.024   3.378  13.441  0.4841 -0.0276 -0.2102
 7594TIP3    H144273   0.968   3.429  13.500  1.9070  0.8166  0.4699
 7594TIP3    H244274   1.091   3.341  13.498 -0.7167 -3.0883 -0.6183
 7595TIP3   OH244275   0.980   6.070  11.783 -0.1688 -0.5803  1.0414
 7595TIP3    H144276   0.998   6.128  11.709 -1.4646 -1.5694 -0.0965
 7595TIP3    H244277   0.918   6.119  11.837 -0.9463 -0.7152  0.2947
 7596TIP3   OH244278   6.288   4.315  13.331 -0.2071  0.0687  0.5004
 7596TIP3    H144279   6.377   4.344  13.346 -0.6016  0.3998  2.5219
 7596TIP3    H244280   6.285   4.226  13.367 -0.7392  0.1598  0.6967
 7597TIP3   OH244281   5.536   1.710   2.119  0.4668 -0.3556  0.0958
 7597TIP3    H144282   5.529   1.702   2.023  0.4811  0.7705 -0.0129
 7597TIP3    H244283   5.454   1.751   2.146  0.3173 -0.9881  0.6139
 7598TIP3   OH244284   2.626   5.805   5.422  0.0088  0.4400 -0.2930
 7598TIP3    H144285   2.641   5.846   5.507 -0.2686  1.0985 -0.5570
 7598TIP3    H244286   2.601   5.877   5.364  0.4688  0.0398 -1.0049
 7599TIP3   OH244287   5.918   3.508  13.387  0.1361 -0.0288 -0.0620
 7599TIP3    H144288   5.846   3.541  13.439  1.0746  3.1327 -0.5455
 7599TIP3    H244289   5.939   3.423  13.425 -1.6583  0.4653  2.2025
 7600TIP3   OH244290   4.205   6.094  13.545 -0.1420  0.1631  0.4257
 7600TIP3    H144291   4.283   6.116  13.493 -0.3744  0.4066  0.1711
 7600TIP3    H244292   4.231   6.108  13.636  0.3337 -0.4611  0.3893
 7601TIP3   OH244293   4.611   2.414   5.515  0.1500 -0.3834  0.6155
 7601TIP3    H144294   4.598   2.400   5.609 -1.6448 -0.6207  0.3672
 7601TIP3    H244295   4.565   2.496   5.497  2.0540  0.6612  0.2430
 7602TIP3   OH244296   6.816   5.947   4.526  0.3929  0.3779  0.1088
 7602TIP3    H144297   6.909   5.967   4.520  0.4510 -0.0461 -0.4690
 7602TIP3    H244298   6.774   6.010   4.467  0.3821  0.1428 -0.1388
 7603TIP3   OH244299   4.585   4.010   0.001  0.6695  0.2714 -0.0043
 7603TIP3    H144300   4.644   3.967  -0.060  0.3885  0.1379 -0.1841
 7603TIP3    H244301   4.589   4.103  -0.023  0.5178  0.2119 -0.2631
 7604TIP3   OH244302   2.051   6.493   4.780  0.7153 -0.3050 -0.1908
 7604TIP3    H144303   1.989   6.565   4.791  1.2080  0.2321 -0.8447
 7604TIP3    H244304   2.106   6.519   4.706  0.7479 -1.4666 -0.5979
 7605TIP3   OH244305   0.518   4.166  15.551  0.2099 -0.3253 -0.3947
 7605TIP3    H144306   0.449   4.125  15.604  2.3622 -3.4385  0.2598
 7605TIP3    H244307   0.599   4.140  15.594  1.9077  2.2289 -1.8064
 7606TIP3   OH244308   1.039   5.913   3.715 -0.6606  0.1587  0.2683
 7606TIP3    H144309   1.039   6.000   3.755 -1.1806 -0.1779  1.0268
 7606TIP3    H244310   0.952   5.878   3.735 -1.4616  0.4741 -2.3053
 7607TIP3   OH244311   2.591   6.058   5.286 -0.5270 -0.1128  0.1174
 7607TIP3    H144312   2.557   6.145   5.304 -1.5353 -0.5223  0.2780
 7607TIP3    H244313   2.630   6.064   5.199 -0.4688  0.5289  0.1871
 7608TIP3   OH244314   6.348   4.875  13.934 -0.3510 -0.0697 -0.2013
 7608TIP3    H144315   6.388   4.961  13.917 -1.0439  0.0552 -1.3239
 7608TIP3    H244316   6.355   4.829  13.851 -0.7610 -0.7839  0.1550
 7609TIP3   OH244317   5.265   5.897  14.886 -0.0995  0.0826  0.0980
 7609TIP3    H144318   5.245   5.987  14.910  0.6768  0.1555  0.4661
 7609TIP3    H244319   5.251   5.847  14.966  0.4583  0.0215  0.1572
 7610TIP3   OH244320   1.075   6.594  15.047  0.6082  0.4289  0.0164
 7610TIP3    H144321   1.120   6.510  15.048  1.0636  0.3467  5.4933
 7610TIP3    H244322   1.142   6.657  15.018  0.4321 -0.8317 -3.5366
 7611TIP3   OH244323   2.527   5.321  16.759 -0.5283 -0.2021  0.3149
 7611TIP3    H144324   2.475   5.309  16.679 -0.0813 -0.0322 -0.0092
 7611TIP3    H244325   2.584   5.245  16.763  1.2335  0.9624 -0.9235
 7612TIP3   OH244326   5.526   0.352   3.183  0.0993 -0.1039 -0.0857
 7612TIP3    H144327   5.439   0.376   3.149  0.9217  0.5478 -1.8799
 7612TIP3    H244328   5.542   0.265   3.148  0.1409 -0.2527  0.3048
 7613TIP3   OH244329   3.115   0.349  12.537  0.2347  0.2397  0.3138
 7613TIP3    H144330   3.078   0.267  12.570 -0.4970 -0.1728 -1.4533
 7613TIP3    H244331   3.209   0.341  12.555  0.3204 -1.4236 -0.6439
 7614TIP3   OH244332   4.320   6.124  15.498  0.3256  0.7921 -0.4182
 7614TIP3    H144333   4.322   6.049  15.438 -0.4464  1.2291 -1.0052
 7614TIP3    H244334   4.257   6.097  15.566  1.1872  0.3040  0.2036
 7615TIP3   OH244335   1.099   1.820  12.314  0.5922 -0.7446  0.4120
 7615TIP3    H144336   1.068   1.825  12.224  2.8562 -0.8972 -0.4370
 7615TIP3    H244337   1.030   1.772  12.360 -2.3469  2.3767 -0.3525
 7616TIP3   OH244338   0.361   1.603  13.597  0.0444  0.1745 -0.0165
 7616TIP3    H144339   0.441   1.645  13.627  0.2179 -0.9105  1.1793
 7616TIP3    H244340   0.290   1.659  13.630  0.2541 -0.6975  2.0633
 7617TIP3   OH244341   5.123   0.296  12.774  0.0871  0.3594  0.0630
 7617TIP3    H144342   5.071   0.264  12.847  0.4310 -0.2605  0.0450
 7617TIP3    H244343   5.061   0.302  12.701  0.0429 -0.4298  0.0245
 7618TIP3   OH244344   0.068   2.648  12.402 -0.5821  0.3007 -0.0386
 7618TIP3    H144345  -0.001   2.678  12.344 -1.6100 -0.8112  0.5522
 7618TIP3    H244346   0.126   2.724  12.413 -1.4516  1.1140 -0.9058
 7619TIP3   OH244347   4.660   3.964   4.884 -1.1522 -0.5759 -0.8239
 7619TIP3    H144348   4.668   4.010   4.967  0.4207 -0.2621 -1.1380
 7619TIP3    H244349   4.592   4.012   4.837 -1.1939 -0.0146 -0.2104
 7620TIP3   OH244350   4.005   0.630   4.754  0.0979 -0.7530  0.2628
 7620TIP3    H144351   4.007   0.718   4.791 -0.6292 -0.5150 -0.2313
 7620TIP3    H244352   4.001   0.572   4.830 -1.3109 -0.2806  0.5848
 7621TIP3   OH244353   2.466   6.014   3.765 -0.4602  0.6063 -0.2045
 7621TIP3    H144354   2.554   6.052   3.768 -1.1829  2.3982 -0.4270
 7621TIP3    H244355   2.432   6.025   3.854 -0.4076 -0.2393 -0.0745
 7622TIP3   OH244356   4.132   2.976   4.079 -0.1780  0.1845  0.4023
 7622TIP3    H144357   4.220   2.995   4.048 -0.3669  0.0240 -0.2504
 7622TIP3    H244358   4.113   2.888   4.047 -0.6100  0.2564  0.4467
 7623TIP3   OH244359   6.740   5.804  14.593 -0.4429  0.7489  0.5510
 7623TIP3    H144360   6.822   5.854  14.596 -0.0425  0.0627  1.3972
 7623TIP3    H244361   6.692   5.842  14.519  0.3214  1.6432  0.4923
 7624TIP3   OH244362   0.878   4.358  15.031  0.4562 -0.1065  0.3848
 7624TIP3    H144363   0.929   4.300  14.975  1.0079  0.2602  0.4980
 7624TIP3    H244364   0.941   4.422  15.063 -0.5306  1.9848 -1.5988
 7625TIP3   OH244365   3.185   4.828   5.028 -0.1852 -0.0986 -1.0421
 7625TIP3    H144366   3.120   4.849   5.095  0.6893  0.4034 -0.3251
 7625TIP3    H244367   3.226   4.747   5.058  0.0580  0.0082 -1.0786
 7626TIP3   OH244368   5.930   5.680  14.733 -0.2073  0.0025  0.4411
 7626TIP3    H144369   6.018   5.652  14.706 -0.4055 -0.1711 -0.0303
 7626TIP3    H244370   5.924   5.655  14.825  0.0027 -0.5621  0.3028
 7627TIP3   OH244371   2.353   0.320  10.909 -0.4904 -0.0019 -0.5109
 7627TIP3    H144372   2.417   0.280  10.849  1.6777  0.0546  1.6088
 7627TIP3    H244373   2.286   0.252  10.920 -0.4608 -0.3658 -2.2157
 7628TIP3   OH244374   4.732   3.132  12.003 -0.4634 -0.7430  0.4235
 7628TIP3    H144375   4.687   3.214  12.022 -1.6378 -1.3629  0.4105
 7628TIP3    H244376   4.770   3.145  11.916 -0.7801 -0.2683  0.3544
 7629TIP3   OH244377   0.556   5.597  16.992  0.1566 -0.1730  0.8814
 7629TIP3    H144378   0.520   5.651  16.922  1.2803  1.4100  1.4881
 7629TIP3    H244379   0.571   5.512  16.951 -0.3907  0.3535 -0.4568
 7630TIP3   OH244380   1.775   2.378   0.726 -0.4797  0.7560  0.2465
 7630TIP3    H144381   1.740   2.291   0.744 -0.0137  0.6445  0.6188
 7630TIP3    H244382   1.862   2.378   0.765 -0.2201  1.1704 -0.3130
 7631TIP3   OH244383   2.925   4.672   3.460  0.0191 -0.7559  0.3154
 7631TIP3    H144384   2.947   4.610   3.392  1.4904  0.4296 -0.3536
 7631TIP3    H244385   2.840   4.643   3.493  0.7049 -3.1668  0.1514
 7632TIP3   OH244386   2.223   4.815   4.625 -0.2698 -0.4509 -0.1662
 7632TIP3    H144387   2.242   4.746   4.688 -0.0761  0.0803  0.3676
 7632TIP3    H244388   2.219   4.895   4.678 -1.9156 -0.2420 -0.5526
 7633TIP3   OH244389   5.123   2.884   4.305 -0.0685  0.0434  0.1253
 7633TIP3    H144390   5.200   2.828   4.316  0.1589  0.5406  1.1670
 7633TIP3    H244391   5.095   2.869   4.214 -0.3621 -2.1939  0.5187
 7634TIP3   OH244392   6.770   4.988   2.639  0.1970  0.1549 -0.6105
 7634TIP3    H144393   6.771   5.080   2.613 -2.4710  0.7163  0.9625
 7634TIP3    H244394   6.776   4.940   2.556  3.4866  1.5953 -1.3750
 7635TIP3   OH244395   6.521   6.015   5.396 -0.2458 -0.6487  0.3667
 7635TIP3    H144396   6.577   6.032   5.472  1.2518 -0.6373 -0.6907
 7635TIP3    H244397   6.439   5.983   5.433 -0.3810  1.4763  2.0754
 7636TIP3   OH244398   2.927   3.208   5.935  0.1248  0.1604 -0.2328
 7636TIP3    H144399   2.934   3.227   6.029 -0.4369  1.5806 -0.4490
 7636TIP3    H244400   2.898   3.117   5.931  3.4251 -1.0621  0.8793
 7637TIP3   OH244401   6.439   5.727   4.020  0.3042  0.4343 -0.1365
 7637TIP3    H144402   6.499   5.801   4.028  1.1809 -0.1635 -1.0435
 7637TIP3    H244403   6.378   5.754   3.951 -0.0137  0.7222  0.2489
 7638TIP3   OH244404   0.108   4.038   3.249 -0.6191  0.1156 -0.2745
 7638TIP3    H144405   0.141   4.025   3.160 -0.7133 -1.6603 -0.0944
 7638TIP3    H244406   0.183   4.071   3.298 -0.0990 -0.4820 -0.6542
 7639TIP3   OH244407   0.744   0.770  11.778  0.2243 -0.2049  0.7314
 7639TIP3    H144408   0.703   0.717  11.710 -0.2641  0.1451  0.7432
 7639TIP3    H244409   0.838   0.756  11.767  0.1165 -0.7284  0.4617
 7640TIP3   OH244410   3.495   6.502   0.462 -0.4516 -0.0643  0.2634
 7640TIP3    H144411   3.514   6.453   0.382  0.3759 -0.7205  0.8404
 7640TIP3    H244412   3.407   6.473   0.488 -1.0290  0.6838 -0.7700
 7641TIP3   OH244413   3.934   3.784   1.095 -0.1443  0.5999 -0.1973
 7641TIP3    H144414   3.945   3.747   1.183 -1.9099  1.9361  0.6458
 7641TIP3    H244415   3.884   3.718   1.047  0.6146 -0.0291 -0.1351
 7642TIP3   OH244416   0.480   5.509   5.824  0.3338 -0.3407 -0.5459
 7642TIP3    H144417   0.524   5.571   5.766  0.4840 -0.4411 -0.5380
 7642TIP3    H244418   0.497   5.424   5.785 -1.7846 -0.2422 -1.8859
 7643TIP3   OH244419   3.048   2.945   0.098  0.1949 -0.0273  0.1969
 7643TIP3    H144420   2.968   2.917   0.143  0.2333  1.9915  1.6668
 7643TIP3    H244421   3.021   2.961   0.008 -0.3763 -2.0489 -0.0578
 7644TIP3   OH244422   4.072   4.922  14.763  0.4153 -0.8290  0.1980
 7644TIP3    H144423   4.065   4.827  14.758  3.0762 -1.0906  0.1393
 7644TIP3    H244424   4.155   4.938  14.807  0.0307  1.4916  0.2280
 7645TIP3   OH244425   5.234   3.464   0.115  0.4365 -0.2830 -0.7652
 7645TIP3    H144426   5.161   3.503   0.164 -0.1845 -0.8638 -1.2259
 7645TIP3    H244427   5.297   3.440   0.183 -1.5074 -3.4871  0.1128
 7646TIP3   OH244428   0.182   1.078   1.230  0.4394  0.6320 -0.5394
 7646TIP3    H144429   0.171   1.149   1.293  0.0528  1.3657 -1.4100
 7646TIP3    H244430   0.269   1.043   1.248  0.0279  0.3137  0.8996
 7647TIP3   OH244431   6.143   5.552  14.414 -0.1255 -0.5438 -0.8221
 7647TIP3    H144432   6.066   5.506  14.447 -0.9782  1.6586  0.4988
 7647TIP3    H244433   6.180   5.594  14.491  1.3897 -0.1272 -1.7480
 7648TIP3   OH244434   1.862   4.334   3.258  0.3917 -0.1635  0.4516
 7648TIP3    H144435   1.830   4.281   3.331 -0.0946 -1.2014 -0.4810
 7648TIP3    H244436   1.841   4.282   3.180 -0.1594  1.4387 -0.5158
 7649TIP3   OH244437   2.443   2.700   4.397  0.6560  0.2328 -0.3862
 7649TIP3    H144438   2.401   2.644   4.332  1.3954 -2.1426  1.0534
 7649TIP3    H244439   2.386   2.777   4.403 -0.0553 -0.0211 -2.9254
 7650TIP3   OH244440   3.018   0.523   1.174 -0.3782 -0.2392 -0.2462
 7650TIP3    H144441   2.986   0.510   1.263 -1.5400  1.2452 -0.4154
 7650TIP3    H244442   3.106   0.560   1.185 -0.2470 -0.6831  0.2554
 7651TIP3   OH244443   4.690   3.580  14.514  0.0444 -0.1398 -0.2288
 7651TIP3    H144444   4.722   3.653  14.460 -0.6226  1.1338  1.0121
 7651TIP3    H244445   4.597   3.574  14.492  0.1411 -0.7455 -0.4646
 7652TIP3   OH244446   1.639   3.633   1.003  0.7567  0.3466 -0.6159
 7652TIP3    H144447   1.578   3.638   0.930  0.9831  0.2461 -0.8142
 7652TIP3    H244448   1.660   3.539   1.011  0.8325  0.3723 -0.5042
 7653TIP3   OH244449   6.519   1.157  14.943 -0.9956  0.1063 -0.4295
 7653TIP3    H144450   6.440   1.179  14.993 -0.7665 -0.8412  0.4028
 7653TIP3    H244451   6.506   1.066  14.917  0.3339 -0.4848  0.8040
 7654TIP3   OH244452   1.021   3.022  12.072  0.0066 -0.1799 -0.0224
 7654TIP3    H144453   1.108   3.043  12.037 -0.6666  0.2223 -1.5045
 7654TIP3    H244454   0.973   2.985  11.998 -1.1230 -0.3081  0.7520
 7655TIP3   OH244455   2.333   2.956  12.717  0.1727 -0.5751  0.3972
 7655TIP3    H144456   2.339   3.041  12.761 -2.5586  0.6818 -1.4006
 7655TIP3    H244457   2.423   2.936  12.692  0.8173  2.3357 -0.0047
 7656TIP3   OH244458   2.152   1.448  14.752 -0.1509 -0.2773  0.8797
 7656TIP3    H144459   2.184   1.502  14.680  0.0494 -0.0576  1.1323
 7656TIP3    H244460   2.162   1.358  14.721 -1.9767 -0.1640 -0.1918
 7657TIP3   OH244461   1.903   4.101   0.940  0.0938  0.0094 -0.1709
 7657TIP3    H144462   1.846   4.040   0.987 -1.7291  1.9579  0.2735
 7657TIP3    H244463   1.882   4.187   0.976  2.0125  1.0358 -1.3304
 7658TIP3   OH244464   2.858   2.274   1.258  0.5554  0.8280  0.3189
 7658TIP3    H144465   2.826   2.201   1.311 -1.2144  1.5943  0.3959
 7658TIP3    H244466   2.858   2.349   1.318  3.3485  0.7534  0.5263
 7659TIP3   OH244467   6.076   4.990  14.936 -0.1691 -0.2346  0.1651
 7659TIP3    H144468   6.081   4.959  15.026 -0.3872  1.0771  0.6641
 7659TIP3    H244469   6.029   5.074  14.943  1.1546  0.6388 -0.9699
 7660TIP3   OH244470   4.857   6.718   0.704  0.2705 -0.0126 -0.3047
 7660TIP3    H144471   4.937   6.673   0.730  0.3740 -0.1983 -0.9276
 7660TIP3    H244472   4.858   6.801   0.752 -0.4391 -1.1011  1.6698
 7661TIP3   OH244473   0.583   0.136  17.193  0.4045 -0.5889  0.0460
 7661TIP3    H144474   0.581   0.187  17.275 -1.4751  1.6797 -1.2858
 7661TIP3    H244475   0.569   0.046  17.221  0.6455  0.0030  2.2924
 7662TIP3   OH244476   1.582   4.823   0.774 -0.2731  0.0801 -0.2990
 7662TIP3    H144477   1.598   4.752   0.712  1.6256  0.9087 -0.8370
 7662TIP3    H244478   1.542   4.781   0.850 -0.9214 -1.2466 -1.3384
 7663TIP3   OH244479   5.955   4.984  16.577 -0.2636  0.7089 -0.3254
 7663TIP3    H144480   5.937   5.056  16.637  1.2528 -0.3307  1.5228
 7663TIP3    H244481   5.889   4.918  16.599 -0.3004  0.7012 -0.4613
 7664TIP3   OH244482   5.244   2.174  13.425  0.5707 -0.2896  0.5577
 7664TIP3    H144483   5.214   2.156  13.336  1.6546  0.4693  0.0205
 7664TIP3    H244484   5.225   2.094  13.474  2.7747 -1.9236 -1.0850
 7665TIP3   OH244485   4.993   6.225  14.135 -0.8804 -0.1877  0.0192
 7665TIP3    H144486   5.037   6.198  14.216 -1.3225  3.0618  1.4877
 7665TIP3    H244487   4.905   6.249  14.163 -1.1028  0.8154 -1.4540
 7666TIP3   OH244488   5.773   1.381  15.701 -1.0814 -0.5419  0.0125
 7666TIP3    H144489   5.830   1.398  15.777 -0.5800 -1.1222 -0.2257
 7666TIP3    H244490   5.731   1.466  15.684  1.1571  0.4447 -0.9956
 7667TIP3   OH244491   3.892   6.507  11.537  0.1826 -0.4279  0.0273
 7667TIP3    H144492   3.841   6.577  11.496  0.2548 -0.6189 -0.3913
 7667TIP3    H244493   3.837   6.429  11.528 -0.2147 -0.2982  1.1221
 7668TIP3   OH244494   3.389   4.793  13.770  0.0558  0.5370 -0.1532
 7668TIP3    H144495   3.366   4.729  13.703 -0.0342  0.5911 -0.1749
 7668TIP3    H244496   3.454   4.849  13.729 -0.1051  0.6579 -0.2452
 7669TIP3   OH244497   0.280   3.589  12.131  0.0275 -0.1635 -0.0053
 7669TIP3    H144498   0.212   3.531  12.164 -0.5541 -0.2962 -1.3553
 7669TIP3    H244499   0.243   3.676  12.136  1.1686  0.2564  2.6996
 7670TIP3   OH244500   5.359   1.882  11.103 -0.1431  0.1331  0.0985
 7670TIP3    H144501   5.376   1.853  11.193 -1.9386  0.6780  0.6580
 7670TIP3    H244502   5.328   1.972  11.112  2.2806  1.2159 -1.3458
 7671TIP3   OH244503   2.498   6.706   2.092  0.1622 -0.3597 -0.1387
 7671TIP3    H144504   2.428   6.651   2.057 -0.2505 -0.1532  0.3450
 7671TIP3    H244505   2.543   6.740   2.014  0.4515 -1.4006 -0.4466
 7672TIP3   OH244506   4.874   0.593   4.118 -0.2738  0.2417 -0.2670
 7672TIP3    H144507   4.869   0.686   4.136  2.1088  0.1421  1.3502
 7672TIP3    H244508   4.785   0.561   4.131 -0.5707  1.8298  2.2063
 7673TIP3   OH244509   3.681   6.351  12.090 -0.1631 -0.4403  0.0305
 7673TIP3    H144510   3.743   6.291  12.130  0.1903 -0.4150 -0.4753
 7673TIP3    H244511   3.680   6.327  11.997 -1.7921 -1.2330  0.2054
 7674TIP3   OH244512   5.569   3.366   1.904 -0.3681 -0.3262  0.2988
 7674TIP3    H144513   5.539   3.277   1.884  0.0426 -0.6276  0.9989
 7674TIP3    H244514   5.593   3.363   1.997 -0.5334  0.5669  0.3785
 7675TIP3   OH244515   0.558   1.551  12.660 -0.2405  0.4593  0.1403
 7675TIP3    H144516   0.595   1.615  12.721  1.5990 -1.7972  1.6081
 7675TIP3    H244517   0.553   1.470  12.711 -0.8398 -0.9977 -2.0862
 7676TIP3   OH244518   3.421   4.384  11.810  0.2253 -0.2868 -0.4663
 7676TIP3    H144519   3.458   4.461  11.768 -2.5550  1.3691 -0.1252
 7676TIP3    H244520   3.350   4.357  11.752  0.4015 -1.8967  0.0230
 7677TIP3   OH244521   1.994   0.198   3.355 -0.0225 -0.4030  0.2649
 7677TIP3    H144522   2.077   0.215   3.311 -1.1606 -0.4160 -2.0457
 7677TIP3    H244523   1.976   0.105   3.339 -0.0837 -0.6355  1.5346
 7678TIP3   OH244524   5.470   4.293  12.260  0.8614 -0.2353 -0.2468
 7678TIP3    H144525   5.525   4.215  12.266 -0.9447 -1.5181  0.9680
 7678TIP3    H244526   5.388   4.267  12.303 -0.3960  1.8139 -1.2502
 7679TIP3   OH244527   4.995   0.535   5.596  0.0181 -0.5705  0.3187
 7679TIP3    H144528   5.050   0.468   5.558 -0.7300 -0.4471 -1.0300
 7679TIP3    H244529   5.029   0.547   5.685  1.9957 -0.6622 -0.3826
 7680TIP3   OH244530   5.036   4.798  16.688 -0.0049  0.1640  0.2611
 7680TIP3    H144531   4.954   4.756  16.715  0.1913 -1.0432 -0.8762
 7680TIP3    H244532   5.073   4.737  16.623  1.5368  0.9354  0.3807
 7681TIP3   OH244533   3.161   4.654   2.148 -0.7026  0.0224 -0.1398
 7681TIP3    H144534   3.237   4.597   2.156 -1.0302 -0.7561 -2.0429
 7681TIP3    H244535   3.100   4.624   2.215 -0.7275 -1.6860 -0.8885
 7682TIP3   OH244536   6.507   6.816  12.207  0.2318 -0.0593 -0.3421
 7682TIP3    H144537   6.579   6.879  12.204 -0.0496  0.2861  0.0139
 7682TIP3    H244538   6.543   6.741  12.255  0.3645  0.0987 -0.1929
 7683TIP3   OH244539   6.394   1.075  13.637  0.3916  0.1877 -0.5708
 7683TIP3    H144540   6.342   1.142  13.682  0.1376  0.1803 -0.8450
 7683TIP3    H244541   6.359   0.992  13.669 -0.6541  0.1588 -1.7023
 7684TIP3   OH244542   1.978   3.243  15.270 -0.1591  0.4176 -0.5332
 7684TIP3    H144543   2.043   3.257  15.201  0.2741 -1.3075 -0.5268
 7684TIP3    H244544   1.949   3.152  15.257 -2.4334  1.0563 -0.4089
 7685TIP3   OH244545   6.060   2.411   6.335 -0.1111 -0.4960 -0.0906
 7685TIP3    H144546   6.067   2.349   6.263 -0.5425  0.5406 -1.0658
 7685TIP3    H244547   6.148   2.450   6.341  1.0070 -3.0561  2.3491
 7686TIP3   OH244548   5.627   5.148  16.517 -0.1959  0.2784  0.1654
 7686TIP3    H144549   5.541   5.157  16.475  0.2301 -3.2961 -1.8358
 7686TIP3    H244550   5.614   5.083  16.585  0.7224  0.4695  0.5422
 7687TIP3   OH244551   3.401   6.653   1.681  0.7531 -0.2317 -0.0223
 7687TIP3    H144552   3.445   6.628   1.762 -0.6219  0.3687  0.9505
 7687TIP3    H244553   3.365   6.740   1.699 -0.3563 -0.4717 -0.9492
 7688TIP3   OH244554   5.459   3.903   3.493 -0.1884 -0.2403 -0.5751
 7688TIP3    H144555   5.372   3.935   3.468 -0.8615 -3.4162 -2.7482
 7688TIP3    H244556   5.514   3.921   3.417  0.5138 -0.3176 -0.0931
 7689TIP3   OH244557   3.428   2.644   2.057  0.5590  0.9138  1.0776
 7689TIP3    H144558   3.437   2.571   2.119 -0.6464 -0.1104  0.0979
 7689TIP3    H244559   3.345   2.686   2.083 -0.7346 -0.4185 -0.6830
 7690TIP3   OH244560   6.739   4.446   4.185 -0.0903 -0.1489 -0.4810
 7690TIP3    H144561   6.754   4.428   4.092  0.4785 -0.9874 -0.2441
 7690TIP3    H244562   6.825   4.431   4.226 -0.2218  0.6741  0.1128
 7691TIP3   OH244563   4.538   5.775   1.623 -0.0739 -0.1543 -0.2184
 7691TIP3    H144564   4.532   5.718   1.699  0.0108 -0.6170 -0.5582
 7691TIP3    H244565   4.628   5.807   1.624 -1.3443  4.5034  3.2164
 7692TIP3   OH244566   2.146   1.217   5.429 -0.1297 -0.2693  0.3621
 7692TIP3    H144567   2.121   1.138   5.380  0.7036 -0.8057  0.7697
 7692TIP3    H244568   2.208   1.185   5.495 -2.0037  0.2590  2.4573
 7693TIP3   OH244569   0.177   1.287   3.462  0.7346  0.0698 -0.0551
 7693TIP3    H144570   0.103   1.340   3.493 -0.2850 -0.9725 -0.6470
 7693TIP3    H244571   0.205   1.331   3.382  0.7874  0.4887  0.1874
 7694TIP3   OH244572   5.210   6.411  15.760  0.0186  0.2709  0.0718
 7694TIP3    H144573   5.126   6.424  15.805 -0.4576  1.1005 -1.0294
 7694TIP3    H244574   5.272   6.466  15.807 -0.3370  0.6437  0.1042
 7695TIP3   OH244575   6.432   1.007  13.364  0.7325 -0.1316 -0.2046
 7695TIP3    H144576   6.368   0.958  13.313  0.8243  0.7809 -1.2359
 7695TIP3    H244577   6.387   1.030  13.445 -0.5614  1.2620 -1.2811
 7696TIP3   OH244578   2.050   6.676   2.371 -0.1509 -0.5110  0.8322
 7696TIP3    H144579   2.120   6.641   2.316 -0.6244 -0.1363 -0.0422
 7696TIP3    H244580   2.091   6.691   2.456  1.0310  0.3622  0.1477
 7697TIP3   OH244581   5.898   5.661  17.113 -0.3250  0.5588 -1.2408
 7697TIP3    H144582   5.821   5.611  17.086  0.2647 -1.1836  0.1184
 7697TIP3    H244583   5.908   5.642  17.206  1.6125  0.9449 -1.3233
 7698TIP3   OH244584   1.558   2.404   3.955 -0.3225  0.1229  0.3038
 7698TIP3    H144585   1.574   2.410   3.861  2.6151  0.1067  0.7161
 7698TIP3    H244586   1.538   2.495   3.981  1.4760  0.6210  0.0371
 7699TIP3   OH244587   2.916   4.934   3.385  0.3785 -0.5033  0.0219
 7699TIP3    H144588   2.944   4.845   3.404 -0.3580 -0.6501  0.4816
 7699TIP3    H244589   2.879   4.966   3.467 -0.2075 -0.1119 -0.3810
 7700TIP3   OH244590   0.830   5.677   6.313  0.1748  0.0775 -0.5760
 7700TIP3    H144591   0.798   5.630   6.235  0.8895 -0.4297 -0.5699
 7700TIP3    H244592   0.838   5.610   6.380  1.2593  0.1843 -0.5808
 7701TIP3   OH244593   2.503   2.936  12.974  0.2499 -0.1604  0.4976
 7701TIP3    H144594   2.467   3.001  12.913  0.7655 -1.9586 -1.8962
 7701TIP3    H244595   2.504   2.980  13.059 -0.6181  2.4757 -0.7518
 7702TIP3   OH244596   6.014   3.698  11.376 -0.3692  0.1610 -0.4760
 7702TIP3    H144597   5.927   3.729  11.351 -0.2320  0.0207 -1.1586
 7702TIP3    H244598   6.008   3.682  11.470 -0.9543  0.5592 -0.4428
 7703TIP3   OH244599   1.300   2.038   6.372 -0.0684  0.0283 -0.2033
 7703TIP3    H144600   1.307   1.977   6.446  0.5952 -1.0371 -1.1108
 7703TIP3    H244601   1.217   2.084   6.387  0.3038  0.2398  1.4791
 7704TIP3   OH244602   1.240   0.166   6.713 -0.4041  0.0198 -0.3964
 7704TIP3    H144603   1.252   0.195   6.623 -1.2315  0.7569 -0.2947
 7704TIP3    H244604   1.220   0.073   6.707 -1.5564  0.2880 -1.0848
 7705TIP3   OH244605   1.529   1.642  15.938  0.2168  0.3207  0.1667
 7705TIP3    H144606   1.518   1.736  15.924 -0.8164  0.3408  1.0293
 7705TIP3    H244607   1.452   1.616  15.989 -0.3150 -1.2740 -1.3441
 7706TIP3   OH244608   5.610   6.790   4.240 -0.2560 -0.2105 -0.0159
 7706TIP3    H144609   5.580   6.701   4.258  0.6776 -0.9742 -1.8964
 7706TIP3    H244610   5.679   6.806   4.304 -1.0901 -0.4347  0.9688
 7707TIP3   OH244611   1.252   0.187   0.526  0.2761  0.1282 -0.0555
 7707TIP3    H144612   1.238   0.241   0.604 -0.3235 -1.2639  0.8556
 7707TIP3    H244613   1.325   0.129   0.549  1.0592  0.6736 -1.0932
 7708TIP3   OH244614   1.767   1.394  11.171  0.3631  0.1461  0.0643
 7708TIP3    H144615   1.748   1.306  11.138  1.4087 -0.1749  0.2932
 7708TIP3    H244616   1.681   1.436  11.178 -0.4468 -1.6380  2.1390
 7709TIP3   OH244617   3.137   2.625   2.117 -0.0697 -0.2783  0.7165
 7709TIP3    H144618   3.162   2.618   2.209  0.3946  0.7059  0.6779
 7709TIP3    H244619   3.042   2.638   2.118  0.0444  0.5627  1.1070
 7710TIP3   OH244620   5.812   5.195   2.812 -0.1166 -0.6716  0.1386
 7710TIP3    H144621   5.734   5.186   2.757  1.6369 -0.1993 -2.5986
 7710TIP3    H244622   5.881   5.223   2.752  1.6020  1.5635  2.9122
 7711TIP3   OH244623   4.235   3.470   3.824 -0.0602  0.1849  0.1577
 7711TIP3    H144624   4.234   3.515   3.739  0.3697  0.5341  0.3304
 7711TIP3    H244625   4.323   3.487   3.859 -0.2808  0.1714  0.7369
 7712TIP3   OH244626   5.697   1.678  15.153  0.4596 -1.0782  0.5253
 7712TIP3    H144627   5.698   1.664  15.058 -0.8594  0.9266  0.1416
 7712TIP3    H244628   5.750   1.757  15.166 -0.2641 -0.6981  1.2833
 7713TIP3   OH244629   2.460   4.347   0.496 -1.2784 -0.1754 -0.2089
 7713TIP3    H144630   2.367   4.330   0.511 -1.2548  1.2898  2.1203
 7713TIP3    H244631   2.505   4.273   0.538 -1.3580 -1.2509 -1.9467
 7714TIP3   OH244632   3.335   2.673  15.998 -0.4040 -0.2540 -0.3106
 7714TIP3    H144633   3.320   2.605  15.932 -0.0438  0.0144 -0.6744
 7714TIP3    H244634   3.300   2.636  16.079 -0.2485 -0.8584 -0.5135
 7715TIP3   OH244635   3.932   4.773   1.723 -0.3724  0.3017  0.1038
 7715TIP3    H144636   3.973   4.773   1.809  2.0426  1.7120 -0.9472
 7715TIP3    H244637   3.947   4.862   1.689 -0.1246 -0.5571 -2.2419
 7716TIP3   OH244638   5.184   5.838  13.478  0.2869 -0.2782  0.3236
 7716TIP3    H144639   5.187   5.830  13.382 -2.4878  2.1414 -0.0776
 7716TIP3    H244640   5.211   5.928  13.495  2.3581 -1.1493  2.0431
 7717TIP3   OH244641   5.521   5.898  14.753 -0.6014 -0.3635 -0.3782
 7717TIP3    H144642   5.446   5.907  14.812 -0.0973  2.3062 -0.0130
 7717TIP3    H244643   5.491   5.840  14.684 -3.1604  0.9222 -0.4410
 7718TIP3   OH244644   6.792   6.482  11.050  0.3659 -0.2183 -0.0843
 7718TIP3    H144645   6.880   6.460  11.020 -0.3791 -2.6847 -0.6496
 7718TIP3    H244646   6.735   6.454  10.979 -0.9677  0.4158  0.7087
 7719TIP3   OH244647   6.577   1.153  15.888  0.4415 -0.4469  0.2820
 7719TIP3    H144648   6.485   1.144  15.914  1.1326  0.0903  3.1981
 7719TIP3    H244649   6.609   1.063  15.882  0.5459 -0.6451  2.7768
 7720TIP3   OH244650   6.337   2.796   5.844  0.2376 -0.0626  0.1363
 7720TIP3    H144651   6.340   2.887   5.813 -1.7223 -0.0955 -0.2998
 7720TIP3    H244652   6.273   2.798   5.916  0.7261 -0.9636  0.6039
 7721TIP3   OH244653   2.406   2.844   3.102  0.4341 -0.1375 -0.1072
 7721TIP3    H144654   2.335   2.898   3.068  0.5547  0.9462  1.2505
 7721TIP3    H244655   2.397   2.850   3.197  1.0592 -1.7365  0.0812
 7722TIP3   OH244656   2.936   2.181  12.524  0.3099 -0.3488  0.0856
 7722TIP3    H144657   2.856   2.234  12.533  0.6054  0.1713 -0.2353
 7722TIP3    H244658   2.905   2.095  12.497 -0.0634  0.3386 -1.8354
 7723TIP3   OH244659   4.577   0.116  12.317 -0.1314  0.6144  0.5791
 7723TIP3    H144660   4.601   0.169  12.392  0.3976 -0.0255  0.8640
 7723TIP3    H244661   4.502   0.064  12.347 -0.2571  0.7430  0.4926
 7724TIP3   OH244662   1.734   2.672   3.134 -0.1796  0.0673 -0.0061
 7724TIP3    H144663   1.657   2.724   3.114  0.2592  0.3857 -0.9646
 7724TIP3    H244664   1.771   2.650   3.048  0.2416 -0.9136  0.4106
 7725TIP3   OH244665   5.766   3.766  13.262 -0.1079 -0.2058 -0.4050
 7725TIP3    H144666   5.803   3.788  13.177  1.8239 -1.1587  0.1455
 7725TIP3    H244667   5.839   3.774  13.323 -0.9493 -1.5431  0.8398
 7726TIP3   OH244668   4.095   0.901   2.002 -0.4549 -0.5406  0.0355
 7726TIP3    H144669   4.161   0.901   1.933  1.7312 -0.1076  1.9622
 7726TIP3    H244670   4.096   0.990   2.037 -2.4172 -0.4038 -0.1361
 7727TIP3   OH244671   1.323   0.608  16.202  0.4761 -0.0785 -0.2208
 7727TIP3    H144672   1.347   0.572  16.288 -0.1948 -1.2225 -0.4960
 7727TIP3    H244673   1.256   0.549  16.169  0.3695  0.6344 -1.3317
 7728TIP3   OH244674   0.628   6.568  14.871  0.3526  0.0045  0.0008
 7728TIP3    H144675   0.605   6.661  14.872 -1.0789 -0.3157  1.1078
 7728TIP3    H244676   0.628   6.544  14.779 -1.0085  0.7298 -0.2156
 7729TIP3   OH244677   0.042   2.442   2.030  0.4138  0.0889 -0.4059
 7729TIP3    H144678   0.038   2.509   1.962 -0.4570  0.3423 -0.1187
 7729TIP3    H244679   0.132   2.446   2.063  0.7675  0.1418 -1.3555
 7730TIP3   OH244680   4.026   3.086  14.515  0.9245 -0.2110  0.2980
 7730TIP3    H144681   4.058   3.027  14.583 -0.0694  0.7998  1.6866
 7730TIP3    H244682   4.096   3.085  14.449  1.1530 -2.5309  0.4806
 7731TIP3   OH244683   5.881   3.603  12.868  0.1979  0.4132 -0.2353
 7731TIP3    H144684   5.840   3.574  12.949 -1.5959  0.2088 -1.1745
 7731TIP3    H244685   5.859   3.696  12.863 -2.4238 -0.1859 -1.9403
 7732TIP3   OH244686   0.156   3.441   2.890 -0.0850  0.2461 -0.7421
 7732TIP3    H144687   0.211   3.367   2.865  1.0383  1.8134 -3.3085
 7732TIP3    H244688   0.216   3.501   2.935 -0.1557  1.0151 -1.6366
 7733TIP3   OH244689   0.717   2.317  16.168 -0.3771  0.0685 -0.3842
 7733TIP3    H144690   0.799   2.295  16.214  0.6868  1.3906 -1.5667
 7733TIP3    H244691   0.687   2.233  16.133 -0.7235 -0.8177  1.8635
 7734TIP3   OH244692   2.350   6.474   3.408 -0.3713 -0.0207 -0.1793
 7734TIP3    H144693   2.439   6.505   3.387  0.7838 -0.4459  3.4361
 7734TIP3    H244694   2.293   6.525   3.350  2.1799 -0.2040 -3.1322
 7735TIP3   OH244695   1.762   4.612   3.259 -0.3285  0.2468 -0.3702
 7735TIP3    H144696   1.812   4.545   3.306 -1.1755  1.7160  2.8823
 7735TIP3    H244697   1.676   4.572   3.245  0.3648 -0.7329 -2.1449
 7736TIP3   OH244698   5.600   3.782  13.698 -0.1785 -0.5974  0.3022
 7736TIP3    H144699   5.595   3.699  13.747 -1.5405 -0.0137  1.2355
 7736TIP3    H244700   5.555   3.763  13.615  3.6434 -2.0965 -1.6509
 7737TIP3   OH244701   5.330   3.572   2.372 -0.0791 -0.6537 -0.7007
 7737TIP3    H144702   5.406   3.567   2.431 -0.1271 -0.4940 -0.6257
 7737TIP3    H244703   5.260   3.607   2.427 -0.2054 -0.7976 -0.7717
 7738TIP3   OH244704   2.078   1.206   5.797  0.3438 -0.3017  0.3595
 7738TIP3    H144705   2.150   1.227   5.737 -0.4609 -0.2386 -0.6144
 7738TIP3    H244706   2.055   1.290   5.837  0.1230 -0.1286 -0.1225
 7739TIP3   OH244707   0.048   4.586  16.124 -0.4159 -0.3975  0.7108
 7739TIP3    H144708   0.060   4.535  16.044  0.0856  1.3694 -0.3990
 7739TIP3    H244709  -0.008   4.659  16.097  0.3037  0.5930  1.8059
 7740TIP3   OH244710   0.702   3.813   0.716  0.1439  0.8014  0.2832
 7740TIP3    H144711   0.651   3.893   0.708 -0.9209  0.0374 -0.8077
 7740TIP3    H244712   0.739   3.799   0.629 -0.0442 -0.1346  0.3474
 7741TIP3   OH244713   1.830   0.941  14.677 -0.2429 -0.2081  0.5364
 7741TIP3    H144714   1.768   1.014  14.682 -1.4333 -1.1993  0.4876
 7741TIP3    H244715   1.837   0.909  14.767 -1.9914 -1.8486  0.1536
 7742TIP3   OH244716   6.156   5.894   1.183  0.4956  0.3368 -0.6916
 7742TIP3    H144717   6.070   5.900   1.225  1.8875 -0.8408  2.6924
 7742TIP3    H244718   6.201   5.974   1.209  2.0597 -1.2638  2.0668
 7743TIP3   OH244719   1.907   4.345  13.798  0.0535 -0.2734  0.6069
 7743TIP3    H144720   1.982   4.358  13.740  0.1925 -0.7665  0.6733
 7743TIP3    H244721   1.945   4.342  13.886  0.0197 -0.9793  0.6078
 7744TIP3   OH244722   6.058   3.030  12.264  0.2531  0.0694 -0.2286
 7744TIP3    H144723   6.017   2.967  12.204  0.2110  1.9958 -2.3643
 7744TIP3    H244724   5.985   3.071  12.310  0.2477 -0.9992  0.7547
 7745TIP3   OH244725   5.971   2.251  11.518  0.2102 -0.4847  0.1108
 7745TIP3    H144726   5.922   2.205  11.586 -0.0712 -2.0989 -1.1110
 7745TIP3    H244727   5.913   2.249  11.442  1.6483 -1.3561 -1.0168
 7746TIP3   OH244728   6.736   5.811  11.654  0.2717  0.4220 -0.0051
 7746TIP3    H144729   6.797   5.786  11.584  1.6063  3.9442 -0.3075
 7746TIP3    H244730   6.649   5.792  11.618  1.0382 -2.4550 -0.5484
 7747TIP3   OH244731   1.727   3.362  16.454  0.4284 -0.1722 -0.5121
 7747TIP3    H144732   1.654   3.303  16.471  1.1822 -1.1821 -0.6492
 7747TIP3    H244733   1.688   3.449  16.451 -0.5443 -0.5244  0.8571
 7748TIP3   OH244734   3.843   4.110  12.744  0.0434  0.4721  0.2200
 7748TIP3    H144735   3.838   4.182  12.807 -2.2855 -0.7845  1.6182
 7748TIP3    H244736   3.753   4.078  12.738  0.4653 -0.4210 -2.6773
 7749TIP3   OH244737   1.389   6.033   0.337 -0.1477  0.0805 -0.1092
 7749TIP3    H144738   1.465   5.976   0.320 -1.0242 -0.8524 -1.0946
 7749TIP3    H244739   1.398   6.058   0.428  1.7641  0.6190 -0.3964
 7750TIP3   OH244740   3.843   0.119   4.805  0.1143 -0.2261 -0.3879
 7750TIP3    H144741   3.820   0.057   4.736 -1.3220  1.0924 -1.1385
 7750TIP3    H244742   3.829   0.205   4.766  1.4708  0.5963  0.8301
 7751TIP3   OH244743   0.260   2.427  14.868  0.2504 -0.2567  0.2309
 7751TIP3    H144744   0.338   2.414  14.815  0.9367  0.5914  1.0080
 7751TIP3    H244745   0.280   2.503  14.923 -1.4683  0.5990 -0.2254
 7752TIP3   OH244746   4.942   2.857   3.594 -0.0402 -0.3473  0.0418
 7752TIP3    H144747   4.967   2.931   3.648 -0.6345  0.7282 -1.1061
 7752TIP3    H244748   4.995   2.865   3.515 -0.7556 -0.6025 -0.4828
 7753TIP3   OH244749   1.328   3.538  13.395  0.3088 -0.2554  0.0054
 7753TIP3    H144750   1.262   3.602  13.369  0.3445  0.3429  1.3353
 7753TIP3    H244751   1.311   3.462  13.339  0.4816  1.0177 -1.8476
 7754TIP3   OH244752   5.461   0.067   3.358  0.5677 -0.0982 -0.2205
 7754TIP3    H144753   5.420   0.141   3.403  1.1269 -0.0256  0.1860
 7754TIP3    H244754   5.423   0.067   3.271  1.2840  1.2812 -0.5539
 7755TIP3   OH244755   1.494   5.791  14.463 -0.2518 -0.2167 -0.1146
 7755TIP3    H144756   1.441   5.726  14.416 -0.8145  0.5309 -0.5393
 7755TIP3    H244757   1.547   5.832  14.395 -0.3975  0.2450  0.0516
 7756TIP3   OH244758   6.207   1.705  16.252  0.4959 -0.3728 -0.0827
 7756TIP3    H144759   6.266   1.640  16.289  0.2048 -2.3150 -2.7786
 7756TIP3    H244760   6.264   1.761  16.198  0.5918  1.1050  1.4608
 7757TIP3   OH244761   2.740   0.421   3.511  0.3193 -0.7148 -0.1239
 7757TIP3    H144762   2.684   0.372   3.452 -1.4799 -1.7895  2.2904
 7757TIP3    H244763   2.691   0.501   3.530  0.8011 -0.4504  0.0350
 7758TIP3   OH244764   0.618   3.782   6.097 -0.0770 -0.8551 -0.4634
 7758TIP3    H144765   0.575   3.703   6.130 -0.4041 -0.7303 -0.5824
 7758TIP3    H244766   0.628   3.839   6.173 -0.0833 -0.9046 -0.4263
 7759TIP3   OH244767   1.888   5.098   4.706  0.1298  0.1246 -0.3858
 7759TIP3    H144768   1.920   5.147   4.781 -1.3449  0.7344 -0.1224
 7759TIP3    H244769   1.808   5.143   4.680 -0.9291 -1.7427 -0.5424
 7760TIP3   OH244770   5.803   3.112  12.358 -0.4918 -0.4416  0.1448
 7760TIP3    H144771   5.727   3.084  12.410  0.6872 -2.9202  0.6771
 7760TIP3    H244772   5.776   3.098  12.267 -1.1436  0.0613  0.2491
 7761TIP3   OH244773   3.279   2.326   4.756  0.1963 -0.1025 -0.1730
 7761TIP3    H144774   3.251   2.416   4.743 -1.2280 -0.5405 -0.2742
 7761TIP3    H244775   3.350   2.332   4.820  0.4821  1.1196 -0.5766
 7762TIP3   OH244776   4.506   5.828  12.973  0.5714  0.3701  0.0032
 7762TIP3    H144777   4.576   5.782  12.927 -0.2750  0.6215 -1.5863
 7762TIP3    H244778   4.461   5.878  12.905 -0.3727  1.2008  1.2074
 7763TIP3   OH244779   3.882   0.348  16.574  0.0187  0.5467 -0.6279
 7763TIP3    H144780   3.904   0.424  16.628  1.6133  0.5853 -1.2913
 7763TIP3    H244781   3.966   0.308  16.552 -0.7324 -0.8643 -1.1068
 7764TIP3   OH244782   2.836   1.251  16.800 -0.1907  0.4847  0.0526
 7764TIP3    H144783   2.836   1.320  16.866  1.4426 -0.6235  1.2806
 7764TIP3    H244784   2.855   1.297  16.718 -0.7912  1.6931  0.5662
 7765TIP3   OH244785   5.819   4.085  12.937  0.5588  0.0881  0.0149
 7765TIP3    H144786   5.749   4.150  12.951  0.9262  0.2811  1.0480
 7765TIP3    H244787   5.860   4.112  12.855 -0.8778 -0.3117 -0.8723
 7766TIP3   OH244788   5.445   0.161   0.619  0.5336 -0.5127  0.6894
 7766TIP3    H144789   5.514   0.221   0.647 -0.1443  0.6645 -0.0650
 7766TIP3    H244790   5.490   0.093   0.570  1.0494  1.0704 -1.1387
 7767TIP3   OH244791   6.728   6.749  12.647 -0.0529  0.1091 -0.3515
 7767TIP3    H144792   6.683   6.816  12.595  1.6904  0.9568 -0.8399
 7767TIP3    H244793   6.741   6.790  12.732 -1.9634 -0.8978  0.4995
 7768TIP3   OH244794   2.482   6.677   4.468 -0.0006  0.0561  0.7276
 7768TIP3    H144795   2.539   6.608   4.434  0.4611 -0.8455  3.1249
 7768TIP3    H244796   2.540   6.752   4.480 -0.0405  0.1864  0.1384
 7769TIP3   OH244797   6.722   3.118   2.288 -0.5179  0.4715  0.1632
 7769TIP3    H144798   6.808   3.085   2.315 -0.3564 -0.1924 -1.0925
 7769TIP3    H244799   6.664   3.097   2.360  0.4839  1.4813  1.3128
 7770TIP3   OH244800   6.715   0.152  13.698  0.2068 -0.2990  0.5367
 7770TIP3    H144801   6.792   0.131  13.645  0.8228 -1.7962  1.9463
 7770TIP3    H244802   6.750   0.178  13.783 -0.8087  0.7934  0.6472
 7771TIP3   OH244803   6.048   1.669  15.389  0.1604 -0.4714  0.3235
 7771TIP3    H144804   6.126   1.622  15.359 -0.3859 -2.0241  1.2079
 7771TIP3    H244805   6.065   1.687  15.481 -0.2582 -0.2462  0.3593
 7772TIP3   OH244806   3.410   3.461   4.624 -0.2211 -0.1235  0.1410
 7772TIP3    H144807   3.489   3.504   4.592  0.3595 -1.6124 -0.5226
 7772TIP3    H244808   3.339   3.499   4.572  0.0889  0.9733  0.4995
 7773TIP3   OH244809   6.059   4.105  12.750  0.5184 -0.2604 -0.1887
 7773TIP3    H144810   6.073   4.017  12.784 -0.5074 -0.2692  0.2458
 7773TIP3    H244811   6.115   4.161  12.804 -0.6561 -0.3493  1.1602
 7774TIP3   OH244812   0.143   1.876  15.848  0.0615 -0.1592 -0.8967
 7774TIP3    H144813   0.229   1.915  15.831 -0.7170  1.1819 -1.8374
 7774TIP3    H244814   0.156   1.827  15.930  1.5612  0.4986 -0.7004
 7775TIP3   OH244815   6.699   2.092  11.085  0.7740  0.5875 -0.0597
 7775TIP3    H144816   6.648   2.158  11.038  1.1690  1.3864  0.5927
 7775TIP3    H244817   6.722   2.027  11.019 -0.5433  0.5347 -0.4976
 7776TIP3   OH244818   5.881   4.738   2.911  0.1323  0.5164 -0.0275
 7776TIP3    H144819   5.908   4.823   2.945  2.7642  0.2165 -1.1559
 7776TIP3    H244820   5.905   4.740   2.819 -1.9913 -0.6191 -0.6712
 7777TIP3   OH244821   0.752   2.855  12.621 -0.0289  0.1908 -0.0593
 7777TIP3    H144822   0.729   2.764  12.602  1.7783 -0.3587  0.1992
 7777TIP3    H244823   0.748   2.899  12.535  0.1916 -0.3904 -0.3723
 7778TIP3   OH244824   2.447   4.777  12.248 -0.3590  0.1682 -0.2134
 7778TIP3    H144825   2.437   4.871  12.234 -1.0973  0.2624  0.7996
 7778TIP3    H244826   2.541   4.765  12.263 -0.2091  0.6811 -0.7094
 7779TIP3   OH244827   1.636   3.124   2.824  0.6927 -0.3911 -0.2419
 7779TIP3    H144828   1.711   3.139   2.881  1.6199  0.4860 -1.6316
 7779TIP3    H244829   1.571   3.083   2.880  1.6949  0.1065  1.3419
 7780TIP3   OH244830   5.441   5.841   4.031 -0.2540  0.2934  0.0518
 7780TIP3    H144831   5.422   5.756   3.992  1.0154  0.3179 -0.6922
 7780TIP3    H244832   5.481   5.820   4.116  2.7289 -0.0117 -1.3255
 7781TIP3   OH244833   3.687   3.451  13.323  0.2337  0.1400 -0.6492
 7781TIP3    H144834   3.707   3.541  13.297 -0.9768  0.9749  1.1303
 7781TIP3    H244835   3.646   3.459  13.409 -1.3790 -1.9941 -1.1277
 7782TIP3   OH244836   6.813   5.923   5.018  0.0538  0.2374  0.0424
 7782TIP3    H144837   6.829   5.877   4.935  1.3367 -0.0610  0.4324
 7782TIP3    H244838   6.846   6.012   5.002  0.3482  0.1654  0.2375
 7783TIP3   OH244839   4.119   0.005   2.726 -0.2907 -0.0045  0.7833
 7783TIP3    H144840   4.177  -0.018   2.799 -0.0641 -2.1126  0.0215
 7783TIP3    H244841   4.143   0.095   2.704  2.4176 -0.6163  0.8036
 7784TIP3   OH244842   2.507   4.924  10.503  1.2128 -0.0291  0.5285
 7784TIP3    H144843   2.461   5.001  10.469  2.0651  0.6103  0.7806
 7784TIP3    H244844   2.534   4.949  10.591 -2.4810 -2.2891  2.5307
 7785TIP3   OH244845   1.484   4.797   4.861 -0.1154  0.1760  0.3031
 7785TIP3    H144846   1.480   4.888   4.831 -1.1206  0.3591  0.9169
 7785TIP3    H244847   1.393   4.777   4.885 -0.1772 -1.4333 -1.0885
 7786TIP3   OH244848   0.511   5.851   1.002  0.1900  0.9718 -0.2852
 7786TIP3    H144849   0.421   5.883   0.993 -0.0121  0.9247  1.2439
 7786TIP3    H244850   0.501   5.761   1.034  0.7708  1.1298  0.3710
 7787TIP3   OH244851   3.013   4.244  12.220 -0.2514  0.2771 -0.0924
 7787TIP3    H144852   3.066   4.205  12.289 -1.9921  0.8924  1.6845
 7787TIP3    H244853   3.053   4.330  12.206 -0.8062  0.7886  1.3150
 7788TIP3   OH244854   0.842   2.232   2.356  0.0622  0.2160 -0.5794
 7788TIP3    H144855   0.759   2.236   2.307 -0.3916 -1.0127  0.0430
 7788TIP3    H244856   0.897   2.297   2.314 -1.6349  1.9863 -0.2008
 7789TIP3   OH244857   1.510   3.959   3.556 -0.4142 -0.3347  0.2236
 7789TIP3    H144858   1.571   3.997   3.619  0.0195  0.7104 -0.7695
 7789TIP3    H244859   1.425   3.960   3.600 -0.2718  1.1394  0.5272
 7790TIP3   OH244860   3.083   6.699  15.586  0.3959 -0.1338 -0.0727
 7790TIP3    H144861   3.114   6.728  15.672 -0.3078 -1.1239  0.5349
 7790TIP3    H244862   3.063   6.606  15.597 -1.5024  0.1274 -0.7688
 7791TIP3   OH244863   6.000   2.796   5.444 -0.4703 -0.3419 -0.1968
 7791TIP3    H144864   5.980   2.789   5.538 -2.8208 -0.6688 -0.6404
 7791TIP3    H244865   5.951   2.873   5.415  0.3252 -0.1786 -1.1518
 7792TIP3   OH244866   3.360   0.480  17.163 -0.2110 -0.3993 -0.1278
 7792TIP3    H144867   3.358   0.406  17.103  0.0168 -1.0973  0.7110
 7792TIP3    H244868   3.282   0.469  17.218 -0.2090  0.0219 -0.0344
 7793TIP3   OH244869   5.876   3.342  16.953  0.2335  0.4798 -0.5010
 7793TIP3    H144870   5.804   3.392  16.915 -0.9797 -0.2059  0.7438
 7793TIP3    H244871   5.884   3.265  16.897 -0.6973  0.0827 -0.1182
 7794TIP3   OH244872   6.286   5.542  12.739 -0.3563 -0.7681  1.1655
 7794TIP3    H144873   6.200   5.510  12.767 -1.1461 -0.9777 -1.2422
 7794TIP3    H244874   6.266   5.609  12.674  1.2731 -1.5652 -0.2189
 7795TIP3   OH244875   4.692   6.398   1.891 -0.5851  0.0309 -0.2907
 7795TIP3    H144876   4.642   6.319   1.910 -1.9582  1.2872  1.7115
 7795TIP3    H244877   4.639   6.469   1.926  1.0541  1.7792 -1.1563
 7796TIP3   OH244878   4.899   2.566   5.485 -0.0286 -0.3527  0.0910
 7796TIP3    H144879   4.932   2.656   5.479 -0.0666 -0.1528  2.1360
 7796TIP3    H244880   4.819   2.567   5.432  0.4057  0.5823 -0.5882
 7797TIP3   OH244881   5.212   1.172  17.110 -0.0289  0.1823  0.4645
 7797TIP3    H144882   5.143   1.153  17.174  0.8700  0.8819  1.6820
 7797TIP3    H244883   5.291   1.133  17.147  0.0882 -1.5367 -1.4134
 7798TIP3   OH244884   1.941   2.542   3.838 -0.4555 -0.2200 -0.3789
 7798TIP3    H144885   1.949   2.632   3.869  2.1526 -0.5628  0.1222
 7798TIP3    H244886   1.941   2.489   3.917  0.1337 -0.7761 -0.7422
 7799TIP3   OH244887   2.329   5.708  16.642 -0.1310 -0.8318 -0.0829
 7799TIP3    H144888   2.282   5.639  16.689  0.7529 -0.7745  0.9300
 7799TIP3    H244889   2.397   5.737  16.703  0.0197  0.3915 -0.7928
 7800TIP3   OH244890   3.912   6.183  13.933 -0.2353  0.1065  0.3777
 7800TIP3    H144891   3.907   6.252  13.867  0.8047  0.3683  0.5597
 7800TIP3    H244892   3.887   6.103  13.886 -1.8065  0.6349  0.2510
 7801TIP3   OH244893   6.435   0.087   0.198 -0.0786  0.2504 -0.7416
 7801TIP3    H144894   6.428   0.174   0.239  1.9339  0.3390 -0.4808
 7801TIP3    H244895   6.525   0.083   0.166 -0.0137 -1.8916 -0.4236
 7802TIP3   OH244896   4.165   0.019   1.886  0.5310  0.6226 -0.1644
 7802TIP3    H144897   4.173  -0.027   1.969 -1.1127 -0.3597 -0.5091
 7802TIP3    H244898   4.187  -0.046   1.819  0.5854  1.0240 -0.5442
 7803TIP3   OH244899   5.656   6.101  11.141  0.0816 -0.6881  0.3026
 7803TIP3    H144900   5.721   6.031  11.137 -1.9499 -2.6032 -1.6177
 7803TIP3    H244901   5.574   6.057  11.163 -1.3113  1.0473 -1.1489
 7804TIP3   OH244902   0.163   3.486  17.121  0.1019 -0.5490 -0.3651
 7804TIP3    H144903   0.097   3.466  17.054 -0.5070  0.2903 -0.0417
 7804TIP3    H244904   0.111   3.514  17.197  0.8198 -0.1885  0.0021
 7805TIP3   OH244905   6.336   5.055  12.746 -0.3489 -0.0910 -0.2263
 7805TIP3    H144906   6.343   5.123  12.813  0.1737  0.9178 -1.2570
 7805TIP3    H244907   6.258   5.005  12.770 -2.3313  2.5081 -0.8352
 7806TIP3   OH244908   3.920   4.515   2.549 -0.5286 -0.6190  0.6815
 7806TIP3    H144909   3.985   4.478   2.490 -0.7149  0.7528 -0.4309
 7806TIP3    H244910   3.967   4.581   2.599 -1.1045  0.7156 -0.4570
 7807TIP3   OH244911   5.899   0.597   3.793  0.1691 -0.2993  0.3360
 7807TIP3    H144912   5.817   0.557   3.762 -0.7115  1.2610  0.5274
 7807TIP3    H244913   5.967   0.559   3.737 -0.5251 -2.3451  0.7815
 7808TIP3   OH244914   4.414   4.491  12.380 -0.3273  0.2010 -0.0345
 7808TIP3    H144915   4.333   4.443  12.364 -1.2037  0.2658  3.4140
 7808TIP3    H244916   4.387   4.583  12.380  0.2552  0.3862 -1.2169
 7809TIP3   OH244917   5.448   1.806   4.470 -0.1431 -0.3414 -0.1411
 7809TIP3    H144918   5.539   1.791   4.493 -0.0301  1.3918  0.6947
 7809TIP3    H244919   5.452   1.872   4.400 -0.7778  0.7149  0.7949
 7810TIP3   OH244920   0.189   6.128  13.410  0.4968  0.5605  0.8175
 7810TIP3    H144921   0.157   6.039  13.395  0.8470  0.4381  0.7719
 7810TIP3    H244922   0.206   6.133  13.504  2.6452 -0.1883  0.5347
 7811TIP3   OH244923   0.361   0.838   1.811  0.2187 -0.3985  0.1354
 7811TIP3    H144924   0.344   0.745   1.797 -0.1130 -0.1965 -0.8487
 7811TIP3    H244925   0.425   0.840   1.882 -0.1869 -1.3535  0.5475
 7812TIP3   OH244926   3.527   5.697  11.892 -0.4331 -0.3533  0.4455
 7812TIP3    H144927   3.479   5.720  11.813  2.0051 -1.7075 -1.5575
 7812TIP3    H244928   3.465   5.644  11.943 -1.6649 -0.4997 -1.1361
 7813TIP3   OH244929   0.936   4.152  17.174  0.5181 -0.2782 -0.3610
 7813TIP3    H144930   0.994   4.077  17.163  0.7738 -0.2059  0.3991
 7813TIP3    H244931   0.993   4.223  17.204 -0.1085 -0.5246  1.5314
 7814TIP3   OH244932   3.870   6.065   0.804  0.0132 -0.2613 -0.4741
 7814TIP3    H144933   3.856   5.970   0.813  1.5244 -0.9945 -4.1818
 7814TIP3    H244934   3.965   6.076   0.805 -0.1026  1.0409 -1.2708
 7815TIP3   OH244935   6.688   1.245  13.860 -0.1129 -0.1451 -0.3732
 7815TIP3    H144936   6.650   1.272  13.777 -0.4622 -1.5481 -0.6999
 7815TIP3    H244937   6.773   1.207  13.836 -0.2539 -0.6359 -0.1103
 7816TIP3   OH244938   4.223   5.811   0.900 -0.0665 -0.3459  0.0434
 7816TIP3    H144939   4.244   5.905   0.896 -0.5183 -0.2209  0.4447
 7816TIP3    H244940   4.151   5.806   0.964 -1.5431 -0.6878 -1.5689
 7817TIP3   OH244941   3.204   5.606   4.980 -0.1855 -0.4380  0.4604
 7817TIP3    H144942   3.226   5.620   4.888  0.9948 -0.5719  0.6940
 7817TIP3    H244943   3.237   5.683   5.025 -0.4282 -0.5374  0.8133
 7818TIP3   OH244944   0.298   1.195  15.863  0.2357 -0.5015  0.4464
 7818TIP3    H144945   0.227   1.250  15.897 -0.5610 -1.4653  0.3792
 7818TIP3    H244946   0.295   1.116  15.918  0.7585 -0.8776 -0.0558
 7819TIP3   OH244947   0.414   2.444  14.367  0.2194 -0.4413  0.3160
 7819TIP3    H144948   0.423   2.423  14.274  1.8571  1.7991 -0.1182
 7819TIP3    H244949   0.354   2.518  14.370  0.3411 -0.3620  1.0022
 7820TIP3   OH244950   2.243   2.946   1.984  0.0662  0.0790  0.4171
 7820TIP3    H144951   2.294   2.988   1.915 -0.8161  1.5220  0.6059
 7820TIP3    H244952   2.213   2.863   1.946 -1.0909  1.2165 -1.2546
 7821TIP3   OH244953   1.694   0.190  11.426 -0.1186  0.0737  0.1807
 7821TIP3    H144954   1.641   0.113  11.403 -0.2426  0.3749 -0.5473
 7821TIP3    H244955   1.673   0.255  11.359 -1.0716  1.2451  1.5306
 7822TIP3   OH244956   5.266   4.168  17.181 -0.6663  0.1764  0.4667
 7822TIP3    H144957   5.185   4.117  17.189  0.4912 -1.5055  2.2747
 7822TIP3    H244958   5.304   4.166  17.269  0.7482  2.0025 -0.0451
 7823TIP3   OH244959   0.934   2.057  13.904 -0.2101  0.1801 -0.0220
 7823TIP3    H144960   0.976   2.062  13.990  2.0057 -0.5272 -1.0013
 7823TIP3    H244961   0.959   2.139  13.861  0.3264 -0.3069 -0.6650
 7824TIP3   OH244962   5.692   1.443   3.604  0.4225  0.3185  0.0939
 7824TIP3    H144963   5.761   1.504   3.632  1.1138 -0.5357  0.3045
 7824TIP3    H244964   5.647   1.489   3.533  1.9277  0.4697 -0.8212
 7825TIP3   OH244965   2.498   6.199   0.017 -0.0585  0.2361  0.0231
 7825TIP3    H144966   2.460   6.254   0.086  1.4542 -0.9680  1.8877
 7825TIP3    H244967   2.427   6.191  -0.048 -1.0547  2.5507  0.7037
 7826TIP3   OH244968   1.014   2.815  15.046 -0.1486 -0.1571 -0.0776
 7826TIP3    H144969   1.065   2.780  14.972  0.4634  1.1526 -0.2961
 7826TIP3    H244970   1.007   2.909  15.028 -0.2816  0.1258  1.3769
 7827TIP3   OH244971   0.862   6.499  17.063  0.2384 -0.1313  0.2722
 7827TIP3    H144972   0.905   6.485  16.979  0.5036  1.7088  0.0660
 7827TIP3    H244973   0.773   6.526  17.040  0.5117  1.0379  0.5459
 7828TIP3   OH244974   3.682   4.550  15.238  0.1761  0.1521 -0.1451
 7828TIP3    H144975   3.715   4.600  15.164 -0.3366  0.5686 -0.0947
 7828TIP3    H244976   3.590   4.535  15.218  0.0656  0.1635  0.3457
 7829TIP3   OH244977   4.839   5.450  15.623  0.0613  0.5303  0.0088
 7829TIP3    H144978   4.861   5.397  15.700  0.6866  0.2121 -0.3832
 7829TIP3    H244979   4.924   5.479  15.589  0.1320 -2.2168 -2.6235
 7830TIP3   OH244980   3.961   1.015  12.537  0.6324 -0.0514 -0.0605
 7830TIP3    H144981   4.035   1.075  12.544 -0.0175  0.7424  0.1859
 7830TIP3    H244982   3.963   0.985  12.446  1.0332  0.2408 -0.1508
 7831TIP3   OH244983   3.736   5.219  13.781 -0.2958 -0.1021  0.2440
 7831TIP3    H144984   3.771   5.182  13.862  1.1796 -0.4071 -0.4931
 7831TIP3    H244985   3.742   5.314  13.793  1.9412 -0.1351 -0.2993
 7832TIP3   OH244986   6.587   0.808  14.788  0.4956 -0.2974 -0.2521
 7832TIP3    H144987   6.530   0.832  14.861 -1.6439 -1.8065 -1.3041
 7832TIP3    H244988   6.559   0.865  14.716 -0.1518 -1.4857 -0.9582
 7833TIP3   OH244989   5.226   0.037   3.715  0.6203  0.0270  0.0352
 7833TIP3    H144990   5.167   0.088   3.771  1.3805 -0.0511  0.9377
 7833TIP3    H244991   5.251  -0.038   3.769  0.2814 -0.7993 -0.9254
 7834TIP3   OH244992   3.372   4.021   4.817 -0.1888 -0.0800  0.2251
 7834TIP3    H144993   3.395   4.003   4.908 -0.8770  0.2627  0.4682
 7834TIP3    H244994   3.457   4.024   4.772  0.1052 -1.2668  0.6489
 7835TIP3   OH244995   1.927   3.060  10.829 -0.3866 -0.5729  0.0875
 7835TIP3    H144996   1.893   3.009  10.755 -2.5532  1.6378 -0.5606
 7835TIP3    H244997   1.850   3.083  10.881  0.6973  0.6228  1.2566
 7836TIP3   OH244998   3.973   0.623  15.873  0.0209 -0.0780 -0.6328
 7836TIP3    H144999   4.052   0.636  15.925 -0.8000  1.5346  0.2981
 7836TIP3    H245000   3.904   0.666  15.923 -1.5501 -1.7755 -1.2212
 7837TIP3   OH245001   1.228   4.445   5.781  0.4287  0.2389 -0.6730
 7837TIP3    H145002   1.233   4.353   5.756 -0.1493 -0.0465  0.2186
 7837TIP3    H245003   1.288   4.490   5.721 -1.4886 -0.2773 -3.1364
 7838TIP3   OH245004   4.542   6.680  11.501 -0.4556 -0.4774 -0.2144
 7838TIP3    H145005   4.455   6.720  11.503  0.5256  1.8357 -0.6148
 7838TIP3    H245006   4.550   6.645  11.412 -0.5551  0.3448 -0.5541
 7839TIP3   OH245007   2.147   6.496   2.188 -0.2609 -0.0715 -0.3379
 7839TIP3    H145008   2.083   6.476   2.256 -0.1629  1.1313  0.1243
 7839TIP3    H245009   2.102   6.556   2.129 -0.0524 -0.4126 -0.8561
 7840TIP3   OH245010   6.367   2.058  12.659 -0.0732 -0.1768 -0.2345
 7840TIP3    H145011   6.457   2.090  12.653 -0.1381 -0.2203 -1.9576
 7840TIP3    H245012   6.360   2.021  12.747  1.6775 -0.4252 -0.1774
 7841TIP3   OH245013   2.632   4.765   4.870  0.3084 -0.3100 -0.3913
 7841TIP3    H145014   2.600   4.767   4.960  1.0844 -1.7566 -0.0624
 7841TIP3    H245015   2.617   4.675   4.840  0.6222 -0.0129 -1.5022
 7842TIP3   OH245016   6.304   4.492   6.422 -0.2704 -0.0828 -0.1418
 7842TIP3    H145017   6.331   4.577   6.457  2.1487 -0.8439  0.0158
 7842TIP3    H245018   6.299   4.435   6.498 -0.6222 -0.3913 -0.3913
 7843TIP3   OH245019   6.616   1.247  13.601 -1.0047  0.1785  0.1250
 7843TIP3    H145020   6.571   1.165  13.621  0.3872 -0.5110  0.5565
 7843TIP3    H245021   6.686   1.222  13.540  0.7208  0.6499  1.8138
 7844TIP3   OH245022   3.214   1.808  13.068 -0.2087 -0.2466  0.2009
 7844TIP3    H145023   3.277   1.771  13.129  0.6565  0.2818 -0.3445
 7844TIP3    H245024   3.130   1.799  13.112  0.4739  0.8930  1.8776
 7845TIP3   OH245025   1.871   4.726  12.189  0.2178  0.1704 -0.3320
 7845TIP3    H145026   1.826   4.807  12.213  0.3456  0.4105 -0.8787
 7845TIP3    H245027   1.839   4.661  12.251 -2.1302 -0.0643 -1.6845
 7846TIP3   OH245028   0.002   3.962   6.001 -0.1433 -0.5760 -0.2449
 7846TIP3    H145029   0.087   3.958   6.044 -0.8958  0.4607  1.4721
 7846TIP3    H245030  -0.058   3.923   6.065 -0.9302 -1.6021 -1.5657
 7847TIP3   OH245031   2.949   5.138  15.448 -0.1485  0.5273  0.3687
 7847TIP3    H145032   3.040   5.108  15.452  0.5285  2.4416  0.0776
 7847TIP3    H245033   2.903   5.082  15.511  0.6127 -2.3509 -1.4707
 7848TIP3   OH245034   5.583   2.415  11.921 -0.2806  0.0693  0.3174
 7848TIP3    H145035   5.577   2.484  11.987  1.1174  0.1444  0.3851
 7848TIP3    H245036   5.628   2.342  11.965  0.0841 -0.1214 -0.3466
 7849TIP3   OH245037   2.051   0.467   0.115  0.0095  0.0656 -0.3625
 7849TIP3    H145038   2.068   0.561   0.125 -0.3057  0.0099  0.7985
 7849TIP3    H245039   1.958   0.462   0.092  0.0108  0.0322 -0.3602
 7850TIP3   OH245040   4.927   0.179  15.867  0.0735  0.1729  0.7242
 7850TIP3    H145041   4.969   0.097  15.894  1.1415  1.0729  1.8859
 7850TIP3    H245042   4.836   0.154  15.849  1.0883 -1.9226 -2.3569
 7851TIP3   OH245043   3.712   5.345   4.985  0.2788 -0.0583  0.3008
 7851TIP3    H145044   3.691   5.431   5.022  2.1141  0.6933 -0.3114
 7851TIP3    H245045   3.719   5.361   4.891  0.8241 -0.8359  0.2035
 7852TIP3   OH245046   4.511   0.256   4.493 -0.1453 -0.2000 -0.9067
 7852TIP3    H145047   4.423   0.228   4.469 -0.1928 -1.7196  0.7741
 7852TIP3    H245048   4.542   0.189   4.555  0.3766  2.5902  2.1914
 7853TIP3   OH245049   3.841   1.807   1.795 -0.3022 -0.9156 -0.6320
 7853TIP3    H145050   3.923   1.826   1.840 -1.0627 -0.5064  0.6640
 7853TIP3    H245051   3.783   1.774   1.864 -1.6251  0.0597 -1.2203
 7854TIP3   OH245052   3.751   0.321  12.745 -0.0267 -0.1102 -0.4997
 7854TIP3    H145053   3.690   0.248  12.745  1.6754 -1.6750  1.4035
 7854TIP3    H245054   3.714   0.383  12.809 -1.0980  0.4041 -1.5803
 7855TIP3   OH245055   3.990   4.142   6.129  0.2113  0.1494 -0.0885
 7855TIP3    H145056   3.974   4.235   6.112  0.9052  0.5457  1.2895
 7855TIP3    H245057   4.033   4.111   6.050  1.1127  1.3118 -0.0868
 7856TIP3   OH245058   3.674   2.627   2.283  0.3121 -0.0376  0.3824
 7856TIP3    H145059   3.667   2.532   2.288  0.4482 -0.0436  0.4596
 7856TIP3    H245060   3.587   2.656   2.255 -0.5694  0.0060  2.9075
 7857TIP3   OH245061   3.230   3.593   3.404 -0.3949 -0.1902 -0.0573
 7857TIP3    H145062   3.292   3.545   3.458 -2.6692 -1.2130  1.8146
 7857TIP3    H245063   3.256   3.573   3.314  1.1352 -1.6557  0.6534
 7858TIP3   OH245064   2.907   6.694  12.316  0.1145 -0.1486 -0.2731
 7858TIP3    H145065   2.906   6.788  12.334  1.2124  0.4269 -2.8198
 7858TIP3    H245066   2.815   6.668  12.319 -0.0800  0.6192  2.0111
 7859TIP3   OH245067   2.871   2.016   2.859 -0.1520  0.4499 -0.2485
 7859TIP3    H145068   2.888   1.976   2.944 -0.8685  2.1153  0.7274
 7859TIP3    H245069   2.800   1.965   2.822  0.1010 -0.2344  0.1903
 7860TIP3   OH245070   1.177   6.196  13.925 -0.7199 -0.0602  0.0378
 7860TIP3    H145071   1.174   6.113  13.973 -0.0245  0.4755  1.0505
 7860TIP3    H245072   1.117   6.183  13.852  0.5411 -2.0216 -0.7649
 7861TIP3   OH245073   1.745   3.295  12.051 -0.3851  0.0424  0.1792
 7861TIP3    H145074   1.702   3.238  12.115 -1.0325  0.9894  0.6056
 7861TIP3    H245075   1.835   3.303  12.083 -0.5224 -0.0388  0.5900
 7862TIP3   OH245076   5.417   5.938   3.379  0.9050  0.1516  0.8466
 7862TIP3    H145077   5.429   5.950   3.473  0.1575 -0.4706  1.0299
 7862TIP3    H245078   5.429   5.844   3.366 -2.6457 -0.4440  0.9195
 7863TIP3   OH245079   1.448   2.269  12.103 -0.2855 -0.0761  0.8181
 7863TIP3    H145080   1.447   2.297  12.012 -0.8071  2.3988  1.5096
 7863TIP3    H245081   1.526   2.214  12.111  0.0217  0.0589 -0.9958
 7864TIP3   OH245082   4.382   1.026   3.685 -0.2536 -0.5311  0.1432
 7864TIP3    H145083   4.392   0.960   3.616  2.4332 -0.7232  0.6229
 7864TIP3    H245084   4.341   0.979   3.757 -2.2614 -0.5494 -0.9221
 7865TIP3   OH245085   0.225   4.742   3.760  0.1477 -0.4270 -0.3574
 7865TIP3    H145086   0.132   4.762   3.766  0.5086  1.0113  0.8873
 7865TIP3    H245087   0.268   4.827   3.749  1.3651 -0.9945 -0.2517
 7866TIP3   OH245088   4.944   1.164  13.882 -0.1988 -0.4227 -0.1457
 7866TIP3    H145089   4.976   1.095  13.940 -0.4819  0.4620  1.0977
 7866TIP3    H245090   4.958   1.245  13.931 -0.1298  0.3861 -1.4621
 7867TIP3   OH245091   2.298   3.957  12.644 -0.2968  0.4530  0.0504
 7867TIP3    H145092   2.241   4.033  12.641 -0.0529  0.6808  1.0399
 7867TIP3    H245093   2.309   3.932  12.552  0.3737  2.1733 -0.3784
 7868TIP3   OH245094   5.579   2.219  15.288 -0.2675  0.1705 -0.2610
 7868TIP3    H145095   5.634   2.152  15.329 -0.2497  1.6564  2.3817
 7868TIP3    H245096   5.609   2.223  15.197  2.2911 -0.7853  0.4629
 7869TIP3   OH245097   2.393   3.417   0.610  0.1939 -0.6575 -0.0473
 7869TIP3    H145098   2.463   3.451   0.555  0.5925  0.2923  1.0279
 7869TIP3    H245099   2.314   3.461   0.578  0.3952 -0.2386  0.0255
 7870TIP3   OH245100   4.848   0.560   1.779  0.1358  0.8582 -0.0921
 7870TIP3    H145101   4.874   0.574   1.870  1.1568  1.0308 -0.3979
 7870TIP3    H245102   4.892   0.479   1.753  0.3062  1.1111 -0.6028
 7871TIP3   OH245103   4.229   3.210   1.281  0.0718  0.1754  0.2238
 7871TIP3    H145104   4.245   3.187   1.189 -0.6502 -0.6011  0.2729
 7871TIP3    H245105   4.300   3.169   1.329  0.9755  1.3519 -0.0548
 7872TIP3   OH245106   4.339   5.574  11.217  0.3852 -0.6176  0.4006
 7872TIP3    H145107   4.411   5.626  11.181  0.4233 -0.1067  1.1851
 7872TIP3    H245108   4.371   5.544  11.302 -0.8711  0.8987  1.4549
 7873TIP3   OH245109   0.075   6.523  12.022 -0.0488  0.1004 -0.1126
 7873TIP3    H145110   0.108   6.611  12.008  1.5602 -0.4628 -0.0644
 7873TIP3    H245111  -0.011   6.522  11.979  0.3243  1.4001 -0.9350
 7874TIP3   OH245112   4.439   4.955  14.627  0.3204  0.2281 -0.0280
 7874TIP3    H145113   4.450   5.049  14.612  2.4098 -0.0087 -0.3015
 7874TIP3    H245114   4.397   4.949  14.713 -0.3123  1.4106 -0.2317
 7875TIP3   OH245115   4.846   0.093  11.925 -0.2736  0.7688  0.5298
 7875TIP3    H145116   4.773   0.153  11.941  0.7235  1.7813  1.4258
 7875TIP3    H245117   4.866   0.055  12.010  1.1005  1.5371  0.5866
 7876TIP3   OH245118   4.067   3.445   6.221 -0.0107  0.0900 -0.2551
 7876TIP3    H145119   4.038   3.411   6.136 -0.3351  3.2680 -1.5668
 7876TIP3    H245120   3.991   3.491   6.256  0.3619 -0.5138  1.4243
 7877TIP3   OH245121   5.721   1.682   0.262  0.4354  0.0469 -0.1514
 7877TIP3    H145122   5.768   1.753   0.307 -0.6634  1.3445 -0.9663
 7877TIP3    H245123   5.632   1.716   0.250  0.2977 -0.8322 -1.9557
 7878TIP3   OH245124   4.784   4.498   0.631 -0.0212 -0.5603  0.0460
 7878TIP3    H145125   4.862   4.548   0.654 -0.3432  0.1559 -0.3687
 7878TIP3    H245126   4.817   4.423   0.582  0.3929 -0.0691 -0.4416
 7879TIP3   OH245127   6.583   0.186  16.380 -0.7116 -0.0272 -0.1745
 7879TIP3    H145128   6.493   0.153  16.371 -0.2198 -1.6201  0.3171
 7879TIP3    H245129   6.624   0.125  16.441  0.4730  1.1905  0.2782
 7880TIP3   OH245130   0.492   1.046   1.678 -0.0334  0.4824 -1.0512
 7880TIP3    H145131   0.427   1.000   1.732  0.7484  1.2341  0.5947
 7880TIP3    H245132   0.521   0.980   1.616  1.6642 -1.6429  1.7658
 7881TIP3   OH245133   2.107   0.384   1.065 -0.6074  0.2636 -0.0247
 7881TIP3    H145134   2.175   0.356   1.003 -0.0283  1.0603  0.2395
 7881TIP3    H245135   2.027   0.387   1.013 -0.0136  1.5723 -0.9159
 7882TIP3   OH245136   2.878   6.672  11.685 -0.5522 -0.1536 -0.0105
 7882TIP3    H145137   2.836   6.659  11.770 -0.3823 -2.6177 -0.2421
 7882TIP3    H245138   2.932   6.594  11.672 -0.5492  0.1594 -2.3557
 7883TIP3   OH245139   5.465   2.598   3.407 -0.3384 -0.6285 -0.5500
 7883TIP3    H145140   5.551   2.554   3.411  0.1173  0.2644 -0.3178
 7883TIP3    H245141   5.486   2.689   3.388 -1.0180  0.2603  2.4676
 7884TIP3   OH245142   2.510   6.560  17.168  0.0020  0.1635  0.3954
 7884TIP3    H145143   2.568   6.636  17.166 -1.0211  0.9975 -2.1950
 7884TIP3    H245144   2.552   6.496  17.111 -0.8828  0.2732 -0.4261
 7885TIP3   OH245145   2.991   6.380  16.189 -0.0563 -0.2244  0.0724
 7885TIP3    H145146   2.977   6.416  16.276  0.8833 -0.2903  0.2664
 7885TIP3    H245147   3.084   6.359  16.187  0.1927  0.8670 -1.3541
 7886TIP3   OH245148   2.756   0.259  14.947 -0.3998  0.3744 -0.0866
 7886TIP3    H145149   2.756   0.226  14.857  0.4482  1.5200 -0.5248
 7886TIP3    H245150   2.702   0.196  14.996 -1.2121 -0.0325 -1.4722
 7887TIP3   OH245151   4.657   2.376   2.134 -0.7796  0.2600 -0.7168
 7887TIP3    H145152   4.643   2.461   2.174 -2.1553 -0.0163 -0.5762
 7887TIP3    H245153   4.705   2.394   2.053  2.1251  0.8304  0.9964
 7888TIP3   OH245154   0.614   5.378   1.417 -0.4256  0.7574 -0.4475
 7888TIP3    H145155   0.552   5.368   1.489 -0.3987  1.3396 -0.3383
 7888TIP3    H245156   0.680   5.438   1.451  0.2314  0.1062 -0.5478
 7889TIP3   OH245157   1.537   6.437   5.400 -0.1142 -0.9545  0.1835
 7889TIP3    H145158   1.498   6.524   5.411 -0.1277 -1.1725  2.5027
 7889TIP3    H245159   1.462   6.379   5.388 -0.3185 -0.9564  1.3444
 7890TIP3   OH245160   5.082   1.807  15.504 -0.3826  0.3385 -0.8135
 7890TIP3    H145161   5.008   1.865  15.488 -0.3294  0.8593  0.6682
 7890TIP3    H245162   5.058   1.759  15.583  1.2837  1.2761  0.3311
 7891TIP3   OH245163   3.636   3.014   1.912  0.0675  0.2223  0.1441
 7891TIP3    H145164   3.595   2.979   1.834  2.2345  0.4279 -1.1698
 7891TIP3    H245165   3.693   2.944   1.943 -0.1607  0.4385  1.0809
 7892TIP3   OH245166   5.145   0.841  14.553  0.0843  0.3310  0.1525
 7892TIP3    H145167   5.218   0.874  14.606 -0.2456  0.5252  0.4952
 7892TIP3    H245168   5.176   0.846  14.463  0.0414  1.6335  0.1911
 7893TIP3   OH245169   1.624   5.557  12.525  0.0998 -0.3791  0.2641
 7893TIP3    H145170   1.567   5.546  12.450 -0.3407 -3.3396  0.9024
 7893TIP3    H245171   1.584   5.504  12.594  3.0820 -1.9437  0.9922
 7894TIP3   OH245172   4.833   6.052  12.991 -0.7344  0.4206  0.0173
 7894TIP3    H145173   4.915   6.100  12.977 -0.2416 -0.2356  0.5657
 7894TIP3    H245174   4.816   6.010  12.907 -0.5844  0.6756 -0.1442
 7895TIP3   OH245175   5.097   5.706  12.109  0.1427 -0.3466  0.0928
 7895TIP3    H145176   5.184   5.685  12.141  0.3027 -0.8902 -0.6774
 7895TIP3    H245177   5.040   5.697  12.186  1.0445  2.2234  1.1722
 7896TIP3   OH245178   6.826   4.624   0.662  0.2908 -0.4618 -0.3514
 7896TIP3    H145179   6.813   4.641   0.569 -0.9994 -1.2500 -0.3362
 7896TIP3    H245180   6.814   4.530   0.672 -3.1123 -0.0609  1.0522
 7897TIP3   OH245181   4.357   5.677  17.095 -0.5217 -0.2327 -0.0737
 7897TIP3    H145182   4.308   5.687  17.176 -1.0230  0.1203 -0.4172
 7897TIP3    H245183   4.437   5.630  17.121  0.1981  1.4870  0.9591
 7898TIP3   OH245184   0.918   3.210  15.720  0.3508 -0.4815 -0.1013
 7898TIP3    H145185   0.825   3.186  15.727 -0.0217  1.0745  0.5557
 7898TIP3    H245186   0.943   3.236  15.809  0.5471  2.1076 -0.8548
 7899TIP3   OH245187   3.159   0.785   0.798 -0.2591  0.8667 -0.2770
 7899TIP3    H145188   3.174   0.726   0.725  0.7356  1.1574 -0.3165
 7899TIP3    H245189   3.066   0.810   0.791 -0.7133 -0.7363 -0.2033
 7900TIP3   OH245190   0.008   6.515   0.742 -0.5644  0.2479 -0.3802
 7900TIP3    H145191  -0.037   6.442   0.785 -0.4367  0.7517  0.6212
 7900TIP3    H245192   0.046   6.476   0.663  0.0112 -0.9029  0.4434
 7901TIP3   OH245193   4.991   1.878  16.790 -0.4912 -0.5618 -0.3431
 7901TIP3    H145194   4.990   1.836  16.876 -1.9985 -0.5961 -0.3342
 7901TIP3    H245195   5.019   1.968  16.807 -2.1037 -0.1549  0.4503
 7902TIP3   OH245196   4.911   2.835   1.197 -0.1085 -0.5063 -0.0497
 7902TIP3    H145197   4.937   2.756   1.244  1.8644  0.4308  0.5597
 7902TIP3    H245198   4.833   2.866   1.243 -0.5172 -1.7301  0.1069
 7903TIP3   OH245199   1.722   2.627  13.885 -0.3394 -0.3317  0.0159
 7903TIP3    H145200   1.628   2.616  13.871 -0.5636  1.4011 -0.0597
 7903TIP3    H245201   1.728   2.671  13.970  0.4614 -1.0747  0.3634
 7904TIP3   OH245202   0.374   6.259  11.910 -0.2116 -0.4859  0.2794
 7904TIP3    H145203   0.423   6.341  11.913  1.9442 -1.6724  0.0712
 7904TIP3    H245204   0.309   6.272  11.841 -0.2246  1.1760  0.5675
 7905TIP3   OH245205   6.769   1.036   1.534  0.2190  0.0507  0.5263
 7905TIP3    H145206   6.701   1.038   1.601  1.0301  2.0728  1.3790
 7905TIP3    H245207   6.818   0.956   1.551 -0.5664 -0.2742  1.3226
 7906TIP3   OH245208   2.742   6.122  15.642  0.3416 -0.1758  0.2880
 7906TIP3    H145209   2.679   6.051  15.629  0.1969  0.3470 -2.4892
 7906TIP3    H245210   2.690   6.191  15.684 -0.7247 -0.1383 -1.0068
 7907TIP3   OH245211   3.619   0.359  16.824 -0.2060 -0.2152 -0.1964
 7907TIP3    H145212   3.687   0.426  16.819  0.3362 -0.6686  0.8489
 7907TIP3    H245213   3.639   0.299  16.752 -0.4926  0.5421 -0.9193
 7908TIP3   OH245214   4.461   1.948   2.928 -0.1891 -0.4961  0.2389
 7908TIP3    H145215   4.378   1.948   2.976  0.2020  1.1807  0.9652
 7908TIP3    H245216   4.436   1.964   2.837 -0.7651 -1.5216  0.2046
 7909TIP3   OH245217   5.445   3.501   3.063 -0.3777 -0.4402  0.0743
 7909TIP3    H145218   5.417   3.449   3.139  1.7842 -0.5913  0.8319
 7909TIP3    H245219   5.447   3.591   3.095 -0.3611 -0.3867 -0.0779
 7910TIP3   OH245220   2.566   0.478   6.175 -0.2812  0.1732 -0.1841
 7910TIP3    H145221   2.649   0.447   6.210 -0.6449 -1.2927 -0.5335
 7910TIP3    H245222   2.504   0.408   6.195 -1.4085  1.1705 -0.0589
 7911TIP3   OH245223   4.797   3.108   3.734 -0.1441 -0.3776 -0.4309
 7911TIP3    H145224   4.716   3.076   3.694  0.9343 -2.4730 -1.1008
 7911TIP3    H245225   4.856   3.121   3.660  0.8443 -1.1088  0.2094
 7912TIP3   OH245226   6.616   6.218   2.717 -0.5948 -0.2556 -0.3474
 7912TIP3    H145227   6.603   6.276   2.642 -1.3083 -1.3539 -1.1185
 7912TIP3    H245228   6.528   6.204   2.752 -0.3580 -0.3636  0.2158
 7913TIP3   OH245229   5.264   0.664  15.831 -0.0094 -0.4168 -0.2609
 7913TIP3    H145230   5.246   0.730  15.764 -3.1667 -0.6728  0.1460
 7913TIP3    H245231   5.182   0.659  15.881  1.9481 -0.7187  3.2106
 7914TIP3   OH245232   3.125   2.014   3.645 -0.2173  0.1439  0.0089
 7914TIP3    H145233   3.150   2.033   3.735 -1.9129 -1.1646  0.8054
 7914TIP3    H245234   3.123   1.918   3.640 -2.8387  0.1644 -0.5719
 7915TIP3   OH245235   0.990   5.335   4.716 -0.0988 -0.4871 -0.2268
 7915TIP3    H145236   1.062   5.381   4.760 -0.3314 -0.0766 -0.2677
 7915TIP3    H245237   1.033   5.288   4.644  0.2050 -0.7130  0.1016
 7916TIP3   OH245238   0.729   6.564   3.926  0.4774  0.0487 -0.5814
 7916TIP3    H145239   0.732   6.658   3.944  1.4043 -0.1369  0.3125
 7916TIP3    H245240   0.636   6.542   3.928  0.3631  0.5326  1.5136
 7917TIP3   OH245241   4.521   3.043   0.319 -0.2401 -0.0264  0.3768
 7917TIP3    H145242   4.562   2.970   0.273 -0.1707 -1.0517  1.9851
 7917TIP3    H245243   4.435   3.051   0.278  0.9444  1.2585 -2.1018
 7918TIP3   OH245244   3.649   0.580  14.742  0.3640 -0.1693 -0.0079
 7918TIP3    H145245   3.682   0.653  14.689  1.6363  1.6554  3.0451
 7918TIP3    H245246   3.658   0.503  14.685  2.4246  1.4909 -2.1207
 7919TIP3   OH245247   0.236   6.523   3.495  0.1938  0.3434  0.0151
 7919TIP3    H145248   0.215   6.554   3.407  2.3523  0.1905 -0.6235
 7919TIP3    H245249   0.228   6.601   3.550  0.8811  0.9596 -0.7190
 7920TIP3   OH245250   5.330   5.855   2.011  0.4563 -0.2784  0.1409
 7920TIP3    H145251   5.423   5.852   2.037  0.3745  0.2340  0.5066
 7920TIP3    H245252   5.332   5.862   1.916  0.8589  1.9439  0.2519
 7921TIP3   OH245253   5.105   0.716  15.233  0.2959  0.7234 -0.5837
 7921TIP3    H145254   5.009   0.713  15.228 -0.1471  2.8581  3.1534
 7921TIP3    H245255   5.131   0.778  15.165 -0.9849  0.3672 -1.4332
 7922TIP3   OH245256   6.042   1.369  13.972 -0.0392  0.0847 -0.1507
 7922TIP3    H145257   5.970   1.399  13.916 -1.3906 -0.1769  1.3455
 7922TIP3    H245258   5.998   1.317  14.040  1.7596 -1.4385 -0.0976
 7923TIP3   OH245259   2.773   4.061  11.287 -0.1958 -0.1852  0.5023
 7923TIP3    H145260   2.685   4.069  11.322  0.6319  2.3226  2.2642
 7923TIP3    H245261   2.761   4.020  11.201 -3.0964  0.4171  0.5191
 7924TIP3   OH245262   2.904   1.596   0.953  0.6524  0.3808  0.1555
 7924TIP3    H145263   2.875   1.515   0.912  0.9396 -0.3669  1.3535
 7924TIP3    H245264   2.963   1.566   1.023  0.7353  1.6231  0.6304
 7925TIP3   OH245265   1.508   5.782   2.125  0.2446  0.3254 -0.1055
 7925TIP3    H145266   1.574   5.831   2.076  0.4102 -0.2773 -0.4925
 7925TIP3    H245267   1.557   5.735   2.192  0.4310 -1.2627 -1.2831
 7926TIP3   OH245268   1.534   3.877  16.425 -0.5728 -0.0652  0.1970
 7926TIP3    H145269   1.503   3.954  16.378 -0.8189  0.1287  0.6654
 7926TIP3    H245270   1.522   3.899  16.518  1.2249  0.1227  0.4143
 7927TIP3   OH245271   0.808   4.604  13.130 -0.1858 -0.2986 -0.1998
 7927TIP3    H145272   0.754   4.573  13.203 -1.2751  1.0314 -0.4096
 7927TIP3    H245273   0.873   4.660  13.171 -0.1458 -0.3849 -0.1444
 7928TIP3   OH245274   4.152   3.643  13.602  0.6558  0.0501 -0.6507
 7928TIP3    H145275   4.217   3.712  13.592  0.4719  0.2939 -0.2066
 7928TIP3    H245276   4.201   3.568  13.635  0.9373 -0.1840 -1.5846
 7929TIP3   OH245277   0.906   6.019  12.745  0.2445 -0.5120  0.7084
 7929TIP3    H145278   0.893   6.113  12.757  0.1315 -0.2919 -0.9336
 7929TIP3    H245279   0.969   5.995  12.813  1.0788  0.9632  0.4906
 7930TIP3   OH245280   4.114   0.252   3.938  0.2252 -0.3708  0.1838
 7930TIP3    H145281   4.146   0.307   3.866  0.0381 -0.1045  0.3017
 7930TIP3    H245282   4.021   0.275   3.946  0.5087  0.4523  1.2846
 7931TIP3   OH245283   2.641   3.354  13.675  0.5182  0.2387 -0.8197
 7931TIP3    H145284   2.684   3.290  13.619  0.0825  0.5028 -1.4767
 7931TIP3    H245285   2.599   3.302  13.743  1.2830 -0.0675 -0.5741
 7932TIP3   OH245286   1.611   2.684  16.717  0.6968 -0.0547 -0.0019
 7932TIP3    H145287   1.571   2.627  16.652 -0.2531  0.8694 -0.2575
 7932TIP3    H245288   1.625   2.627  16.793  1.2878 -1.0015 -0.7947
 7933TIP3   OH245289   3.481   5.538  12.684 -0.5400 -0.3476 -0.6428
 7933TIP3    H145290   3.475   5.470  12.751 -0.1730 -0.5824 -0.8445
 7933TIP3    H245291   3.478   5.621  12.733 -0.6356 -0.5135 -0.3680
 7934TIP3   OH245292   6.721   2.534  15.849  0.0740 -0.3334 -0.3209
 7934TIP3    H145293   6.807   2.559  15.882 -0.2969 -1.5488  1.7388
 7934TIP3    H245294   6.666   2.611  15.866  0.2675 -0.3522  0.4261
 7935TIP3   OH245295   0.822   5.829  14.458 -0.5643 -0.3520 -0.3251
 7935TIP3    H145296   0.823   5.863  14.368  0.7026  0.0459 -0.1762
 7935TIP3    H245297   0.729   5.814  14.477 -0.9762  0.9896 -1.1534
 7936TIP3   OH245298   2.422   5.907  13.916 -0.2011 -0.1665  0.7427
 7936TIP3    H145299   2.388   5.836  13.970  0.6832 -0.2463  1.2150
 7936TIP3    H245300   2.438   5.979  13.978 -0.9422  0.3968  0.2936
 7937TIP3   OH245301   1.208   0.675  13.564  0.7441 -0.2268  0.2736
 7937TIP3    H145302   1.246   0.588  13.556 -0.2542 -0.8456  1.8759
 7937TIP3    H245303   1.224   0.701  13.655  0.9163  1.2173 -0.1388
 7938TIP3   OH245304   1.473   4.657  14.421 -0.9392  0.6645 -0.3618
 7938TIP3    H145305   1.406   4.643  14.488 -0.1722 -0.6203  0.1680
 7938TIP3    H245306   1.555   4.639  14.466 -0.2808  1.4310 -1.2236
 7939TIP3   OH245307   2.350   5.940  14.612  0.2253 -0.3475  0.0615
 7939TIP3    H145308   2.300   5.982  14.542  0.6921  2.3426  1.2290
 7939TIP3    H245309   2.301   5.961  14.692  0.8848 -1.4834  0.7987
 7940TIP3   OH245310   3.694   5.746  15.555 -0.1613  0.3312  0.1920
 7940TIP3    H145311   3.599   5.737  15.545 -0.0973 -1.6376  0.9710
 7940TIP3    H245312   3.721   5.665  15.597  2.0436  0.3746 -1.0280
 7941TIP3   OH245313   3.284   1.777  16.357  0.1438  0.0912 -0.0478
 7941TIP3    H145314   3.311   1.762  16.267  0.0117  0.9527 -0.2314
 7941TIP3    H245315   3.302   1.869  16.374 -0.4720  0.1094  0.5802
 7942TIP3   OH245316   5.137   6.594   2.684  0.6178  0.0189 -0.3241
 7942TIP3    H145317   5.123   6.668   2.626  2.7954  1.4245  0.8264
 7942TIP3    H245318   5.052   6.551   2.689 -0.3698  1.6307 -2.0889
 7943TIP3   OH245319   0.056   0.470  13.149  0.2206 -0.3372  0.6256
 7943TIP3    H145320   0.053   0.507  13.061  2.2826 -1.2111  0.1168
 7943TIP3    H245321   0.096   0.539  13.202  0.0603 -0.2368  0.6150
 7944TIP3   OH245322   6.511   5.974   4.630 -0.3290 -0.3737  0.4335
 7944TIP3    H145323   6.478   5.972   4.540 -1.1305 -0.2398  0.7211
 7944TIP3    H245324   6.526   6.066   4.649 -1.7165 -0.2430  0.9868
 7945TIP3   OH245325   0.053   3.880  13.584 -0.1845  0.2925 -0.9818
 7945TIP3    H145326  -0.025   3.864  13.638 -0.1528  0.8414 -0.7692
 7945TIP3    H245327   0.078   3.970  13.604  0.0823  0.3569 -1.5972
 7946TIP3   OH245328   3.298   6.712   3.763  0.4554 -0.6245 -0.2200
 7946TIP3    H145329   3.346   6.678   3.687  1.8332 -0.5321  0.5722
 7946TIP3    H245330   3.353   6.689   3.838 -0.2195  0.4496  0.6332
 7947TIP3   OH245331   4.064   1.491  14.216 -0.0894 -0.1385 -0.7547
 7947TIP3    H145332   4.082   1.426  14.283 -1.2209  0.4266  0.1360
 7947TIP3    H245333   3.968   1.494  14.210 -0.1482  2.1815  0.0476
 7948TIP3   OH245334   5.638   2.259  14.407 -0.1047 -0.3893  0.1478
 7948TIP3    H145335   5.728   2.280  14.433 -0.6084  1.7606  0.3154
 7948TIP3    H245336   5.584   2.323  14.452 -1.3066  1.6717 -3.7936
 7949TIP3   OH245337   0.628   1.801   4.139 -0.1759 -0.3017 -0.5002
 7949TIP3    H145338   0.704   1.783   4.083  0.3050 -0.7035  0.2537
 7949TIP3    H245339   0.665   1.805   4.228 -0.6395  1.9573 -0.3551
 7950TIP3   OH245340   1.144   5.324   2.694 -0.0064 -0.4609  0.8097
 7950TIP3    H145341   1.064   5.294   2.736 -0.6432 -1.1504 -0.8040
 7950TIP3    H245342   1.211   5.318   2.762 -0.7299 -2.6926  1.4087
 7951TIP3   OH245343   5.001   4.379  17.126  0.6368  0.0890  0.3228
 7951TIP3    H145344   5.009   4.287  17.153  2.5379  0.2004  0.2996
 7951TIP3    H245345   5.076   4.393  17.069 -0.1954  1.4068 -0.4798
 7952TIP3   OH245346   4.841   6.555   1.279 -0.8399 -0.2175  0.1896
 7952TIP3    H145347   4.748   6.574   1.273 -1.0502 -1.2146  0.1601
 7952TIP3    H245348   4.875   6.575   1.192 -0.9579  0.4546  0.2913
 7953TIP3   OH245349   2.650   6.447   4.447  0.1263  0.0729  0.4005
 7953TIP3    H145350   2.680   6.360   4.422  0.5404  0.7019 -1.4660
 7953TIP3    H245351   2.671   6.454   4.540  1.2936 -1.3352  0.2778
 7954TIP3   OH245352   0.873   2.642   5.786  0.0153  0.2363  0.1455
 7954TIP3    H145353   0.905   2.568   5.839  0.7630 -0.4656 -1.2284
 7954TIP3    H245354   0.795   2.607   5.742  1.1629 -0.2497 -1.5983
 7955TIP3   OH245355   1.630   5.983   3.055 -0.2052 -0.2151 -0.2227
 7955TIP3    H145356   1.689   5.917   3.019  0.3663 -0.1711  0.6024
 7955TIP3    H245357   1.678   6.019   3.130 -0.6601  0.8814 -0.4457
 7956TIP3   OH245358   2.288   4.583   5.164 -0.8162  0.2188  0.6989
 7956TIP3    H145359   2.246   4.646   5.107 -2.6910 -1.8313 -0.3256
 7956TIP3    H245360   2.249   4.599   5.250  0.0599  1.5686  0.8796
 7957TIP3   OH245361   5.418   4.379   3.172  0.1827  0.7247 -0.3686
 7957TIP3    H145362   5.359   4.323   3.121  1.1290  0.4739 -1.2407
 7957TIP3    H245363   5.490   4.399   3.111  0.6032  1.6632  0.4096
 7958TIP3   OH245364   6.030   1.347   6.376 -0.1885  0.8074  0.2985
 7958TIP3    H145365   5.950   1.393   6.402 -0.3493  2.0394 -2.0968
 7958TIP3    H245366   5.999   1.261   6.346 -0.6016  1.1484 -0.2791
 7959TIP3   OH245367   6.203   5.785   0.652  0.2768 -0.0083 -0.8544
 7959TIP3    H145368   6.162   5.870   0.637  0.9978  0.1615 -1.9526
 7959TIP3    H245369   6.296   5.800   0.640  0.5337 -0.7345  0.0426
 7960TIP3   OH245370   2.084   6.432  12.738  0.1223  0.2119 -0.1981
 7960TIP3    H145371   2.030   6.454  12.814 -0.0431  0.6782 -0.4527
 7960TIP3    H245372   2.108   6.516  12.700  0.8815  0.0057 -0.1946
 7961TIP3   OH245373   0.036   3.782  13.125  0.0831  0.3732 -0.7993
 7961TIP3    H145374   0.077   3.832  13.196 -2.0544 -0.2945  1.0445
 7961TIP3    H245375   0.104   3.722  13.095  0.8774  0.1801  1.2249
 7962TIP3   OH245376   1.816   1.624  15.916  0.8000  0.4517 -0.0993
 7962TIP3    H145377   1.724   1.650  15.919  0.9461  0.8649  1.5365
 7962TIP3    H245378   1.846   1.651  15.829 -0.9156 -0.8156 -1.1578
 7963TIP3   OH245379   2.491   0.456  11.102 -0.2372 -0.0287  0.5366
 7963TIP3    H145380   2.417   0.417  11.055  0.6923  0.4539 -1.4253
 7963TIP3    H245381   2.551   0.383  11.117  0.3011  0.1229 -0.7517
 7964TIP3   OH245382   4.880   5.246   0.202  0.6654  0.1584  0.2951
 7964TIP3    H145383   4.948   5.308   0.178  1.2293 -1.0180 -1.3713
 7964TIP3    H245384   4.926   5.174   0.246  0.4377 -0.3694 -0.3090
 7965TIP3   OH245385   2.244   5.435   4.853  0.1854  0.1146  0.5696
 7965TIP3    H145386   2.307   5.506   4.847  0.6452 -0.3227  0.1240
 7965TIP3    H245387   2.297   5.355   4.853 -0.3890 -0.3018 -0.9058
 7966TIP3   OH245388   6.599   6.694  12.989 -0.1831 -0.1245 -0.4178
 7966TIP3    H145389   6.689   6.714  12.963 -0.7073  1.3700 -1.2177
 7966TIP3    H245390   6.579   6.757  13.058 -1.1164  0.6450 -1.3560
 7967TIP3   OH245391   3.009   1.472  14.666  0.2648  0.2891  0.2085
 7967TIP3    H145392   3.003   1.379  14.647 -2.6713  0.1630  1.2178
 7967TIP3    H245393   3.092   1.483  14.712 -0.2727 -2.2114  1.9369
 7968TIP3   OH245394   3.477   6.737  12.804  0.2715 -0.3919  0.3390
 7968TIP3    H145395   3.422   6.746  12.881 -1.8660 -0.3319 -1.1067
 7968TIP3    H245396   3.455   6.650  12.769 -0.8455  0.5935 -1.6136
 7969TIP3   OH245397   4.719   4.117   2.722 -0.0152 -0.4448  0.2092
 7969TIP3    H145398   4.798   4.065   2.739  0.3477 -0.5586 -1.5782
 7969TIP3    H245399   4.749   4.185   2.661 -0.9722  0.5007  0.7733
 7970TIP3   OH245400   2.735   5.137  11.648 -0.0274 -0.6040 -0.4841
 7970TIP3    H145401   2.672   5.104  11.713  0.5684 -1.2357 -0.2120
 7970TIP3    H245402   2.683   5.148  11.568 -0.3363 -1.8878 -0.4813
 7971TIP3   OH245403   2.661   5.757   5.835  0.4705 -0.4375 -0.9244
 7971TIP3    H145404   2.638   5.831   5.779 -1.5153  1.6997  2.3546
 7971TIP3    H245405   2.584   5.700   5.833  0.1036  0.0015  0.0745
 7972TIP3   OH245406   6.138   4.045  13.627 -0.5092  0.4209  0.1006
 7972TIP3    H145407   6.221   4.085  13.602 -0.6812  0.5104 -0.3267
 7972TIP3    H245408   6.114   3.990  13.553 -0.6461  0.1066  0.3779
 7973TIP3   OH245409   2.470   2.284   0.229  0.3626  0.3545 -0.4917
 7973TIP3    H145410   2.425   2.228   0.292  0.6333  0.9016  0.2029
 7973TIP3    H245411   2.497   2.225   0.159 -1.8012  0.0658 -1.1656
 7974TIP3   OH245412   4.015   4.335  11.636  0.1022  0.1182  0.6363
 7974TIP3    H145413   3.991   4.312  11.726 -0.3986 -0.4544  0.3613
 7974TIP3    H245414   4.110   4.327  11.633 -0.0480 -2.0429  0.5261
 7975TIP3   OH245415   3.753   6.305  15.623 -0.0897 -0.0145 -0.0880
 7975TIP3    H145416   3.729   6.295  15.531 -0.2750 -0.2804 -0.0101
 7975TIP3    H245417   3.680   6.266  15.672  1.0334 -1.9410  0.1307
 7976TIP3   OH245418   6.017   4.798   5.524  0.1864 -0.0960  0.4191
 7976TIP3    H145419   5.927   4.769   5.509  0.0887  0.4076  0.0246
 7976TIP3    H245420   6.022   4.884   5.484  0.4412  0.5060  1.6847
 7977TIP3   OH245421   5.983   1.264   5.886 -0.2766  0.1535 -0.3030
 7977TIP3    H145422   6.067   1.244   5.845  0.0714 -0.1940  0.5650
 7977TIP3    H245423   5.998   1.253   5.980 -0.5413  2.7462  0.1220
 7978TIP3   OH245424   1.694   4.632  10.407  0.2903 -0.1005  0.1673
 7978TIP3    H145425   1.638   4.611  10.482 -0.8928 -0.0161 -0.6614
 7978TIP3    H245426   1.678   4.561  10.345  2.2595 -0.8868  0.4858
 7979TIP3   OH245427   2.595   6.351  15.715 -0.1597  0.5297  0.1720
 7979TIP3    H145428   2.578   6.421  15.778  1.1292  3.2618 -2.3026
 7979TIP3    H245429   2.513   6.343  15.666 -0.9324 -1.1244  1.6065
 7980TIP3   OH245430   5.654   3.662   1.568  0.2238  0.0093  0.4744
 7980TIP3    H145431   5.624   3.693   1.483  1.2844 -0.9660 -0.3014
 7980TIP3    H245432   5.743   3.629   1.551 -0.0765 -1.5171  1.6452
 7981TIP3   OH245433   5.440   2.850   3.318 -0.8180 -0.2879  0.4819
 7981TIP3    H145434   5.520   2.893   3.348  0.0036 -1.7248  0.3964
 7981TIP3    H245435   5.407   2.908   3.249  1.4405 -0.8276 -1.1718
 7982TIP3   OH245436   6.150   6.720  14.109  0.4084  0.2697  0.2143
 7982TIP3    H145437   6.191   6.641  14.144  0.4596  0.5885  0.8953
 7982TIP3    H245438   6.194   6.735  14.026  1.1485  0.1867  0.5857
 7983TIP3   OH245439   6.195   5.256  16.112 -0.6196 -0.1288  0.0065
 7983TIP3    H145440   6.254   5.192  16.072  1.9256  1.2613  1.3462
 7983TIP3    H245441   6.215   5.339  16.068  1.3493  1.1790  3.0419
 7984TIP3   OH245442   3.884   6.704   4.021 -0.0824  0.4780 -0.3213
 7984TIP3    H145443   3.943   6.697   4.096  0.7690  2.4710 -0.7571
 7984TIP3    H245444   3.913   6.634   3.962  0.2115 -0.1532  0.5508
 7985TIP3   OH245445   3.884   3.174   2.809 -0.5002  0.0764  0.7038
 7985TIP3    H145446   3.866   3.167   2.715  0.4508  1.7076  0.3670
 7985TIP3    H245447   3.964   3.122   2.821  0.5026  1.4424  0.2068
 7986TIP3   OH245448   4.283   5.684   4.877 -0.7476  0.0297 -0.6629
 7986TIP3    H145449   4.196   5.704   4.842 -0.4222 -1.7592 -2.6820
 7986TIP3    H245450   4.340   5.751   4.841 -0.9447 -0.0288 -1.0900
 7987TIP3   OH245451   4.433   4.353   1.711  0.2646  0.0445 -0.2120
 7987TIP3    H145452   4.436   4.382   1.620  0.4968  3.0068  0.6052
 7987TIP3    H245453   4.392   4.427   1.758  0.8387 -1.0555  2.1753
 7988TIP3   OH245454   1.190   3.372  14.371  0.2498 -0.3197 -0.6465
 7988TIP3    H145455   1.136   3.446  14.401  0.5080  0.1606 -1.3440
 7988TIP3    H245456   1.225   3.334  14.452  2.2040  1.9128 -0.3246
 7989TIP3   OH245457   2.004   2.392  11.087  0.2650 -0.2685  0.9840
 7989TIP3    H145458   1.980   2.318  11.031 -1.3438  0.8087  0.1598
 7989TIP3    H245459   2.094   2.412  11.064 -0.3242  0.0969 -1.2393
 7990TIP3   OH245460   5.432   2.384  13.156 -0.2056 -0.2670  0.2042
 7990TIP3    H145461   5.341   2.367  13.133  0.0583 -1.2088 -0.2036
 7990TIP3    H245462   5.481   2.366  13.075  0.4752 -1.1102  0.7848
 7991TIP3   OH245463   0.942   4.536  11.614 -0.0945  0.3703 -0.4586
 7991TIP3    H145464   0.995   4.568  11.687 -1.6534  0.2408  0.7861
 7991TIP3    H245465   0.946   4.441  11.621  0.5516  0.3346 -1.1725
 7992TIP3   OH245466   2.370   0.994  13.505  0.3863 -0.5777  0.8382
 7992TIP3    H145467   2.326   0.908  13.505  0.5719 -0.7313 -1.3533
 7992TIP3    H245468   2.298   1.057  13.496  0.4001 -0.6542  0.1506
 7993TIP3   OH245469   0.235   2.412  13.489 -0.2850 -0.0465  0.6606
 7993TIP3    H145470   0.187   2.401  13.571 -0.7323  0.6611  0.5045
 7993TIP3    H245471   0.177   2.465  13.434  0.3319  0.1295  0.1654
 7994TIP3   OH245472   3.747   5.082  16.830 -0.2319  0.2626  0.1471
 7994TIP3    H145473   3.664   5.108  16.870 -1.2780  0.5222 -2.0472
 7994TIP3    H245474   3.741   5.114  16.740  0.4321 -3.3821 -1.3426
 7995TIP3   OH245475   1.025   4.867  14.295 -0.7188  0.3483 -0.0527
 7995TIP3    H145476   0.937   4.880  14.260  0.4786  1.2617 -2.9959
 7995TIP3    H245477   1.083   4.875  14.220  2.0573  1.6171  2.0286
 7996TIP3   OH245478   5.228   5.527  15.654 -0.2427 -0.5328 -0.1647
 7996TIP3    H145479   5.263   5.458  15.597 -1.1031 -1.7153  0.6944
 7996TIP3    H245480   5.171   5.579  15.598  0.8427 -0.1392 -0.9549
 7997TIP3   OH245481   0.534   1.789  16.465  0.4768 -0.1689  0.2416
 7997TIP3    H145482   0.469   1.832  16.520  0.1100 -0.8441  0.3462
 7997TIP3    H245483   0.559   1.711  16.514 -0.3213 -1.1227 -0.8158
 7998TIP3   OH245484   3.373   5.262  13.212  0.2408  0.1782 -0.0899
 7998TIP3    H145485   3.331   5.285  13.295  1.5530 -0.3170  0.7379
 7998TIP3    H245486   3.438   5.331  13.198  0.0170  0.2677 -0.7300
 7999TIP3   OH245487   2.766   3.274  14.293  0.2172  0.9687 -0.1868
 7999TIP3    H145488   2.739   3.364  14.310  0.2041  0.9214  0.0360
 7999TIP3    H245489   2.739   3.258  14.202  0.9533  1.4615 -0.5016
 8000TIP3   OH245490   0.652   0.356  16.945  0.1537  0.0658  0.5303
 8000TIP3    H145491   0.672   0.296  16.874 -1.7007  0.6816 -0.5662
 8000TIP3    H245492   0.671   0.307  17.025  1.6718 -0.8471 -0.3497
 8001TIP3   OH245493   3.611   5.645   4.691  0.2210  0.2897  0.0322
 8001TIP3    H145494   3.526   5.682   4.668  0.0235  0.2288  0.6426
 8001TIP3    H245495   3.674   5.702   4.647 -0.1692 -1.0756 -2.4394
 8002TIP3   OH245496   5.388   0.221  13.626  0.1585 -0.3119 -1.1128
 8002TIP3    H145497   5.428   0.297  13.668 -1.5939 -0.4307  0.9877
 8002TIP3    H245498   5.428   0.146  13.670 -1.3489 -0.4484  0.1325
 8003TIP3   OH245499   6.525   0.087   5.499  0.6069  0.2555 -0.1614
 8003TIP3    H145500   6.544  -0.006   5.489 -0.7102 -0.4181  2.6597
 8003TIP3    H245501   6.430   0.093   5.504  0.6767  1.7275  0.0640
 8004TIP3   OH245502   4.730   0.076  13.261 -0.3310 -0.0311  0.4932
 8004TIP3    H145503   4.653   0.079  13.317 -0.8361 -0.1952 -0.1833
 8004TIP3    H245504   4.790   0.016  13.305 -0.7549 -0.2204  0.8149
 8005TIP3   OH245505   3.346   5.660   5.638  0.3132  0.2497  0.4159
 8005TIP3    H145506   3.257   5.626   5.649  0.0184  0.6899 -0.4915
 8005TIP3    H245507   3.393   5.630   5.715 -0.4809 -0.4632  0.6367
 8006TIP3   OH245508   2.506   1.496  13.509  0.5649  0.1274 -0.2059
 8006TIP3    H145509   2.489   1.420  13.454  0.6018  0.2686 -0.4119
 8006TIP3    H245510   2.512   1.461  13.598 -0.3338  0.0188 -0.1883
 8007TIP3   OH245511   2.644   6.172   1.944 -0.4850 -0.4272  0.3061
 8007TIP3    H145512   2.627   6.079   1.926 -0.5476 -0.3701  0.0683
 8007TIP3    H245513   2.620   6.217   1.863  2.1959 -0.4902 -0.6326
 8008TIP3   OH245514   3.149   5.170   4.545  0.3059 -0.0134  0.1456
 8008TIP3    H145515   3.244   5.168   4.560  0.2708  0.1089  0.4067
 8008TIP3    H245516   3.116   5.091   4.588  0.3612 -0.3938 -0.5031
 8009TIP3   OH245517   1.518   2.631  11.102 -0.4990 -0.5576  0.4494
 8009TIP3    H145518   1.462   2.555  11.123 -0.7097 -0.1148  1.5341
 8009TIP3    H245519   1.586   2.595  11.045 -0.5488 -1.5921  1.0107
 8010TIP3   OH245520   4.084   6.084   1.184 -0.0096  0.0797  0.0044
 8010TIP3    H145521   4.043   6.025   1.121 -2.0782  1.4228 -0.0094
 8010TIP3    H245522   4.099   6.165   1.135 -1.1744  0.9677  1.0577
 8011TIP3   OH245523   0.592   2.830  11.836 -0.2697 -0.4200 -0.2211
 8011TIP3    H145524   0.499   2.818  11.856  0.0960 -1.2760  1.0997
 8011TIP3    H245525   0.619   2.748  11.796 -0.4803  0.5041 -2.3837
 8012TIP3   OH245526   5.208   3.165   4.122  0.1500 -0.0757  0.0515
 8012TIP3    H145527   5.269   3.231   4.088 -0.0435 -0.2043 -0.5640
 8012TIP3    H245528   5.262   3.087   4.132  0.3004  0.0771  0.4373
 8013TIP3   OH245529   0.047   3.717   3.127 -0.4631 -0.3414 -1.2556
 8013TIP3    H145530   0.045   3.804   3.088  1.5719 -0.0870 -0.9030
 8013TIP3    H245531  -0.011   3.724   3.204 -1.0381  0.4155 -1.7461
 8014TIP3   OH245532   1.139   6.615  16.374  0.2497  0.6513  0.1052
 8014TIP3    H145533   1.145   6.575  16.286 -1.3158  0.1671  0.1936
 8014TIP3    H245534   1.099   6.700  16.359  2.7216  1.8905  0.0408
 8015TIP3   OH245535   3.102   1.098   2.620 -0.2611  0.2832  0.5118
 8015TIP3    H145536   3.044   1.060   2.554  0.0920  0.0145  0.3558
 8015TIP3    H245537   3.043   1.145   2.679 -0.6278  0.1018  0.2927
 8016TIP3   OH245538   0.931   6.802  10.762  0.4806 -0.0361 -0.7106
 8016TIP3    H145539   0.955   6.874  10.821  0.6909 -0.9765  0.4025
 8016TIP3    H245540   0.841   6.822  10.735 -0.0514 -0.1329  0.8605
 8017TIP3   OH245541   1.157   5.471  15.300 -0.3687 -0.5052 -0.8414
 8017TIP3    H145542   1.196   5.474  15.388 -0.0014  1.4948 -1.0304
 8017TIP3    H245543   1.068   5.439  15.315 -1.2804  2.3930  0.7324
 8018TIP3   OH245544   2.034   4.864  15.907 -0.1289  0.2138  0.4553
 8018TIP3    H145545   2.016   4.956  15.927  1.5030  0.3886  1.2644
 8018TIP3    H245546   2.095   4.836  15.975 -0.5266 -1.4563  0.1626
 8019TIP3   OH245547   5.957   5.063  14.045 -0.3238  0.5709  0.2092
 8019TIP3    H145548   5.870   5.024  14.050  0.5908 -1.5466  0.6650
 8019TIP3    H245549   5.958   5.109  13.961 -1.1110 -1.3935 -0.9455
 8020TIP3   OH245550   4.597   1.978   2.364  0.8005  0.2697  0.5192
 8020TIP3    H145551   4.506   1.990   2.391  0.6961 -1.0295  0.8281
 8020TIP3    H245552   4.599   2.009   2.274 -0.2572 -0.8089  0.0902
 8021TIP3   OH245553   1.662   3.266   3.192  0.3500  0.7555 -0.7865
 8021TIP3    H145554   1.700   3.259   3.105 -1.0053 -0.8522 -1.3097
 8021TIP3    H245555   1.701   3.193   3.241  0.0715  0.8064 -0.4803
 8022TIP3   OH245556   4.482   1.686   4.503 -0.2793  0.6921  0.1757
 8022TIP3    H145557   4.506   1.777   4.520  1.7004 -0.1775  2.5366
 8022TIP3    H245558   4.511   1.638   4.580  1.0060 -2.3408 -1.9691
 8023TIP3   OH245559   2.550   1.660  15.865  0.1791  0.0943 -0.0636
 8023TIP3    H145560   2.612   1.730  15.883  0.5893 -0.0488 -0.8530
 8023TIP3    H245561   2.540   1.613  15.948 -0.7170  1.5538  0.6814
 8024TIP3   OH245562   5.639   5.993  16.172  0.0999  0.3792  0.0178
 8024TIP3    H145563   5.692   5.927  16.217 -0.3365 -0.5185 -0.7499
 8024TIP3    H245564   5.674   5.997  16.083  0.8514  2.0275  0.3564
 8025TIP3   OH245565   6.263   1.489   5.276  0.1079 -0.6005 -0.9747
 8025TIP3    H145566   6.241   1.560   5.216 -3.0555 -0.6447 -0.0562
 8025TIP3    H245567   6.247   1.409   5.226 -1.0715 -0.6248 -0.6022
 8026TIP3   OH245568   0.253   4.644   5.687  0.5480  0.0361  0.5991
 8026TIP3    H145569   0.320   4.680   5.629  1.6801 -0.8344  1.3198
 8026TIP3    H245570   0.269   4.685   5.772  0.4812 -0.5329  0.8927
 8027TIP3   OH245571   2.436   2.692   6.372 -0.3329  0.4374  0.6964
 8027TIP3    H145572   2.460   2.783   6.358  0.2326  0.0358 -1.3161
 8027TIP3    H245573   2.515   2.652   6.410  0.6695  0.1042 -1.6125
 8028TIP3   OH245574   5.151   0.279   0.151  0.2741 -0.5581 -0.1282
 8028TIP3    H145575   5.106   0.354   0.112  0.3571 -1.7433 -2.7900
 8028TIP3    H245576   5.175   0.225   0.075  0.8189 -2.9247  1.6273
 8029TIP3   OH245577   1.662   6.165   6.527  0.3307 -1.0367  0.2755
 8029TIP3    H145578   1.628   6.238   6.475  4.1567 -0.0763 -1.2431
 8029TIP3    H245579   1.612   6.167   6.608 -0.1056  2.9978  0.0786
 8030TIP3   OH245580   2.718   1.932   3.375 -0.0164 -0.5407  0.4708
 8030TIP3    H145581   2.763   1.952   3.293  0.2900  1.4246  1.0735
 8030TIP3    H245582   2.643   1.880   3.348  1.0699 -1.4904 -0.8502
 8031TIP3   OH245583   3.676   4.418  13.927 -0.2506  0.2104 -0.2742
 8031TIP3    H145584   3.699   4.326  13.936 -2.3896 -0.4160 -0.6987
 8031TIP3    H245585   3.591   4.427  13.969  0.1434  2.1412  0.2518
 8032TIP3   OH245586   0.551   4.249  10.270 -0.0694 -0.7990  0.3562
 8032TIP3    H145587   0.625   4.223  10.324  2.4583  1.2793 -1.8860
 8032TIP3    H245588   0.493   4.172  10.271  1.9423 -2.4179  2.3841
 8033TIP3   OH245589   1.122   2.783   4.626 -0.4006 -0.0116 -0.1144
 8033TIP3    H145590   1.201   2.745   4.664  0.4092  2.0341  0.4015
 8033TIP3    H245591   1.054   2.769   4.692 -0.9970 -3.2209 -1.2215
 8034TIP3   OH245592   5.984   3.482  15.053  0.3561 -0.0863  0.1654
 8034TIP3    H145593   6.027   3.435  14.982  0.5972  1.6307 -0.8911
 8034TIP3    H245594   5.894   3.452  15.051  0.8034 -1.5096  0.4470
 8035TIP3   OH245595   2.665   0.707   3.098  0.0844 -0.0870  0.5410
 8035TIP3    H145596   2.659   0.802   3.084  1.3707 -0.0553  0.0553
 8035TIP3    H245597   2.604   0.669   3.035 -0.2552  0.3964  0.5700
 8036TIP3   OH245598   1.082   3.820   4.180  0.0371 -0.7574  0.1842
 8036TIP3    H145599   1.005   3.867   4.149 -0.5077 -1.4145  0.5296
 8036TIP3    H245600   1.067   3.806   4.273  0.6018 -0.8421  0.2707
 8037TIP3   OH245601   1.184   2.484  16.411  0.1133  0.5933  0.4697
 8037TIP3    H145602   1.258   2.500  16.470 -1.3162  0.4948  2.3942
 8037TIP3    H245603   1.115   2.452  16.469 -1.2682  0.1438 -1.3549
 8038TIP3   OH245604   5.211   2.418  11.693  0.3852  0.2496  0.9169
 8038TIP3    H145605   5.268   2.494  11.702  0.0497  0.5549  0.5352
 8038TIP3    H245606   5.124   2.450  11.718  0.0633  0.2518 -0.1354
 8039TIP3   OH245607   0.136   4.989  16.008  0.3843 -0.8445  0.5862
 8039TIP3    H145608   0.174   5.047  16.073  2.3437 -2.4473  0.9658
 8039TIP3    H245609   0.205   4.978  15.942 -0.4357 -1.6636 -0.1668
 8040TIP3   OH245610   4.351   1.681   3.167 -0.3232  0.2995  0.0694
 8040TIP3    H145611   4.279   1.737   3.139  0.2169  0.8936 -0.1749
 8040TIP3    H245612   4.399   1.662   3.086 -0.4039 -0.3878  0.1750
 8041TIP3   OH245613   4.634   6.113  16.389 -0.1010 -0.2299 -0.1702
 8041TIP3    H145614   4.703   6.153  16.337 -1.2662  2.0266 -0.1129
 8041TIP3    H245615   4.604   6.038  16.337  0.6192  0.3098 -1.3998
 8042TIP3   OH245616   2.434   4.279  11.929  0.0884  0.2942 -0.7238
 8042TIP3    H145617   2.496   4.352  11.924  1.1698 -0.5656 -0.3127
 8042TIP3    H245618   2.355   4.317  11.969 -0.0888  1.6659 -2.2814
 8043TIP3   OH245619   4.453   6.824   3.347  0.1783 -0.3620  0.1079
 8043TIP3    H145620   4.514   6.759   3.382 -0.8650 -0.6055  1.5682
 8043TIP3    H245621   4.504   6.905   3.342  1.0609 -0.9235 -0.2662
 8044TIP3   OH245622   1.286   0.743   0.683 -0.4823  0.0704 -0.0666
 8044TIP3    H145623   1.264   0.673   0.744 -1.2145 -1.2508 -1.7861
 8044TIP3    H245624   1.376   0.724   0.656 -0.6722 -0.2083 -0.5134
 8045TIP3   OH245625   6.503   4.598   5.482 -0.4544 -0.2500  0.3861
 8045TIP3    H145626   6.528   4.507   5.466 -0.8635 -0.3366  0.2235
 8045TIP3    H245627   6.407   4.597   5.478 -0.6701 -0.3869  3.2802
 8046TIP3   OH245628   5.155   6.227  11.728  0.0674  0.3458 -0.2904
 8046TIP3    H145629   5.079   6.285  11.735  0.1766  0.3887  0.6183
 8046TIP3    H245630   5.183   6.236  11.637  0.4234  2.1668 -0.0389
 8047TIP3   OH245631   4.350   3.911  13.726 -0.0539 -0.1312  0.2300
 8047TIP3    H145632   4.392   3.925  13.641  0.5629  0.0080  0.5502
 8047TIP3    H245633   4.276   3.972  13.726 -1.8380 -2.1205 -1.3538
 8048TIP3   OH245634   2.813   4.623  11.894  0.6210  0.5552 -0.3715
 8048TIP3    H145635   2.746   4.691  11.904 -0.6165 -0.7781  0.8448
 8048TIP3    H245636   2.841   4.604  11.984  0.1891 -1.2555 -0.5902
 8049TIP3   OH245637   3.776   1.910   4.790  0.0322 -0.3087  0.1958
 8049TIP3    H145638   3.747   1.942   4.705 -0.0421  1.1624  0.7453
 8049TIP3    H245639   3.789   1.989   4.842 -0.5663 -1.1993  1.7662
 8050TIP3   OH245640   2.244   3.631  16.737 -0.5467  0.2598 -0.9411
 8050TIP3    H145641   2.302   3.561  16.767  0.6862  1.5545 -0.1991
 8050TIP3    H245642   2.162   3.587  16.718 -0.3691 -1.1348  1.2142
 8051TIP3   OH245643   3.654   3.695   0.171  0.6635  0.0575  0.3787
 8051TIP3    H145644   3.620   3.624   0.117  0.8348  0.7537 -0.6582
 8051TIP3    H245645   3.586   3.708   0.238  0.4464 -0.7923  0.3373
 8052TIP3   OH245646   4.467   4.292  11.453  0.3340  0.3713  0.2589
 8052TIP3    H145647   4.559   4.283  11.480  0.5526  0.5987 -0.3798
 8052TIP3    H245648   4.467   4.371  11.398  0.1403 -0.7262 -1.3699
 8053TIP3   OH245649   0.587   4.116  12.325 -0.3613 -0.1613 -0.5061
 8053TIP3    H145650   0.638   4.186  12.283 -1.8693  1.0091 -0.4728
 8053TIP3    H245651   0.496   4.141  12.311 -0.9262 -1.1036  1.2172
 8054TIP3   OH245652   5.799   1.443  14.564 -0.0266 -0.0204 -0.3770
 8054TIP3    H145653   5.856   1.420  14.637  0.4913  2.1504 -0.0373
 8054TIP3    H245654   5.715   1.466  14.604 -0.0751  0.1295 -0.5583
 8055TIP3   OH245655   1.467   5.715  16.986  0.0951 -0.2834  0.2531
 8055TIP3    H145656   1.560   5.704  16.963  0.2156 -0.0407  0.6353
 8055TIP3    H245657   1.438   5.791  16.935 -0.2910 -1.2529 -1.0408
 8056TIP3   OH245658   1.320   4.869   2.467  0.1152 -0.1980  0.3793
 8056TIP3    H145659   1.258   4.796   2.481 -0.9423  0.5135 -0.4610
 8056TIP3    H245660   1.275   4.945   2.504  0.3785  0.3759 -0.4634
 8057TIP3   OH245661   4.871   2.467  12.786  0.3746 -0.0393 -0.1627
 8057TIP3    H145662   4.816   2.545  12.777 -0.0889 -0.4456 -0.9261
 8057TIP3    H245663   4.866   2.446  12.879  0.5932  0.9043  0.0714
 8058TIP3   OH245664   5.144   6.038   0.469  0.3437 -0.4300  0.3052
 8058TIP3    H145665   5.096   6.068   0.546  0.9989 -0.4509  0.7260
 8058TIP3    H245666   5.166   6.118   0.421  2.7168 -0.0973  1.7906
 8059TIP3   OH245667   4.850   5.767   1.626 -0.2216  0.9902  0.6808
 8059TIP3    H145668   4.852   5.859   1.652  0.4344  0.5623  2.3190
 8059TIP3    H245669   4.855   5.719   1.709 -0.6084 -0.5278 -0.1318
 8060TIP3   OH245670   6.738   2.306   3.865 -0.0060  0.2470 -0.0957
 8060TIP3    H145671   6.730   2.325   3.771  1.0711 -2.1778 -0.7518
 8060TIP3    H245672   6.805   2.367   3.896 -0.2089  0.9304 -0.9340
 8061TIP3   OH245673   0.828   2.312   0.346  0.5868  0.3565 -0.1854
 8061TIP3    H145674   0.840   2.223   0.314  0.1365 -0.7917  2.5665
 8061TIP3    H245675   0.756   2.347   0.293  0.1703 -1.2236 -0.7326
 8062TIP3   OH245676   1.736   6.513  16.321  0.1205  0.3825 -0.0819
 8062TIP3    H145677   1.800   6.486  16.256 -0.6123  1.1061 -1.1546
 8062TIP3    H245678   1.660   6.456  16.305  0.7013 -0.9580  1.6437
 8063TIP3   OH245679   3.953   1.164  11.137 -0.0886 -0.2013  0.7590
 8063TIP3    H145680   3.882   1.225  11.161  0.6194  1.6304 -1.4716
 8063TIP3    H245681   4.031   1.219  11.133  0.5698 -1.2126 -1.4313
 8064TIP3   OH245682   2.333   3.613   5.454  0.1985  0.7459  0.3937
 8064TIP3    H145683   2.334   3.524   5.420  0.0722  1.3772 -1.4009
 8064TIP3    H245684   2.241   3.638   5.453  0.1737  0.7443  1.3886
 8065TIP3   OH245685   1.902   2.650  12.083 -0.5722 -0.0758 -0.1432
 8065TIP3    H145686   1.966   2.697  12.137 -0.6363 -1.1560  0.9222
 8065TIP3    H245687   1.887   2.568  12.130 -1.3804 -0.6314 -1.3228
 8066TIP3   OH245688   1.118   3.946   2.744 -0.2478  0.2833  0.2203
 8066TIP3    H145689   1.199   3.981   2.781 -0.2010  2.6756 -1.8788
 8066TIP3    H245690   1.068   3.914   2.820  1.9971  0.0827  1.6951
 8067TIP3   OH245691   2.463   5.112  14.050 -0.5186  0.8717  0.3675
 8067TIP3    H145692   2.547   5.070  14.070 -0.9895  0.7630  2.3471
 8067TIP3    H245693   2.477   5.204  14.070 -0.1972  1.3101 -1.6610
 8068TIP3   OH245694   4.219   2.887   5.635  0.0667  0.1881 -0.0445
 8068TIP3    H145695   4.213   2.797   5.668 -1.0344 -0.0207 -0.7474
 8068TIP3    H245696   4.304   2.891   5.592  1.2694  0.2823  2.1814
 8069TIP3   OH245697   4.716   0.724  15.494  0.0719 -0.1079  0.2494
 8069TIP3    H145698   4.782   0.787  15.466 -2.7756  2.1786 -1.9042
 8069TIP3    H245699   4.694   0.750  15.584  0.0409  0.9781 -0.0719
 8070TIP3   OH245700   5.696   1.317   2.852 -0.1385 -0.4751 -0.5626
 8070TIP3    H145701   5.697   1.221   2.858 -0.2372 -0.3915  1.4363
 8070TIP3    H245702   5.643   1.335   2.774 -0.0044 -2.0358 -1.0579
 8071TIP3   OH245703   5.035   2.203   1.406 -0.6722 -0.3640 -0.2684
 8071TIP3    H145704   5.091   2.125   1.405 -0.2934 -0.1137  0.5402
 8071TIP3    H245705   5.087   2.269   1.453 -0.5469  0.7136 -1.8245
 8072TIP3   OH245706   0.607   3.473  15.541  0.4151  0.0380  0.0262
 8072TIP3    H145707   0.675   3.526  15.500  0.7482 -0.9548 -0.7542
 8072TIP3    H245708   0.641   3.383  15.538  0.1798 -0.1569  1.9722
 8073TIP3   OH245709   1.074   3.469  13.834 -0.2689  0.0510 -0.0880
 8073TIP3    H145710   1.130   3.537  13.796 -0.6696  0.8899  0.7999
 8073TIP3    H245711   1.125   3.389  13.825  1.9374  1.0583  2.3491
 8074TIP3   OH245712   1.448   1.897   1.023  0.0778 -0.0118 -0.6526
 8074TIP3    H145713   1.371   1.895   0.966  0.3923  1.0325 -1.1524
 8074TIP3    H245714   1.424   1.843   1.098 -1.0287  0.0505 -0.9402
 8075TIP3   OH245715   3.821   6.473  10.807  0.0725 -0.4364 -0.3546
 8075TIP3    H145716   3.736   6.442  10.775 -0.7534  0.0265  1.2916
 8075TIP3    H245717   3.841   6.548  10.751 -1.2249  0.2249  0.0336
 8076TIP3   OH245718   5.254   1.421  16.429 -0.0820  0.0028 -0.0115
 8076TIP3    H145719   5.182   1.484  16.428  0.3954  0.5836  0.9582
 8076TIP3    H245720   5.333   1.475  16.428  0.3508 -0.6192 -0.6773
 8077TIP3   OH245721   0.868   0.565  14.303  0.5766  0.1659 -0.4396
 8077TIP3    H145722   0.824   0.486  14.332  0.7532 -0.2457 -1.2878
 8077TIP3    H245723   0.840   0.632  14.365  1.9035 -0.9415  1.4831
 8078TIP3   OH245724   6.174   2.901  14.109 -0.3541  0.2393  0.8572
 8078TIP3    H145725   6.165   2.830  14.046  1.0134  0.5046  0.3341
 8078TIP3    H245726   6.242   2.957  14.072  1.4585 -0.2895  3.1784
 8079TIP3   OH245727   2.906   1.981   3.167  0.1480  0.0682 -0.4622
 8079TIP3    H145728   2.898   1.891   3.136 -0.6779 -0.0022 -0.0654
 8079TIP3    H245729   2.993   1.985   3.207  0.3690 -0.4200 -0.8900
 8080TIP3   OH245730   1.641   0.248  17.087 -0.4320  0.5976 -0.7069
 8080TIP3    H145731   1.650   0.183  17.156 -1.7229  0.7132 -0.3943
 8080TIP3    H245732   1.672   0.205  17.007  0.4401  0.2351 -0.1781
 8081TIP3   OH245733   0.601   3.241   1.641 -0.1201  0.2655  0.3917
 8081TIP3    H145734   0.521   3.224   1.591 -0.4463  1.7163  0.3963
 8081TIP3    H245735   0.625   3.331   1.620  1.6780 -0.2225  0.1923
 8082TIP3   OH245736   1.859   3.967   3.429  0.1171 -0.1059  0.4577
 8082TIP3    H145737   1.888   3.926   3.348  0.9685  1.1736  0.0742
 8082TIP3    H245738   1.858   3.896   3.493  1.6737 -0.7172 -0.1462
 8083TIP3   OH245739   2.279   6.808   5.425  1.0774  0.5418 -0.0310
 8083TIP3    H145740   2.342   6.763   5.482 -1.3664 -0.9865  1.6432
 8083TIP3    H245741   2.199   6.756   5.433 -0.6469  2.8230 -1.4600
 8084TIP3   OH245742   6.231   6.821  11.395 -0.0966 -0.6060  0.6224
 8084TIP3    H145743   6.220   6.796  11.486 -1.7102 -0.5842  0.4641
 8084TIP3    H245744   6.145   6.806  11.355  0.1315  0.8564 -0.5237
 8085TIP3   OH245745   2.619   4.624  14.849 -0.5776 -0.1799 -0.4929
 8085TIP3    H145746   2.638   4.716  14.835  0.8699  0.0698  2.4483
 8085TIP3    H245747   2.525   4.616  14.833 -0.7660  1.8266 -0.6259
 8086TIP3   OH245748   5.246   0.694   3.100 -0.2630  0.6395 -0.3942
 8086TIP3    H145749   5.285   0.637   3.035 -1.8609 -1.5839  0.4702
 8086TIP3    H245750   5.168   0.730   3.057  0.0347  1.1654 -0.5050
 8087TIP3   OH245751   6.108   4.278   4.711 -0.5505  0.1255 -0.6913
 8087TIP3    H145752   6.141   4.236   4.791  2.9565  1.5694 -1.1831
 8087TIP3    H245753   6.131   4.216   4.642  0.3031  0.6992 -0.9401
 8088TIP3   OH245754   3.241   2.172  12.252 -0.0436  0.8164 -0.0687
 8088TIP3    H145755   3.257   2.243  12.190 -1.3280  1.1423 -0.0553
 8088TIP3    H245756   3.284   2.201  12.333  0.1381  1.1950 -0.2986
 8089TIP3   OH245757   5.822   0.363  14.450 -0.3500  0.2153  0.3183
 8089TIP3    H145758   5.904   0.314  14.444 -0.9497 -0.8323  0.5025
 8089TIP3    H245759   5.779   0.329  14.529 -1.1533  0.4607 -0.0042
 8090TIP3   OH245760   2.119   6.198  10.955 -0.1893 -0.2663  0.4795
 8090TIP3    H145761   2.199   6.183  10.905  0.2561 -0.3344  1.1974
 8090TIP3    H245762   2.098   6.290  10.940  0.4911 -0.0246  0.9349
 8091TIP3   OH245763   1.235   4.638  16.967  0.5588  0.8753 -0.4905
 8091TIP3    H145764   1.251   4.544  16.956  1.3327  0.8913  0.3579
 8091TIP3    H245765   1.191   4.665  16.887  0.2267 -0.2392 -0.6898
 8092TIP3   OH245766   3.536   1.425   2.317 -0.2506  0.2751  0.0325
 8092TIP3    H145767   3.529   1.461   2.228  1.2601  0.4895 -0.0153
 8092TIP3    H245768   3.615   1.465   2.353 -0.7024 -0.0244  1.3887
 8093TIP3   OH245769   2.080   2.735  11.638  0.1263  0.4632 -0.2380
 8093TIP3    H145770   2.046   2.762  11.723 -1.0323 -0.4794 -0.3866
 8093TIP3    H245771   2.175   2.747  11.645  0.2381 -1.2547  1.8080
 8094TIP3   OH245772   0.830   0.664   0.925  0.2682  0.0111  0.0847
 8094TIP3    H145773   0.904   0.604   0.916 -0.5836 -1.2098  0.7668
 8094TIP3    H245774   0.774   0.645   0.850  0.7226  1.0563 -0.5274
 8095TIP3   OH245775   3.532   1.565   5.558 -0.0007 -0.1271  0.3685
 8095TIP3    H145776   3.572   1.650   5.576 -1.6755  0.3243  2.3183
 8095TIP3    H245777   3.524   1.523   5.644 -1.4785 -1.1695 -0.2339
 8096TIP3   OH245778   0.492   6.698  15.372 -0.0700  0.1276  0.3928
 8096TIP3    H145779   0.552   6.707  15.446  2.0930 -0.2301 -1.1953
 8096TIP3    H245780   0.509   6.610  15.338  1.4057  1.3364 -2.3659
 8097TIP3   OH245781   6.052   5.358  16.793 -0.4355  0.2449 -0.2924
 8097TIP3    H145782   5.975   5.310  16.762  0.0710 -1.3658  0.8420
 8097TIP3    H245783   6.123   5.328  16.736 -0.3232  0.4903 -0.2828
 8098TIP3   OH245784   3.157   6.472  12.863  0.0206  0.2886 -0.4818
 8098TIP3    H145785   3.167   6.421  12.943 -0.0013 -0.1617 -0.7615
 8098TIP3    H245786   3.123   6.557  12.892  1.2684  0.6072  0.1210
 8099TIP3   OH245787   5.023   4.069  13.511 -0.0852  0.1425 -1.0646
 8099TIP3    H145788   4.956   4.003  13.492  0.8020 -1.6321  1.4082
 8099TIP3    H245789   5.000   4.100  13.599  1.1500  1.0570 -1.0515
 8100TIP3   OH245790   5.853   5.520   3.374 -0.1149  0.0315 -0.0797
 8100TIP3    H145791   5.777   5.496   3.428 -0.1200 -1.4843 -0.6996
 8100TIP3    H245792   5.910   5.443   3.378  0.9002  0.7514 -0.4735
 8101TIP3   OH245793   1.167   0.790  15.269  0.3784  0.3652  0.0147
 8101TIP3    H145794   1.189   0.872  15.314 -1.3439  0.6428  0.4014
 8101TIP3    H245795   1.223   0.724  15.311  0.0860  0.9377  1.3486
 8102TIP3   OH245796   3.547   1.432   0.839 -0.7879 -0.1259  0.1429
 8102TIP3    H145797   3.598   1.501   0.797 -0.7339  0.7491  1.5775
 8102TIP3    H245798   3.609   1.360   0.849 -0.1532  0.4846  0.7504
 8103TIP3   OH245799   1.043   3.906   5.468 -0.1913 -0.4740 -0.4970
 8103TIP3    H145800   1.128   3.935   5.500 -0.8138  0.7980  0.0710
 8103TIP3    H245801   1.052   3.811   5.459  1.1271 -0.4197  0.0165
 8104TIP3   OH245802   5.985   2.476   1.793 -0.7983 -0.1523  0.7848
 8104TIP3    H145803   6.065   2.448   1.748 -0.3479  2.7878 -0.4750
 8104TIP3    H245804   6.002   2.567   1.818 -2.9843 -0.1155  2.3925
 8105TIP3   OH245805   4.942   2.648  16.573  0.3196  0.1976 -0.2396
 8105TIP3    H145806   4.874   2.581  16.567  0.6050 -0.0056 -1.7116
 8105TIP3    H245807   4.977   2.639  16.662  0.1962 -1.4596 -0.3135
 8106TIP3   OH245808   5.195   4.152  10.456  0.4417 -0.3201 -0.0507
 8106TIP3    H145809   5.241   4.169  10.538  2.1313  0.3601 -1.1071
 8106TIP3    H245810   5.102   4.152  10.481  0.8173  1.5184  1.5820
 8107TIP3   OH245811   6.012   3.057  12.991  0.1761  0.5475 -0.0573
 8107TIP3    H145812   6.096   3.017  12.967  0.2983  1.6607 -1.6443
 8107TIP3    H245813   5.949   2.985  12.981  0.8468 -0.1464  0.5637
 8108TIP3   OH245814   5.640   0.520   0.043  0.6914  0.2309 -0.0250
 8108TIP3    H145815   5.560   0.542   0.091  1.3627 -1.6998  2.1549
 8108TIP3    H245816   5.695   0.598   0.051 -0.6544  1.3413 -1.0057
 8109TIP3   OH245817   2.120   5.539  16.783 -0.4548  0.1624  0.3449
 8109TIP3    H145818   2.159   5.456  16.757 -0.3627 -0.3331  1.9682
 8109TIP3    H245819   2.046   5.515  16.838  0.0906  1.1465  1.5600
 8110TIP3   OH245820   6.717   2.735  11.104 -1.3190 -0.1111 -0.7291
 8110TIP3    H145821   6.750   2.706  11.189  2.1070  1.3143 -1.4051
 8110TIP3    H245822   6.714   2.656  11.050 -1.1579 -0.6210 -0.0029
 8111TIP3   OH245823   2.232   3.141   5.224 -0.4697 -0.1615  0.7744
 8111TIP3    H145824   2.243   3.080   5.297 -0.7903 -0.2890  0.7126
 8111TIP3    H245825   2.167   3.101   5.168  0.0068 -0.2130  0.2548
 8112TIP3   OH245826   6.408   4.648   0.164 -0.2900 -0.2284 -0.6812
 8112TIP3    H145827   6.317   4.640   0.136  0.0191 -1.4050 -1.4157
 8112TIP3    H245828   6.405   4.635   0.259 -0.8689 -0.3184 -0.7075
 8113TIP3   OH245829   0.528   0.768   2.294  0.1049  0.5085 -0.0980
 8113TIP3    H145830   0.598   0.705   2.279 -0.3874 -0.0982  0.1497
 8113TIP3    H245831   0.463   0.721   2.346 -1.4581  0.3866 -2.0168
 8114TIP3   OH245832   0.206   5.979   6.334 -0.4033  0.0026  0.8676
 8114TIP3    H145833   0.221   6.052   6.394 -0.7057 -0.0929  1.0671
 8114TIP3    H245834   0.146   5.921   6.382 -1.1641  0.2380  0.2282
 8115TIP3   OH245835   2.091   0.984   4.062  0.2524 -0.6361 -0.3977
 8115TIP3    H145836   2.113   0.980   4.155  1.3427 -1.3321 -0.6683
 8115TIP3    H245837   2.175   0.983   4.017 -0.2165  0.8383 -1.3806
 8116TIP3   OH245838   2.399   3.852   7.012 -0.4228 -0.0299 -0.1867
 8116TIP3    H145839   2.394   3.932   6.960  0.3428  0.1375 -0.0181
 8116TIP3    H245840   2.308   3.821   7.018 -0.7756  1.0168  0.0395
 8117TIP3   OH245841   1.145   4.676   0.329 -0.2501 -0.3398  0.1996
 8117TIP3    H145842   1.207   4.647   0.396 -0.4438 -1.7820 -0.2014
 8117TIP3    H245843   1.068   4.620   0.343 -0.3419 -0.5691 -1.1364
 8118TIP3   OH245844   5.497   4.771  15.990  0.1695  0.1713 -0.1944
 8118TIP3    H145845   5.459   4.754  15.904 -0.1089 -0.1610 -0.0073
 8118TIP3    H245846   5.542   4.855  15.980 -0.0528  0.2449 -0.6027
 8119TIP3   OH245847   2.459   0.845  15.011  0.1478 -0.3872  0.2426
 8119TIP3    H145848   2.370   0.815  14.993  0.7132 -1.0388 -1.7127
 8119TIP3    H245849   2.468   0.925  14.959  0.8289 -0.5490  0.1004
 8120TIP3   OH245850   2.590   6.456   0.793 -0.0797 -0.5612 -0.3278
 8120TIP3    H145851   2.628   6.543   0.808 -1.9645  0.2924 -0.2923
 8120TIP3    H245852   2.606   6.409   0.874  2.3418 -0.8436 -0.8787
 8121TIP3   OH245853   0.663   1.347   2.396  0.3123 -0.4538 -0.2420
 8121TIP3    H145854   0.576   1.310   2.410  0.0529  0.2861  0.1366
 8121TIP3    H245855   0.721   1.271   2.389 -0.1339 -0.9283  1.0102
 8122TIP3   OH245856   2.664   3.304   6.149  0.5720 -0.6065  0.2820
 8122TIP3    H145857   2.759   3.296   6.151  1.1533  3.6633 -0.6439
 8122TIP3    H245858   2.638   3.307   6.241  0.9713 -3.5543  0.5842
 8123TIP3   OH245859   0.802   6.379   4.344 -0.3302 -0.8985 -0.7195
 8123TIP3    H145860   0.846   6.463   4.330 -0.7801 -0.0655  2.1624
 8123TIP3    H245861   0.709   6.399   4.338 -0.4496 -1.0835  0.2534
 8124TIP3   OH245862   5.613   5.914  13.837 -0.5033  0.1851 -0.2204
 8124TIP3    H145863   5.689   5.867  13.872 -1.0859 -3.4618 -3.2520
 8124TIP3    H245864   5.538   5.860  13.862 -1.4650  0.6504 -1.9523
 8125TIP3   OH245865   5.249   6.130  15.996 -0.0219 -0.0201  0.2442
 8125TIP3    H145866   5.296   6.054  16.031  0.9678  0.7099  0.5552
 8125TIP3    H245867   5.195   6.094  15.926  0.1580 -1.0667  0.6182
 8126TIP3   OH245868   0.268   6.342  12.190  0.7354 -0.0918  0.0282
 8126TIP3    H145869   0.296   6.314  12.103  0.4864 -1.0261  0.2370
 8126TIP3    H245870   0.204   6.411  12.173  0.2201 -0.7030 -0.5517
 8127TIP3   OH245871   2.230   3.132  17.035 -0.2026 -0.0798 -0.2799
 8127TIP3    H145872   2.192   3.046  17.051 -1.2687  0.1850 -1.2365
 8127TIP3    H245873   2.165   3.194  17.067  0.3433  0.3861 -0.0367
 8128TIP3   OH245874   3.646   6.107  15.206 -0.0778 -0.7019 -0.4792
 8128TIP3    H145875   3.596   6.123  15.126  0.1004  0.3383 -0.3893
 8128TIP3    H245876   3.623   6.179  15.264  1.6678 -0.0680 -0.5169
 8129TIP3   OH245877   3.659   4.796   6.364  0.1303 -0.4728 -0.0015
 8129TIP3    H145878   3.593   4.754   6.420  1.4067  0.0935  1.9972
 8129TIP3    H245879   3.716   4.724   6.337  0.6591 -0.4666  1.0714
 8130TIP3   OH245880   4.823   2.660  15.763  0.1423 -0.7642 -0.3177
 8130TIP3    H145881   4.770   2.634  15.838  1.0486  1.1985  1.1027
 8130TIP3    H245882   4.900   2.602  15.767  1.0968  0.5280  1.4865
 8131TIP3   OH245883   6.389   1.855  12.847  0.2812 -0.4555  0.6457
 8131TIP3    H145884   6.465   1.892  12.801  0.6501 -0.9490  0.8506
 8131TIP3    H245885   6.426   1.789  12.906 -0.0527  0.9499  2.5215
 8132TIP3   OH245886   2.352   4.251   6.255  0.3434  0.0942 -0.1741
 8132TIP3    H145887   2.393   4.232   6.339 -0.6901 -2.4840 -0.1551
 8132TIP3    H245888   2.258   4.245   6.272  0.1121 -0.1019 -1.4364
 8133TIP3   OH245889   5.619   2.633   4.547  0.0108 -0.1759 -0.7085
 8133TIP3    H145890   5.560   2.587   4.488  1.3352 -2.1173 -0.6261
 8133TIP3    H245891   5.587   2.612   4.635  0.3664 -0.5798 -0.6757
 8134TIP3   OH245892   6.704   3.081  16.038 -0.3900  0.0412  0.2229
 8134TIP3    H145893   6.749   3.096  15.955 -0.1823 -1.6265 -0.0046
 8134TIP3    H245894   6.611   3.088  16.017 -0.3187  1.8048  0.3412
 8135TIP3   OH245895   5.450   6.451  13.016  0.3242  0.0673  0.2143
 8135TIP3    H145896   5.414   6.368  12.983  0.2644  0.3735 -0.5015
 8135TIP3    H245897   5.542   6.432  13.032  0.1491 -0.3470  0.7896
 8136TIP3   OH245898   2.315   2.985  11.142 -0.4832  0.5461 -0.1570
 8136TIP3    H145899   2.334   3.075  11.114  0.1906  0.3518 -0.3314
 8136TIP3    H245900   2.347   2.931  11.070 -2.1672  0.2223 -0.7156
 8137TIP3   OH245901   6.827   2.411  14.123 -0.0989  0.4477 -0.3377
 8137TIP3    H145902   6.817   2.429  14.029  0.0284 -1.5007 -0.7871
 8137TIP3    H245903   6.764   2.341  14.140 -0.8672  1.4733  1.3038
 8138TIP3   OH245904   0.177   2.328  16.276  0.4448 -0.0086  0.7530
 8138TIP3    H145905   0.131   2.341  16.193  1.5699  0.0620  0.1198
 8138TIP3    H245906   0.269   2.342  16.255  0.6487  1.3966  2.2931
 8139TIP3   OH245907   0.623   4.409  14.899  0.0575 -0.0411  0.2610
 8139TIP3    H145908   0.707   4.381  14.936 -0.1464 -0.6672  0.2616
 8139TIP3    H245909   0.620   4.367  14.813  1.0526  2.3073 -1.0297
 8140TIP3   OH245910   4.438   0.569  15.716 -0.3501  0.1036  0.0376
 8140TIP3    H145911   4.466   0.483  15.746 -0.3557  1.2061  3.7004
 8140TIP3    H245912   4.516   0.624  15.724 -1.1561  1.1396  1.1576
 8141TIP3   OH245913   2.126   5.572  10.908  0.0482  0.2294 -0.4332
 8141TIP3    H145914   2.116   5.519  10.829  0.1220  1.1070 -1.0426
 8141TIP3    H245915   2.132   5.662  10.876 -1.2738  0.7437  0.6411
 8142TIP3   OH245916   4.907   5.779  14.265  0.0073  0.0521 -0.5354
 8142TIP3    H145917   4.878   5.866  14.238  1.7141  0.7814 -0.1761
 8142TIP3    H245918   4.867   5.719  14.202 -2.2951  0.9174  0.0028
 8143TIP3   OH245919   2.757   2.960   5.261 -0.3896  0.1718 -0.1576
 8143TIP3    H145920   2.764   2.871   5.294 -0.4715  0.5211  0.8149
 8143TIP3    H245921   2.841   2.976   5.217  0.0809  0.0145  0.6702
 8144TIP3   OH245922   2.786   5.509   2.660 -0.3880 -0.0294 -0.2670
 8144TIP3    H145923   2.852   5.443   2.640  0.1739  0.4226  0.0438
 8144TIP3    H245924   2.723   5.463   2.715  0.4369 -0.1130  0.6491
 8145TIP3   OH245925   2.965   4.878   0.710 -0.0954 -0.1767  0.2097
 8145TIP3    H145926   2.970   4.906   0.801 -1.0727 -0.6705  0.4280
 8145TIP3    H245927   3.055   4.884   0.678  1.1949 -4.0458  2.4277
 8146TIP3   OH245928   2.890   0.043   5.163  0.2874  0.2086  0.5253
 8146TIP3    H145929   2.798   0.034   5.189  0.0134  1.7722  0.1959
 8146TIP3    H245930   2.893   0.008   5.074 -0.2456  1.1395  0.1217
 8147TIP3   OH245931   4.383   2.288  13.765  0.1399 -0.1793  0.6186
 8147TIP3    H145932   4.404   2.230  13.693  0.8561 -0.3826  0.9852
 8147TIP3    H245933   4.466   2.331  13.786 -0.0761 -0.0752  1.2762
 8148TIP3   OH245934   6.773   2.720  12.751  0.4130  0.1003  0.1558
 8148TIP3    H145935   6.751   2.647  12.694  1.9393  1.8209 -2.8970
 8148TIP3    H245936   6.737   2.797  12.707 -1.7838  1.2765  3.6023
 8149TIP3   OH245937   4.241   2.582   0.587  0.2847  0.4380 -0.0185
 8149TIP3    H145938   4.209   2.663   0.628 -0.1221  0.7930 -1.0202
 8149TIP3    H245939   4.295   2.541   0.655 -1.6557  0.2097  1.4516
 8150TIP3   OH245940   2.078   3.245   3.930 -0.2662 -0.7090  0.1761
 8150TIP3    H145941   2.173   3.250   3.940 -0.4587  0.9153  1.5941
 8150TIP3    H245942   2.063   3.252   3.836  0.9742 -0.0681  0.0053
 8151TIP3   OH245943   0.971   4.836  15.371  0.1953 -0.4866  0.1661
 8151TIP3    H145944   1.033   4.857  15.301  0.5293  0.1019  0.6391
 8151TIP3    H245945   0.984   4.742  15.386  1.4307 -0.2521  0.6909
 8152TIP3   OH245946   5.741   3.887   3.011 -0.6931 -0.1259  0.2117
 8152TIP3    H145947   5.808   3.818   3.008 -0.8980 -0.3463  0.5239
 8152TIP3    H245948   5.769   3.951   2.947 -0.7775 -0.7615 -0.4711
 8153TIP3   OH245949   2.928   4.617  13.579  0.1056  0.0955  0.7210
 8153TIP3    H145950   2.995   4.603  13.512 -1.9408  1.5605 -1.8737
 8153TIP3    H245951   2.867   4.545  13.567 -1.5700  1.6493 -0.8949
 8154TIP3   OH245952   1.390   5.888  11.104  0.2760  0.2985 -0.4341
 8154TIP3    H145953   1.413   5.889  11.011  2.0359 -0.1697 -0.0408
 8154TIP3    H245954   1.474   5.900  11.149 -0.3580 -0.8111  1.1092
 8155TIP3   OH245955   0.381   1.619  13.922 -0.5582 -0.6207  0.6902
 8155TIP3    H145956   0.309   1.569  13.960  0.3215 -1.3788  1.4058
 8155TIP3    H245957   0.406   1.681  13.991  0.5287 -1.4690  1.0842
 8156TIP3   OH245958   3.703   1.114  13.172 -0.5136  0.0162 -0.0357
 8156TIP3    H145959   3.685   1.202  13.205 -0.0003 -0.1740  0.7968
 8156TIP3    H245960   3.760   1.128  13.097  1.5101  0.3552  1.4549
 8157TIP3   OH245961   3.681   0.023  10.795  0.3106  0.2969 -0.5056
 8157TIP3    H145962   3.742   0.094  10.815  1.8082 -1.5760  2.2667
 8157TIP3    H245963   3.627   0.016  10.873 -0.0174 -1.3691 -0.8593
 8158TIP3   OH245964   5.352   6.259  12.832 -0.0574  0.6091  0.1766
 8158TIP3    H145965   5.375   6.173  12.867 -1.6233 -0.3032 -0.9020
 8158TIP3    H245966   5.346   6.246  12.738 -0.1285  1.9589 -0.0245
 8159TIP3   OH245967   2.125   0.856  11.403  0.3498 -0.5504 -0.4770
 8159TIP3    H145968   2.059   0.926  11.401 -1.4644 -2.0736  1.1119
 8159TIP3    H245969   2.203   0.895  11.365 -0.9033  1.9717 -0.6827
 8160TIP3   OH245970   1.181   4.980  14.880 -0.4119 -0.8537  0.5726
 8160TIP3    H145971   1.260   5.010  14.834  1.3203 -3.1948  1.8218
 8160TIP3    H245972   1.139   5.061  14.910 -1.0074  0.7788 -3.8034
 8161TIP3   OH245973   3.897   2.548   2.856 -0.1126  0.4919 -0.0701
 8161TIP3    H145974   3.809   2.552   2.819 -0.0933  2.0112 -0.0220
 8161TIP3    H245975   3.886   2.569   2.948  0.4056  2.0345 -0.3220
 8162TIP3   OH245976   5.561   1.574   3.918  0.0057 -0.2132  0.4001
 8162TIP3    H145977   5.541   1.580   4.012  0.6564  1.2589  0.4737
 8162TIP3    H245978   5.643   1.524   3.914  1.8066  2.4909  0.9402
 8163TIP3   OH245979   1.986   5.091  17.109  0.1631  0.3152  0.6933
 8163TIP3    H145980   2.042   5.109  17.033  1.4127 -0.4149  1.4029
 8163TIP3    H245981   1.910   5.045  17.073  1.8976 -2.3132  0.1077
 8164TIP3   OH245982   4.111   6.154   0.862 -0.2010  0.7745 -0.1376
 8164TIP3    H145983   4.135   6.246   0.854 -0.1532  0.7536 -0.2350
 8164TIP3    H245984   4.190   6.111   0.894 -0.6629  1.0031  1.3568
 8165TIP3   OH245985   4.533   5.794   3.121  0.0607 -0.4330  0.3546
 8165TIP3    H145986   4.532   5.715   3.066 -1.9843 -0.3301  0.1712
 8165TIP3    H245987   4.450   5.838   3.102  1.5555  2.3394 -0.3038
 8166TIP3   OH245988   4.929   6.211  14.970  0.2531 -0.8092 -0.2898
 8166TIP3    H145989   4.901   6.292  14.926 -0.2597  0.1419  1.7082
 8166TIP3    H245990   4.946   6.237  15.060  1.1086 -2.7468  0.1536
 8167TIP3   OH245991   5.998   0.657   5.223  0.2951  0.1281  0.7014
 8167TIP3    H145992   5.968   0.574   5.261 -0.4160 -0.2036 -0.5391
 8167TIP3    H245993   5.980   0.722   5.291 -1.1589 -0.4071  0.8655
 8168TIP3   OH245994   1.814   5.153  14.666  0.5492  0.7510 -0.1110
 8168TIP3    H145995   1.758   5.221  14.705  0.6346  1.0894 -0.5738
 8168TIP3    H245996   1.757   5.076  14.661 -0.0521  1.2389 -1.0627
 8169TIP3   OH245997   1.588   5.348  16.988 -0.3227 -0.3461 -0.5020
 8169TIP3    H145998   1.523   5.402  17.032 -0.6087  0.1565 -1.5086
 8169TIP3    H245999   1.569   5.258  17.016 -1.1767 -0.1546 -0.4646
 8170TIP3   OH246000   1.238   3.311   4.532 -0.0530 -0.1333  0.0041
 8170TIP3    H146001   1.176   3.281   4.466  1.1703 -0.7231 -0.9275
 8170TIP3    H246002   1.323   3.305   4.488  0.7167  0.1054  1.4240
 8171TIP3   OH246003   4.882   3.111  16.237 -0.1937  0.3019  0.0171
 8171TIP3    H146004   4.793   3.136  16.261 -0.2730 -0.1406  0.1989
 8171TIP3    H246005   4.904   3.040  16.298 -0.0162 -0.1441 -0.5611
 8172TIP3   OH246006   3.784   6.128  14.871  0.4649 -0.1002  0.2644
 8172TIP3    H146007   3.747   6.184  14.802  2.5431 -0.9334 -1.6607
 8172TIP3    H246008   3.712   6.113  14.931 -0.7992  2.6748 -0.4091
 8173TIP3   OH246009   5.909   0.515   3.462  0.0814  0.1201  0.3050
 8173TIP3    H146010   5.939   0.557   3.381 -0.5051 -1.7594 -0.9504
 8173TIP3    H246011   5.814   0.510   3.454 -0.0427  0.4111  1.3898
 8174TIP3   OH246012   4.241   0.746  14.628  0.5024 -0.2220  0.1853
 8174TIP3    H146013   4.333   0.740  14.605  0.7278  2.7062 -0.0912
 8174TIP3    H246014   4.232   0.832  14.669 -1.7691 -1.1866  1.9787
 8175TIP3   OH246015   3.528   6.515   4.381 -0.2220 -0.2094  0.1770
 8175TIP3    H146016   3.583   6.573   4.327  1.0172 -0.9844  0.5640
 8175TIP3    H246017   3.485   6.574   4.442 -0.0586  0.4627 -0.3401
 8176TIP3   OH246018   5.251   3.528   3.589 -0.0752 -0.0956 -0.2155
 8176TIP3    H146019   5.185   3.531   3.520 -0.7504 -2.3864  0.2523
 8176TIP3    H246020   5.227   3.599   3.648 -1.2848  0.0022 -0.7852
 8177TIP3   OH246021   6.044   0.012   1.076 -0.2446  0.3982  0.2281
 8177TIP3    H146022   6.131  -0.022   1.053  0.1073  1.7740 -0.6276
 8177TIP3    H246023   5.993   0.001   0.996 -0.7537 -0.0421  0.6094
 8178TIP3   OH246024   4.258   3.421  14.130  0.3014 -0.5549  0.0890
 8178TIP3    H146025   4.327   3.355  14.139  2.3413  1.5972  1.0984
 8178TIP3    H246026   4.207   3.412  14.211  2.1287  0.6904  1.4659
 8179TIP3   OH246027   1.220   6.094  15.911 -0.5315 -0.3816  0.1134
 8179TIP3    H146028   1.197   6.100  15.818  1.9074  1.4217 -0.4949
 8179TIP3    H246029   1.277   6.017  15.917  1.8793  1.2262 -0.6357
 8180TIP3   OH246030   2.971   3.018  16.141 -0.2487  0.7101 -0.3325
 8180TIP3    H146031   2.942   3.105  16.166  0.6479  1.4754 -1.8408
 8180TIP3    H246032   2.947   3.009  16.049 -0.0351 -0.5051 -0.2914
 8181TIP3   OH246033   3.478   1.912   0.884 -0.5063  0.2193  0.4716
 8181TIP3    H146034   3.441   1.826   0.864 -1.8175  0.9208 -0.3115
 8181TIP3    H246035   3.564   1.912   0.842 -0.8366 -0.4185 -0.2349
 8182TIP3   OH246036   0.698   1.261   3.911  0.1364 -0.2865  0.2564
 8182TIP3    H146037   0.787   1.285   3.883 -0.6783  0.9469 -1.4797
 8182TIP3    H246038   0.648   1.343   3.903 -1.8985 -1.6281 -2.1497
 8183TIP3   OH246039   3.290   6.802  13.023 -0.1115  0.1562 -0.0178
 8183TIP3    H146040   3.280   6.894  13.049 -0.3284  0.3241 -0.6703
 8183TIP3    H246041   3.203   6.764  13.038  0.0428 -0.0065  0.4808
 8184TIP3   OH246042   3.825   2.777  13.453  0.4734 -0.5021 -0.4093
 8184TIP3    H146043   3.912   2.768  13.416  0.9068 -0.2053  0.5025
 8184TIP3    H246044   3.821   2.710  13.521  0.2115 -0.1252 -0.0487
 8185TIP3   OH246045   3.023   5.487  14.481 -0.4751 -0.0859  0.1264
 8185TIP3    H146046   2.928   5.470  14.481 -0.2596 -1.4845 -1.0423
 8185TIP3    H246047   3.062   5.401  14.494  0.6565  0.5049  0.7496
 8186TIP3   OH246048   2.922   1.074   0.760  0.1601  0.2633  0.1491
 8186TIP3    H146049   2.936   1.153   0.812  0.0687  0.1580  0.3337
 8186TIP3    H246050   3.002   1.065   0.707  0.0521  0.6394 -0.0857
 8187TIP3   OH246051   3.836   2.886  14.476  0.3319 -0.0736  0.0924
 8187TIP3    H146052   3.892   2.962  14.460  0.7735 -0.5810 -0.8225
 8187TIP3    H246053   3.774   2.886  14.403 -1.9954  1.4459  1.9370
 8188TIP3   OH246054   4.432   0.962   3.301  0.3480  0.1378  0.3802
 8188TIP3    H146055   4.473   1.027   3.359 -0.3271 -0.1208  1.1682
 8188TIP3    H246056   4.359   0.927   3.352 -0.7994  0.4991 -0.9540
 8189TIP3   OH246057   0.408   1.854  15.823 -0.5202  0.1288 -0.1125
 8189TIP3    H146058   0.419   1.942  15.859 -1.6047  0.1139  0.2659
 8189TIP3    H246059   0.490   1.809  15.845 -0.2217  0.8432  0.2580
 8190TIP3   OH246060   6.653   6.812  14.199  0.4071  0.0760 -0.1025
 8190TIP3    H146061   6.745   6.795  14.217  0.4022  1.1509  1.1221
 8190TIP3    H246062   6.647   6.908  14.194 -0.5216 -0.0097 -0.8837
 8191TIP3   OH246063   5.225   3.444  14.822 -0.1195 -0.1574  0.0135
 8191TIP3    H146064   5.197   3.472  14.735 -1.9342  0.0085  0.6064
 8191TIP3    H246065   5.304   3.494  14.839  0.5485 -0.5596 -1.7310
 8192TIP3   OH246066   2.755   0.853  10.460  0.2466 -0.2214  0.3614
 8192TIP3    H146067   2.749   0.803  10.379  1.1422  0.3341 -0.0675
 8192TIP3    H246068   2.838   0.826  10.499 -0.0655 -0.3080  0.9722
 8193TIP3   OH246069   1.707   3.374   5.686  0.4585  0.0018  0.0920
 8193TIP3    H146070   1.794   3.337   5.701  1.0181  0.6316 -1.4239
 8193TIP3    H246071   1.709   3.458   5.731  0.5782 -0.0738  0.2276
 8194TIP3   OH246072   0.952   3.842   0.235  0.5524 -0.0409  0.3282
 8194TIP3    H146073   0.882   3.873   0.178 -1.4237 -1.9138  1.5827
 8194TIP3    H246074   0.972   3.754   0.203  0.0885 -0.7417  1.8853
 8195TIP3   OH246075   4.745   1.463   1.260 -0.0983  0.2468  0.1991
 8195TIP3    H146076   4.671   1.403   1.251  0.2817 -0.0838 -0.8099
 8195TIP3    H246077   4.813   1.425   1.204  1.0381  0.2361  1.5389
 8196TIP3   OH246078   4.818   1.918   4.383  0.3746 -0.6965  0.0166
 8196TIP3    H146079   4.826   1.873   4.300 -0.1047  0.2299 -0.5523
 8196TIP3    H246080   4.836   2.010   4.363 -0.3452 -0.3596  0.8100
 8197TIP3   OH246081   1.735   3.072   3.861 -0.2141 -0.0004 -0.3956
 8197TIP3    H146082   1.708   3.126   3.935  1.1928 -0.2488  0.3461
 8197TIP3    H246083   1.763   2.989   3.901  3.9555  1.0611 -0.6907
 8198TIP3   OH246084   2.220   1.084   3.307 -0.6447 -0.0386  0.4164
 8198TIP3    H146085   2.174   1.086   3.223 -0.3131 -1.6398  0.1683
 8198TIP3    H246086   2.151   1.093   3.372 -0.9244  1.0422  0.0014
 8199TIP3   OH246087   3.740   5.135  14.998 -0.0219  0.5429  0.1586
 8199TIP3    H146088   3.816   5.152  15.054 -1.2310  0.8696  1.7675
 8199TIP3    H246089   3.778   5.104  14.915  1.8361 -0.2470  1.2296
 8200TIP3   OH246090   6.458   2.072  14.796  0.1071 -0.2137 -0.7858
 8200TIP3    H146091   6.501   2.157  14.788 -0.5765  0.2930  0.5753
 8200TIP3    H246092   6.389   2.086  14.860  0.6624 -2.0597  0.2983
 8201TIP3   OH246093   4.227   2.130   4.179 -0.8051  0.2891  0.2370
 8201TIP3    H146094   4.254   2.183   4.254 -4.1857  0.2422  1.6422
 8201TIP3    H246095   4.175   2.189   4.125 -0.5738 -0.3834 -0.7478
 8202TIP3   OH246096   3.570   6.758  11.600 -0.2155  0.3958  0.2391
 8202TIP3    H146097   3.533   6.819  11.536 -0.8318  1.2320  1.3633
 8202TIP3    H246098   3.665   6.772  11.594 -0.3157  1.0173  0.0645
 8203TIP3   OH246099   1.541   3.687   5.132 -0.2062 -0.1144 -0.0920
 8203TIP3    H146100   1.618   3.645   5.094  1.1681  0.9558  1.3560
 8203TIP3    H246101   1.553   3.679   5.226 -0.6866  2.0653  0.2189
 8204TIP3   OH246102   2.769   0.983  14.328 -0.0350  0.4351  0.2482
 8204TIP3    H146103   2.757   0.985  14.233  1.8069  0.5912 -0.0055
 8204TIP3    H246104   2.684   1.010  14.363 -0.9311 -0.2151 -1.3263
 8205TIP3   OH246105   0.234   0.751   1.131  0.0386 -0.5531 -0.1963
 8205TIP3    H146106   0.187   0.799   1.199 -0.0841 -1.2323  0.2078
 8205TIP3    H246107   0.202   0.788   1.049 -0.2294 -0.1104  0.1042
 8206TIP3   OH246108   0.934   4.502   3.963 -0.3638  0.0221 -0.2478
 8206TIP3    H146109   0.875   4.489   3.889 -0.1285 -0.0445 -0.4278
 8206TIP3    H246110   0.911   4.589   3.997 -2.1130 -0.9178  1.1240
 8207TIP3   OH246111   3.731   6.684   0.246 -0.9198 -0.2228  0.5200
 8207TIP3    H146112   3.751   6.592   0.229  1.3153  0.2077  0.5482
 8207TIP3    H246113   3.673   6.709   0.174  1.8565 -0.5892 -2.0198
 8208TIP3   OH246114   4.332   4.786   6.666 -0.5367 -0.0669 -0.2029
 8208TIP3    H146115   4.409   4.794   6.610 -0.7570  1.3503 -0.3343
 8208TIP3    H246116   4.269   4.848   6.629 -1.4664 -0.6592  0.3550
 8209TIP3   OH246117   0.942   4.993   0.904 -0.3332  0.2507 -0.4625
 8209TIP3    H146118   0.877   5.049   0.946 -0.9229 -0.2165 -0.7276
 8209TIP3    H246119   0.893   4.948   0.834 -0.2626 -1.7410  0.6967
 8210TIP3   OH246120   5.521   3.689   2.648 -0.2684 -0.3262  0.5380
 8210TIP3    H146121   5.573   3.618   2.611 -1.4689 -0.4617 -0.9587
 8210TIP3    H246122   5.462   3.646   2.710  0.1936 -0.3852  0.9490
 8211TIP3   OH246123   2.581   0.449  14.527 -0.1990 -0.2381 -0.0139
 8211TIP3    H146124   2.665   0.408  14.546 -0.0304 -0.1519 -0.5568
 8211TIP3    H246125   2.575   0.449  14.431 -0.2658  0.8514 -0.0255
 8212TIP3   OH246126   6.174   0.778   0.757 -0.2316 -0.4773  0.1665
 8212TIP3    H146127   6.264   0.797   0.785 -0.8093  1.1003  1.0158
 8212TIP3    H246128   6.183   0.752   0.665  0.8791  1.8646 -0.4567
 8213TIP3   OH246129   3.892   1.600   2.833 -0.1958 -0.0321  0.4004
 8213TIP3    H146130   3.853   1.514   2.845  1.5029 -0.9713 -0.5335
 8213TIP3    H246131   3.940   1.616   2.915  0.0294 -0.2672  0.3146
 8214TIP3   OH246132   0.947   4.816  14.769  0.0736 -0.0374  0.4010
 8214TIP3    H146133   0.977   4.764  14.695 -0.0442  1.5112 -0.8014
 8214TIP3    H246134   1.021   4.874  14.789  0.3513 -0.8787  1.9653
 8215TIP3   OH246135   1.535   1.921  16.756 -0.0619  0.3632 -0.3501
 8215TIP3    H146136   1.491   2.005  16.743  0.7951  0.9853  0.6392
 8215TIP3    H246137   1.568   1.924  16.846 -0.3303 -1.1889 -0.1685
 8216TIP3   OH246138   1.282   5.232  12.973  0.2704  0.0291 -0.0026
 8216TIP3    H146139   1.296   5.220  13.067 -0.7012  0.5231  0.2129
 8216TIP3    H246140   1.199   5.279  12.967  1.0821  1.4111 -1.0300
 8217TIP3   OH246141   2.251   6.669  13.716 -0.5881  0.4295  0.1415
 8217TIP3    H146142   2.218   6.661  13.806  0.7329  0.3279  0.6537
 8217TIP3    H246143   2.178   6.642  13.661 -0.8272 -1.4240  1.2647
 8218TIP3   OH246144   1.812   1.215   6.370 -0.2062  0.2902  0.5851
 8218TIP3    H146145   1.761   1.183   6.445 -0.2371 -0.0505  0.4225
 8218TIP3    H246146   1.784   1.306   6.359 -1.8153 -0.2799 -0.3639
 8219TIP3   OH246147   5.356   2.060  14.405  0.4618  0.3281 -0.1915
 8219TIP3    H146148   5.376   1.967  14.400  0.1632  0.3271 -2.9661
 8219TIP3    H246149   5.440   2.102  14.427  0.9576 -0.4830 -0.5026
 8220TIP3   OH246150   1.272   1.568  16.055  0.1796  0.3553  0.5506
 8220TIP3    H146151   1.198   1.601  16.106 -0.0419  2.3587 -0.9211
 8220TIP3    H246152   1.244   1.481  16.026 -0.8274  0.3260  1.5404
 8221TIP3   OH246153   1.215   5.036  15.535  0.5080  0.6798 -0.3077
 8221TIP3    H146154   1.249   4.953  15.570 -2.3650 -1.5497 -2.3757
 8221TIP3    H246155   1.267   5.103  15.580  0.2901 -1.9724  4.6017
 8222TIP3   OH246156   2.991   0.247  15.873 -0.3145 -0.0613  0.3971
 8222TIP3    H146157   3.030   0.277  15.790 -0.7103 -2.6617 -0.8487
 8222TIP3    H246158   3.048   0.284  15.940  0.8765  0.9916 -1.1032
 8223TIP3   OH246159   3.333   5.654  15.922  0.5556 -0.5113 -0.5874
 8223TIP3    H146160   3.295   5.587  15.865  0.5788 -1.3255  0.3330
 8223TIP3    H246161   3.395   5.607  15.977  0.0062  0.1183  0.6058
 8224TIP3   OH246162   1.188   6.061  12.645  0.3600  0.5269  0.4485
 8224TIP3    H146163   1.204   6.084  12.554  2.1292  1.2086  0.8880
 8224TIP3    H246164   1.093   6.066  12.655  0.0888 -0.0482 -1.4607
 8225TIP3   OH246165   4.568   4.271  14.725  0.2053 -0.3110 -0.1254
 8225TIP3    H146166   4.564   4.366  14.715  2.2467  0.0162  1.4785
 8225TIP3    H246167   4.485   4.248  14.768  0.0087  0.8543  0.1574
 8226TIP3   OH246168   3.912   6.327   1.216  0.5965  0.0783 -0.3020
 8226TIP3    H146169   3.862   6.258   1.174  0.7426 -0.1318 -0.1313
 8226TIP3    H246170   3.975   6.355   1.149 -0.0269  0.6401 -0.6642
 8227TIP3   OH246171   1.689   3.637  10.451 -0.2828 -0.6540  0.1993
 8227TIP3    H146172   1.641   3.555  10.448  1.0373 -1.4249 -1.2757
 8227TIP3    H246173   1.766   3.618  10.505  0.7174 -0.8193 -1.2333
 8228TIP3   OH246174   6.575   4.866   5.491 -0.5603  0.0627  0.7887
 8228TIP3    H146175   6.555   4.773   5.475 -1.0387  0.3019 -0.1096
 8228TIP3    H246176   6.628   4.892   5.415  1.7646 -0.0981  2.2547
 8229TIP3   OH246177   6.130   4.365  12.522 -0.3658 -0.1601 -0.3835
 8229TIP3    H146178   6.203   4.387  12.579 -0.2203 -0.1192 -0.5866
 8229TIP3    H246179   6.076   4.444  12.520 -0.1786 -0.0398 -0.6001
 8230TIP3   OH246180   6.745   6.003   2.291 -0.4493 -0.5805 -0.2023
 8230TIP3    H146181   6.810   6.060   2.250 -0.2822 -2.1223 -2.2449
 8230TIP3    H246182   6.683   5.983   2.220 -1.4035 -1.6044  0.8821
 8231TIP3   OH246183   0.736   5.558  13.770  0.9575 -0.3950 -0.7712
 8231TIP3    H146184   0.700   5.487  13.823 -0.3108  0.9403  0.2472
 8231TIP3    H246185   0.669   5.574  13.703  1.6197 -0.6985 -1.5217
 8232TIP3   OH246186   4.121   4.794  16.567 -0.6048  0.2207  0.4897
 8232TIP3    H146187   4.201   4.777  16.516  0.9072  2.1722  2.0598
 8232TIP3    H246188   4.114   4.718  16.626 -0.0253 -0.0737  0.1899
 8233TIP3   OH246189   1.591   2.751   5.183 -0.2547  0.2662  0.0990
 8233TIP3    H146190   1.627   2.791   5.261 -0.2236 -1.0648  0.7971
 8233TIP3    H246191   1.559   2.824   5.130 -0.5582  1.1680  1.4909
 8234TIP3   OH246192   4.094   0.214  16.491  0.3896 -0.1417 -0.4638
 8234TIP3    H146193   4.068   0.156  16.420  0.6564 -1.0285  0.1530
 8234TIP3    H246194   4.151   0.161  16.546  1.6016  1.0716 -0.5184
 8235TIP3   OH246195   0.226   3.587  14.759  0.4200 -0.4024  0.0844
 8235TIP3    H146196   0.233   3.506  14.810  1.5244  0.4666  1.4062
 8235TIP3    H246197   0.316   3.621  14.757 -0.2234  1.4435  0.7074
 8236TIP3   OH246198   4.579   6.024   5.852 -0.3897  0.1821  0.3061
 8236TIP3    H146199   4.506   5.964   5.833  1.3205 -1.7212 -0.7740
 8236TIP3    H246200   4.612   5.995   5.937  1.0204 -1.1508 -0.6317
 8237TIP3   OH246201   2.350   1.897  15.108 -0.2653  0.5683 -0.4198
 8237TIP3    H146202   2.343   1.837  15.183 -0.0919  2.7548  1.4396
 8237TIP3    H246203   2.390   1.976  15.144  0.6056  1.4104 -3.0380
 8238TIP3   OH246204   6.064   5.156   9.897 -0.0026 -0.2422  0.1357
 8238TIP3    H146205   6.129   5.086   9.905  1.6104  1.0542 -0.9173
 8238TIP3    H246206   6.034   5.171   9.986  1.2195 -0.8323  0.6763
 8239TIP3   OH246207   6.553   1.615  14.307  0.7710 -0.3260 -0.0171
 8239TIP3    H146208   6.520   1.542  14.253  0.1747 -0.0469 -0.0476
 8239TIP3    H246209   6.488   1.684  14.293  1.4703  0.3003 -0.1925
 8240TIP3   OH246210   4.777   0.735  16.011 -0.0814 -0.2073  0.3202
 8240TIP3    H146211   4.853   0.682  15.987  1.4777  2.1203 -0.2535
 8240TIP3    H246212   4.786   0.750  16.105 -1.0411 -1.6414  0.6742
 8241TIP3   OH246213   4.106   1.113  12.876 -0.2262 -0.5237  0.4295
 8241TIP3    H146214   4.029   1.160  12.906  1.1211  0.6130  2.2780
 8241TIP3    H246215   4.095   1.024  12.910 -0.3375 -0.1394  1.4278
 8242TIP3   OH246216   4.567   3.242  12.402 -0.1727 -0.5818  0.1387
 8242TIP3    H146217   4.514   3.282  12.334  2.1512  0.2896 -1.2966
 8242TIP3    H246218   4.630   3.310  12.426  0.8642 -1.8187  1.1067
 8243TIP3   OH246219   0.477   3.009   4.505  0.3596 -0.0603  0.3753
 8243TIP3    H146220   0.555   3.022   4.451 -0.1470  0.1355 -0.3260
 8243TIP3    H246221   0.463   2.914   4.502 -0.7272  0.1000 -1.4101
 8244TIP3   OH246222   4.798   6.553  12.455  0.1964 -0.4709  0.1729
 8244TIP3    H146223   4.850   6.607  12.396  1.8148 -1.2774  0.7905
 8244TIP3    H246224   4.767   6.480  12.401  0.8635 -0.6998  0.0909
 8245TIP3   OH246225   5.356   2.856   1.814 -0.2900 -0.5074 -0.2882
 8245TIP3    H146226   5.348   2.889   1.725 -0.9486  0.0571 -0.0252
 8245TIP3    H246227   5.319   2.768   1.810  0.6967 -0.9081 -0.8079
 8246TIP3   OH246228   6.613   1.991   0.229  0.5387  0.5270  0.1948
 8246TIP3    H146229   6.557   1.975   0.305  0.4365  0.9782  0.2201
 8246TIP3    H246230   6.701   1.997   0.265  0.3737  1.8869  0.4613
 8247TIP3   OH246231   2.368   0.813   4.363 -0.0917  0.1023  0.2140
 8247TIP3    H146232   2.441   0.817   4.424  0.3559  1.3085 -0.3596
 8247TIP3    H246233   2.402   0.764   4.288 -0.4684 -0.9176  0.7064
 8248TIP3   OH246234   3.945   0.588   3.996  0.0641 -0.5133 -0.6163
 8248TIP3    H146235   3.913   0.505   3.961 -0.0531 -0.7180 -0.0345
 8248TIP3    H246236   3.867   0.641   4.008 -0.0285 -0.8473  0.3697
 8249TIP3   OH246237   2.508   6.710  14.003  0.4171 -0.2655  0.5240
 8249TIP3    H146238   2.486   6.706  14.097 -1.1600 -0.6991  0.1749
 8249TIP3    H246239   2.503   6.803  13.982 -1.7512 -0.3761  0.3605
 8250TIP3   OH246240   5.219   4.176   5.674 -0.4032  0.1865  0.0303
 8250TIP3    H146241   5.168   4.100   5.647  0.3652 -0.4918  0.4545
 8250TIP3    H246242   5.168   4.215   5.746 -1.0622  0.3899 -0.5402
 8251TIP3   OH246243   2.334   2.700  16.589 -0.0439  0.3982  0.2407
 8251TIP3    H146244   2.281   2.780  16.586 -0.9798 -0.1398  1.6325
 8251TIP3    H246245   2.300   2.647  16.516  1.6115  1.8301 -1.6760
 8252TIP3   OH246246   0.276   3.804   4.547 -0.5630 -0.0163  0.6302
 8252TIP3    H146247   0.264   3.898   4.539 -1.3177 -0.1821 -0.2203
 8252TIP3    H246248   0.283   3.789   4.642 -0.3228  0.8977  0.7657
 8253TIP3   OH246249   4.444   1.191  17.203  0.3244  0.0206  0.2404
 8253TIP3    H146250   4.488   1.111  17.174  1.8399 -0.2919  3.0608
 8253TIP3    H246251   4.469   1.257  17.139  1.6264 -1.0769 -0.4261
 8254TIP3   OH246252   1.623   5.648   2.327  0.4731 -0.4312  0.0151
 8254TIP3    H146253   1.693   5.698   2.370  0.1929 -1.3838  1.6664
 8254TIP3    H246254   1.667   5.570   2.293  0.3125 -0.7966  0.6310
 8255TIP3   OH246255   6.670   1.183  11.978 -0.6258  0.3434 -0.2135
 8255TIP3    H146256   6.698   1.270  11.951 -1.0559  0.2050 -1.1655
 8255TIP3    H246257   6.576   1.180  11.958 -0.9139  0.1265  1.0902
 8256TIP3   OH246258   4.049   3.507  11.862  0.2324  0.2367 -0.6723
 8256TIP3    H146259   4.033   3.425  11.814  0.7198 -0.7220  0.7375
 8256TIP3    H246260   3.980   3.510  11.928  0.3007  0.8992 -0.6244
 8257TIP3   OH246261   2.670   5.544  11.879  0.1744 -0.3551 -0.2416
 8257TIP3    H146262   2.735   5.610  11.900  0.7093 -0.9955  0.1696
 8257TIP3    H246263   2.720   5.464  11.864 -0.4981 -0.8166 -0.1115
 8258TIP3   OH246264   4.448   0.715   3.592  0.3895 -0.0922  0.0461
 8258TIP3    H146265   4.367   0.709   3.541  1.5879 -0.8291 -1.8877
 8258TIP3    H246266   4.483   0.626   3.590  3.3524  0.9340 -2.9372
 8259TIP3   OH246267   2.077   5.976   0.087  0.4276 -0.8128  0.4033
 8259TIP3    H146268   2.122   5.998   0.169  0.9275  3.0468 -0.6961
 8259TIP3    H246269   1.988   6.009   0.099  0.2522 -1.0261 -0.2813
 8260TIP3   OH246270   4.942   2.596   5.766 -0.4900 -0.1847 -0.3064
 8260TIP3    H146271   4.938   2.561   5.677  0.2544  0.0214 -0.4277
 8260TIP3    H246272   5.027   2.567   5.800 -0.2440  0.7427 -0.0981
 8261TIP3   OH246273   5.380   0.302  12.873  1.0288 -0.5557 -0.5952
 8261TIP3    H146274   5.434   0.223  12.887 -0.0338 -1.2431 -0.2551
 8261TIP3    H246275   5.296   0.268  12.844 -0.3736  0.2558  2.1606
 8262TIP3   OH246276   0.886   0.203  13.645 -0.0292 -0.0624 -0.2903
 8262TIP3    H146277   0.878   0.111  13.622 -0.5617  0.4111 -2.1430
 8262TIP3    H246278   0.969   0.231  13.606  0.8299 -0.0528  1.4475
 8263TIP3   OH246279   3.920   0.139  11.123  0.4805  0.3011 -0.0034
 8263TIP3    H146280   3.870   0.162  11.045 -0.7543 -0.5239  0.5118
 8263TIP3    H246281   3.879   0.058  11.155  0.7203  0.8012  1.6850
 8264TIP3   OH246282   4.278   5.555   3.309 -0.0070 -0.6043  0.0179
 8264TIP3    H146283   4.310   5.511   3.387  0.6972 -1.9124 -0.9713
 8264TIP3    H246284   4.248   5.485   3.252 -0.7449  0.3353 -0.7919
 8265TIP3   OH246285   6.552   6.337  11.917  0.0713 -0.2600 -0.7533
 8265TIP3    H146286   6.474   6.301  11.960  0.9413 -1.1480  0.1294
 8265TIP3    H246287   6.590   6.263  11.870  1.9426 -0.6195  1.1711
 8266TIP3   OH246288   2.241   4.726   2.945 -0.3625 -0.5005  0.8404
 8266TIP3    H146289   2.240   4.679   2.862  0.0071  0.9472 -0.0095
 8266TIP3    H246290   2.333   4.730   2.970 -0.3358  0.1829  0.6528
 8267TIP3   OH246291   2.202   0.347   0.308 -0.0403  0.3346  0.7641
 8267TIP3    H146292   2.184   0.253   0.317  2.2829 -0.1319  0.9986
 8267TIP3    H246293   2.137   0.377   0.244 -1.6876 -1.1273  1.6645
 8268TIP3   OH246294   4.619   5.156   1.706  0.4804 -0.1110  0.0529
 8268TIP3    H146295   4.604   5.138   1.613 -0.7610  0.6853  0.0906
 8268TIP3    H246296   4.686   5.225   1.706 -0.6762  1.0341 -0.3054
 8269TIP3   OH246297   1.857   1.616   6.081 -0.0056 -0.6029  0.1127
 8269TIP3    H146298   1.907   1.534   6.083  0.9066 -0.0521  1.6579
 8269TIP3    H246299   1.885   1.663   6.160 -0.5161  1.1962 -0.7290
 8270TIP3   OH246300   0.616   6.503  12.178  0.1068 -0.3679 -0.0709
 8270TIP3    H146301   0.676   6.438  12.141 -0.6282 -0.4028 -1.2513
 8270TIP3    H246302   0.578   6.459  12.255  1.2335 -0.5032  0.4374
 8271TIP3   OH246303   6.813   5.506   5.329  0.3274  0.5192  0.1520
 8271TIP3    H146304   6.746   5.498   5.397 -0.4486 -0.2025 -0.6733
 8271TIP3    H246305   6.842   5.597   5.334 -1.8969  1.3274 -0.5529
 8272TIP3   OH246306   2.540   4.944  15.530  0.2705  0.3970 -0.0600
 8272TIP3    H146307   2.466   4.891  15.560  0.2829  0.2952 -0.2088
 8272TIP3    H246308   2.571   4.989  15.609  0.0056  0.4960 -0.0107
 8273TIP3   OH246309   5.268   2.665  12.048 -0.6256 -0.3803  0.0565
 8273TIP3    H146310   5.310   2.705  11.972 -3.0217 -0.9432 -1.6704
 8273TIP3    H246311   5.319   2.697  12.123  1.5809  0.5257 -1.7114
 8274TIP3   OH246312   2.833   6.463   5.784 -0.7300 -0.2184 -0.9036
 8274TIP3    H146313   2.841   6.406   5.860 -3.0861  0.5591  0.0353
 8274TIP3    H246314   2.903   6.528   5.794 -0.4000 -0.7119  0.0694
 8275TIP3   OH246315   2.588   0.765  15.814 -0.2015 -0.2617 -0.3258
 8275TIP3    H146316   2.540   0.740  15.734 -0.2178 -1.5939  0.0663
 8275TIP3    H246317   2.674   0.723  15.804  0.6486  1.4803 -0.6757
 8276TIP3   OH246318   0.576   5.662   3.627 -0.2985 -0.0099 -0.1366
 8276TIP3    H146319   0.624   5.735   3.587 -0.7512 -0.0472 -0.7542
 8276TIP3    H246320   0.580   5.592   3.562 -2.3072  0.4200 -0.8000
 8277TIP3   OH246321   4.419   3.500  12.590 -0.1240 -0.2225 -0.7054
 8277TIP3    H146322   4.406   3.571  12.528 -2.2026 -1.9367 -2.3962
 8277TIP3    H246323   4.476   3.438  12.545  0.6791 -0.2118  0.2610
 8278TIP3   OH246324   1.068   3.677   5.220 -0.1839  0.4732  0.5163
 8278TIP3    H146325   1.050   3.670   5.313 -4.2003  1.5525  0.0183
 8278TIP3    H246326   1.023   3.602   5.181  0.9921  0.3293 -0.6620
 8279TIP3   OH246327   0.506   4.351  11.607  0.2398  0.4717  0.4271
 8279TIP3    H146328   0.541   4.263  11.620  2.6684  1.1846 -0.6839
 8279TIP3    H246329   0.546   4.403  11.677 -2.3362  0.4878  1.9999
 8280TIP3   OH246330   0.645   3.528   5.413 -0.0976 -0.0257  0.2350
 8280TIP3    H146331   0.628   3.588   5.486  1.4683 -0.2818  0.8518
 8280TIP3    H246332   0.740   3.517   5.412 -0.2953 -2.2993 -0.0115
 8281TIP3   OH246333   1.840   2.234   6.375 -0.1376 -0.3980 -0.4044
 8281TIP3    H146334   1.787   2.172   6.425  1.4084 -1.3214  0.1698
 8281TIP3    H246335   1.792   2.245   6.292 -2.1937  0.3556  0.8224
 8282TIP3   OH246336   0.221   6.816   5.714 -0.6554  0.1982 -0.3827
 8282TIP3    H146337   0.315   6.827   5.702 -0.3858 -1.7923 -0.5344
 8282TIP3    H246338   0.200   6.871   5.789  0.8276 -0.0155  0.2304
 8283TIP3   OH246339   4.555   4.503  12.618 -0.6350 -0.0299  0.2023
 8283TIP3    H146340   4.495   4.482  12.547 -0.7258  2.2253 -0.4655
 8283TIP3    H246341   4.626   4.551  12.576  0.5862 -0.8017  1.2975
 8284TIP3   OH246342   6.260   3.154   5.433  0.0504 -0.0132  0.3608
 8284TIP3    H146343   6.285   3.122   5.520 -0.9486 -0.5716  0.4457
 8284TIP3    H246344   6.253   3.075   5.379  0.9342  0.3460 -0.3228
 8285TIP3   OH246345   6.309   6.282  16.675 -0.0663  0.1083  0.4093
 8285TIP3    H146346   6.334   6.193  16.702  1.3500  0.2820 -0.2347
 8285TIP3    H246347   6.257   6.315  16.748  1.3427 -0.4158  1.7073
 8286TIP3   OH246348   0.917   2.847  13.265  0.2307 -0.1612 -0.5123
 8286TIP3    H146349   0.988   2.815  13.319 -0.1860  0.1139  0.2055
 8286TIP3    H246350   0.921   2.942  13.273 -0.3374 -0.1499 -0.3053
 8287TIP3   OH246351   5.645   0.594   3.066  0.8036  0.3367  0.0921
 8287TIP3    H146352   5.587   0.528   3.106 -1.2211  0.5637 -2.2519
 8287TIP3    H246353   5.718   0.543   3.030  0.7083 -0.2688  0.7277
 8288TIP3   OH246354   0.848   3.613   6.214  0.0938 -1.2472  0.1322
 8288TIP3    H146355   0.784   3.623   6.284 -0.6915  0.5099 -0.7541
 8288TIP3    H246356   0.811   3.544   6.158 -2.1062  0.9922 -1.3712
 8289TIP3   OH246357   4.524   0.473  13.208 -0.0059 -0.6866 -0.2134
 8289TIP3    H146358   4.535   0.380  13.189 -0.7680 -1.3532  2.2050
 8289TIP3    H246359   4.430   0.487  13.203 -0.0237 -0.3995  0.7888
 8290TIP3   OH246360   5.741   4.107   4.897 -0.6559 -0.4824  0.0779
 8290TIP3    H146361   5.724   4.184   4.843  2.6848  0.6004  0.3459
 8290TIP3    H246362   5.750   4.035   4.834 -3.0455 -0.5931 -0.2269
 8291TIP3   OH246363   0.628   1.738   0.422  0.5905  0.4050  0.4577
 8291TIP3    H146364   0.635   1.832   0.407 -0.4193  0.7198  1.7972
 8291TIP3    H246365   0.704   1.701   0.376 -0.4457  1.5623 -2.4098
 8292TIP3   OH246366   4.646   2.568   3.179 -0.5870  0.4305 -0.5704
 8292TIP3    H146367   4.714   2.537   3.239 -1.2629  0.7365  0.3783
 8292TIP3    H246368   4.689   2.636   3.128 -0.1163  0.4918 -0.1068
 8293TIP3   OH246369   0.742   6.788  16.404  0.1595  0.1558 -0.1752
 8293TIP3    H146370   0.700   6.797  16.318 -0.3432  0.3839  0.0909
 8293TIP3    H246371   0.739   6.876  16.442  1.2363  0.2670 -0.3056
 8294TIP3   OH246372   3.163   3.259   3.470  0.1107  0.5819  0.8316
 8294TIP3    H146373   3.121   3.306   3.542  0.4143  2.6096 -0.2468
 8294TIP3    H246374   3.095   3.250   3.404  0.8376  2.4358 -0.2575
 8295TIP3   OH246375   2.371   0.718  14.412 -0.2462 -0.4143 -0.8293
 8295TIP3    H146376   2.434   0.791  14.418 -1.7784  0.9549 -0.7546
 8295TIP3    H246377   2.352   0.695  14.503  1.6256 -2.2379 -0.8202
 8296TIP3   OH246378   0.830   5.696  15.336  0.5403 -0.5532 -0.0527
 8296TIP3    H146379   0.767   5.739  15.278 -0.2359 -1.5402  0.0269
 8296TIP3    H246380   0.913   5.740  15.319 -0.1116  0.5932 -0.3644
 8297TIP3   OH246381   6.580   5.306  16.322 -0.1505 -0.2030 -0.1718
 8297TIP3    H146382   6.609   5.270  16.239  1.4439 -1.9400  1.0560
 8297TIP3    H246383   6.515   5.243  16.354 -2.7290  1.7486 -1.1709
 8298TIP3   OH246384   0.837   5.551  12.491  0.1282 -0.5678  0.2197
 8298TIP3    H146385   0.848   5.472  12.438 -0.3681 -0.5703  0.1179
 8298TIP3    H246386   0.865   5.622  12.433 -3.0985 -0.2288 -1.1703
 8299TIP3   OH246387   4.560   0.221  13.105  0.1643 -0.3702  0.9116
 8299TIP3    H146388   4.577   0.215  13.011  1.3576 -0.1059  1.1031
 8299TIP3    H246389   4.638   0.184  13.146 -0.1209  0.0096  1.8113
 8300TIP3   OH246390   6.699   1.671   0.557 -0.4745 -0.0328  0.1563
 8300TIP3    H146391   6.770   1.729   0.584  0.7521  0.0296 -2.8321
 8300TIP3    H246392   6.622   1.729   0.553  0.0555  0.6929  0.2007
 8301TIP3   OH246393   3.326   3.161  16.766 -0.4637  0.6627 -0.3985
 8301TIP3    H146394   3.373   3.181  16.685 -1.4257 -0.3279 -1.2255
 8301TIP3    H246395   3.271   3.238  16.781  0.8941  1.5510  0.2288
 8302TIP3   OH246396   2.772   6.796   0.657  0.0495  0.1777 -0.4682
 8302TIP3    H146397   2.726   6.796   0.573  0.9281  1.3631 -0.9853
 8302TIP3    H246398   2.816   6.882   0.660  2.3260 -0.9244 -0.1010
 8303TIP3   OH246399   3.759   2.233  14.575  0.2248  0.2564  0.2719
 8303TIP3    H146400   3.839   2.180  14.579  0.3222  0.4071  0.3185
 8303TIP3    H246401   3.689   2.172  14.600  0.5926  0.6615  2.5019
 8304TIP3   OH246402   1.580   6.789   3.408 -0.4406  0.0499 -0.3788
 8304TIP3    H146403   1.580   6.884   3.396  1.2213  0.4000  1.8029
 8304TIP3    H246404   1.572   6.754   3.319 -1.9988  2.1686 -1.1758
 8305TIP3   OH246405   3.565   3.687  15.009 -0.3614 -0.5838  0.1292
 8305TIP3    H146406   3.600   3.768  15.047  1.2314 -1.0424 -0.2626
 8305TIP3    H246407   3.506   3.652  15.076 -0.0815  0.2518  0.8284
 8306TIP3   OH246408   1.872   0.405   5.365 -0.4376  0.2716 -0.3197
 8306TIP3    H146409   1.900   0.494   5.348  2.0027 -0.2899  0.4146
 8306TIP3    H246410   1.871   0.363   5.279  0.8994  0.3699 -0.4017
 8307TIP3   OH246411   5.919   4.807   2.086  0.0452  0.1968 -0.4424
 8307TIP3    H146412   5.925   4.783   1.994 -2.1726 -1.0914 -0.3277
 8307TIP3    H246413   5.843   4.864   2.091 -0.1206 -0.1012  0.6562
 8308TIP3   OH246414   2.912   3.678  10.402  0.6964 -0.4983  0.4910
 8308TIP3    H146415   2.926   3.729  10.322  1.4523  0.0825  0.9743
 8308TIP3    H246416   2.851   3.609  10.377 -0.7370  0.9134 -0.0857
 8309TIP3   OH246417   4.964   4.584  16.296 -0.8447  0.2097  0.3028
 8309TIP3    H146418   4.968   4.495  16.261  2.2285  0.4245 -0.1256
 8309TIP3    H246419   5.011   4.579  16.379 -0.3453  1.4982  0.1105
 8310TIP3   OH246420   1.712   5.943  14.350 -0.2557 -0.5144 -0.3011
 8310TIP3    H146421   1.686   6.012  14.290 -0.6508 -1.2325 -0.9661
 8310TIP3    H246422   1.747   5.990  14.426 -1.0850  0.4201 -0.4762
 8311TIP3   OH246423   1.964   3.141   1.368 -0.1075  0.4383  0.0137
 8311TIP3    H146424   2.006   3.071   1.317 -1.8599 -0.2749 -0.5046
 8311TIP3    H246425   1.937   3.205   1.302 -0.5404  0.5002  0.2490
 8312TIP3   OH246426   0.557   2.956  16.869 -0.1565  0.1135  0.0169
 8312TIP3    H146427   0.529   2.865  16.868 -0.2575  0.1291  0.7737
 8312TIP3    H246428   0.613   2.964  16.946 -1.5780  1.0951  1.0053
 8313TIP3   OH246429   5.520   3.562  12.975  0.4658  0.4526  0.1134
 8313TIP3    H146430   5.549   3.471  12.983 -0.2794  0.3470  2.2718
 8313TIP3    H246431   5.542   3.602  13.060  0.3661  2.1839 -0.6223
 8314TIP3   OH246432   1.778   0.434   0.041  0.5633  0.4459 -0.4818
 8314TIP3    H146433   1.723   0.386  -0.021  1.1529  0.1488 -0.7799
 8314TIP3    H246434   1.766   0.526   0.017 -0.5026  0.4526  0.0378
 8315TIP3   OH246435   3.449   5.742  17.160  0.1907  0.4516 -0.2416
 8315TIP3    H146436   3.413   5.684  17.094  0.6408  0.4846 -0.5224
 8315TIP3    H246437   3.466   5.686  17.235 -1.3820  0.6147  0.2771
 8316TIP3   OH246438   5.180   1.046  11.374 -0.5989 -0.7878 -0.0184
 8316TIP3    H146439   5.154   0.965  11.331  0.8248 -1.3549  0.1193
 8316TIP3    H246440   5.264   1.025  11.415 -1.3586  0.0459  2.1160
 8317TIP3   OH246441   5.931   0.044  16.710  0.1748 -0.1321 -0.0309
 8317TIP3    H146442   5.971   0.091  16.783  1.4984 -0.8517 -0.2574
 8317TIP3    H246443   5.994   0.052  16.639 -1.5674  1.4996 -1.5189
 8318TIP3   OH246444   1.233   2.804   3.059  0.6365  0.2001 -0.3409
 8318TIP3    H146445   1.206   2.792   3.150 -1.3025 -1.0218 -1.0189
 8318TIP3    H246446   1.168   2.864   3.023 -0.0415 -1.1750 -1.4964
 8319TIP3   OH246447   3.027   4.920   0.009 -0.0517 -0.2226  0.3119
 8319TIP3    H146448   3.105   4.939   0.062  0.8476 -1.7384 -0.4297
 8319TIP3    H246449   3.055   4.936  -0.081 -0.9354  0.2500  0.1113
 8320TIP3   OH246450   0.063   2.158   3.367 -0.3211  0.1189 -0.3794
 8320TIP3    H146451   0.070   2.252   3.385 -0.3251 -0.0160  0.3381
 8320TIP3    H246452   0.084   2.150   3.274 -0.8140  0.8887 -0.5643
 8321TIP3   OH246453   5.830   3.460  11.647  0.0232  0.3463  0.0693
 8321TIP3    H146454   5.789   3.451  11.561 -0.2540 -1.3572  0.3550
 8321TIP3    H246455   5.884   3.539  11.639 -0.8668  0.8536 -1.3018
 8322TIP3   OH246456   2.176   5.605  15.456  0.1303  0.5629  0.3076
 8322TIP3    H146457   2.138   5.665  15.391  2.4057  1.0699 -0.6743
 8322TIP3    H246458   2.220   5.538  15.403 -0.9503 -1.0818  1.3934
 8323TIP3   OH246459   2.279   5.750  11.157  0.4974  0.0863  0.0033
 8323TIP3    H146460   2.255   5.841  11.177  2.3795  0.7167 -0.4120
 8323TIP3    H246461   2.324   5.755  11.073  2.5461 -0.8820  0.9748
 8324TIP3   OH246462   5.974   6.666  16.912  0.1633 -0.0295 -0.8339
 8324TIP3    H146463   5.924   6.718  16.850  1.3797  0.9338 -1.0491
 8324TIP3    H246464   5.913   6.598  16.942 -0.4753 -0.5257 -3.0631
 8325TIP3   OH246465   6.190   3.181  11.559  0.0407  0.0108 -0.0357
 8325TIP3    H146466   6.156   3.247  11.618  0.0867 -0.0980  0.1118
 8325TIP3    H246467   6.270   3.149  11.601 -0.7029 -1.1202  0.5770
 8326TIP3   OH246468   1.491   0.142  16.136  0.3871 -0.8800 -0.0358
 8326TIP3    H146469   1.402   0.150  16.100  1.1514  0.4243 -1.7728
 8326TIP3    H246470   1.543   0.108  16.063  2.0444  2.0145 -0.3368
 8327TIP3   OH246471   5.050   0.691   3.928 -0.5587 -0.2728  0.2900
 8327TIP3    H146472   4.987   0.657   3.991  2.3023 -0.8977  3.0478
 8327TIP3    H246473   5.112   0.620   3.916  0.6635  0.9339 -0.8871
 8328TIP3   OH246474   0.369   1.854   4.125 -0.0124 -0.0485  0.1495
 8328TIP3    H146475   0.462   1.835   4.134  0.0731  0.8785  1.5217
 8328TIP3    H246476   0.365   1.948   4.108 -0.6605 -0.2979 -1.2155
 8329TIP3   OH246477   0.882   1.814   4.303 -0.2393  0.2869  0.1571
 8329TIP3    H146478   0.972   1.842   4.284 -1.2503  2.5914 -1.8750
 8329TIP3    H246479   0.846   1.884   4.357 -0.8356 -0.6373  0.9898
 8330TIP3   OH246480   0.566   4.972  12.048 -0.4732  0.0022  0.3440
 8330TIP3    H146481   0.587   4.971  11.955 -2.2299 -0.5207 -0.1052
 8330TIP3    H246482   0.628   4.911  12.088  1.7460  1.8652 -0.0641
 8331TIP3   OH246483   3.929   2.427   1.564  0.9503  0.0991 -0.1887
 8331TIP3    H146484   3.838   2.445   1.587  0.5051 -0.1052 -1.7250
 8331TIP3    H246485   3.976   2.434   1.648 -0.4980 -0.0591  0.6759
 8332TIP3   OH246486   6.104   3.678   4.585  0.0575 -0.3270  0.0749
 8332TIP3    H146487   6.169   3.736   4.624  2.0108 -2.1807 -0.2249
 8332TIP3    H246488   6.132   3.669   4.494 -1.4814 -0.0475 -0.4532
 8333TIP3   OH246489   1.947   5.513   5.028  0.4426 -0.1503 -0.6473
 8333TIP3    H146490   1.881   5.582   5.035  1.1537  0.3771  1.5438
 8333TIP3    H246491   2.016   5.539   5.089  1.8205 -1.6395 -1.5007
 8334TIP3   OH246492   6.478   6.653   4.934  0.0738 -0.2410  0.2802
 8334TIP3    H146493   6.395   6.636   4.978 -1.2889  1.7333 -1.3333
 8334TIP3    H246494   6.517   6.726   4.981 -0.1592  0.2218 -0.2319
 8335TIP3   OH246495   2.305   4.108  16.116  0.2862  0.2761  1.0954
 8335TIP3    H146496   2.341   4.027  16.154  1.9506  1.9892  3.4225
 8335TIP3    H246497   2.263   4.152  16.190 -0.9213  1.4127 -0.2121
 8336TIP3   OH246498   1.654   6.129  16.214 -0.3100  0.1603  0.5315
 8336TIP3    H146499   1.669   6.036  16.232 -0.0330 -0.1702 -1.1879
 8336TIP3    H246500   1.643   6.133  16.119 -1.3251  1.7650  0.6845
 8337TIP3   OH246501   0.932   0.939   0.948  0.4098 -0.2777 -0.2089
 8337TIP3    H146502   1.013   0.957   0.996  0.0332 -0.1800  0.4017
 8337TIP3    H246503   0.924   0.844   0.948  0.3224 -0.2717  0.0774
 8338TIP3   OH246504   4.150   1.014   4.226  0.2827 -0.5636 -0.2362
 8338TIP3    H146505   4.081   1.075   4.250 -0.4124 -1.5204  0.2724
 8338TIP3    H246506   4.110   0.927   4.235  1.2511 -1.1042 -0.9043
 8339TIP3   OH246507   1.272   1.914   4.755  0.0518 -0.2078 -0.0679
 8339TIP3    H146508   1.276   1.819   4.764 -0.2649 -0.2738 -0.5621
 8339TIP3    H246509   1.200   1.929   4.693  0.3054  0.3353 -0.2377
 8340TIP3   OH246510   0.282   0.126   3.835 -0.6219 -0.1198  0.4949
 8340TIP3    H146511   0.377   0.135   3.836 -0.5790 -0.5613  1.2760
 8340TIP3    H246512   0.252   0.192   3.898 -0.9069  0.6519 -0.4203
 8341TIP3   OH246513   5.906   0.899  14.177 -0.4172 -0.5688  0.2581
 8341TIP3    H146514   5.896   0.915  14.084 -0.9000  1.2958  0.5843
 8341TIP3    H246515   5.997   0.924  14.197  0.2040 -2.5072  0.0409
 8342TIP3   OH246516   3.079   2.550  16.463  0.7026 -0.2439  0.4595
 8342TIP3    H146517   3.172   2.541  16.443  0.9518  0.4703  1.2036
 8342TIP3    H246518   3.077   2.609  16.539 -0.3827  0.1701  0.1281
 8343TIP3   OH246519   4.994   2.441   4.659  0.0324 -0.3513 -0.2261
 8343TIP3    H146520   5.043   2.400   4.731 -1.3289  0.4855  1.2320
 8343TIP3    H246521   5.062   2.474   4.600  1.1755 -1.4729  0.4162
 8344TIP3   OH246522   2.040   2.440   1.706 -0.4490 -0.0108  0.2145
 8344TIP3    H146523   2.134   2.426   1.701 -0.5673 -0.4422 -0.8593
 8344TIP3    H246524   2.031   2.523   1.754  0.4711  0.0918  0.2223
 8345TIP3   OH246525   5.663   6.484  16.670  0.0354  0.1900  0.1985
 8345TIP3    H146526   5.753   6.452  16.660  0.1752  0.6485 -0.0782
 8345TIP3    H246527   5.674   6.574  16.702 -0.3195  0.3179 -0.0380
 8346TIP3   OH246528   2.460   6.552  11.637  0.4053  0.5481  0.3653
 8346TIP3    H146529   2.448   6.640  11.600 -0.9261  0.1435 -0.2236
 8346TIP3    H246530   2.511   6.566  11.717 -0.6840  1.9795  0.8359
 8347TIP3   OH246531   4.187   6.794   1.353 -0.0480 -0.2299  0.1597
 8347TIP3    H146532   4.132   6.850   1.408 -1.7851 -0.7378 -0.9644
 8347TIP3    H246533   4.165   6.705   1.379 -1.2395 -0.4912 -1.6015
 8348TIP3   OH246534   3.914   3.038  13.256 -0.1733  0.1168 -0.2287
 8348TIP3    H146535   3.944   2.953  13.289  0.0616 -0.3187 -1.4984
 8348TIP3    H246536   3.872   3.080  13.331  0.1914 -0.8909  0.5594
 8349TIP3   OH246537   5.789   5.575  12.852 -0.5999 -0.0063  0.2322
 8349TIP3    H146538   5.845   5.637  12.805 -2.4146 -1.0879 -3.8068
 8349TIP3    H246539   5.775   5.504  12.790 -2.8516 -1.9369  2.7152
 8350TIP3   OH246540   6.469   5.164   5.190 -0.3872 -1.0167 -0.2907
 8350TIP3    H146541   6.476   5.245   5.139  0.5955 -1.4762 -0.9322
 8350TIP3    H246542   6.494   5.190   5.279 -0.5457 -0.5243 -0.3851
 8351TIP3   OH246543   3.695   2.981  12.812  0.1641  0.0379  0.2048
 8351TIP3    H146544   3.786   2.975  12.842 -0.4479 -1.4423  1.9736
 8351TIP3    H246545   3.656   3.050  12.865 -0.0228 -0.0840  0.2264
 8352TIP3   OH246546   1.162   3.245  13.213 -0.2128  0.3453  0.6729
 8352TIP3    H146547   1.070   3.257  13.237 -0.6851  0.4411 -1.0428
 8352TIP3    H246548   1.163   3.162  13.164  0.3640  0.9670 -0.4151
 8353TIP3   OH246549   3.690   5.658  14.983  0.0390  0.4966 -0.1356
 8353TIP3    H146550   3.768   5.605  14.965 -1.0732 -1.1001 -0.5006
 8353TIP3    H246551   3.672   5.643  15.076  0.6568  1.5855  0.1758
 8354TIP3   OH246552   3.067   6.660  11.142  0.6765 -0.0429 -0.0768
 8354TIP3    H146553   3.045   6.638  11.052 -1.1433  0.1273  0.2854
 8354TIP3    H246554   3.162   6.674  11.141  0.6476  0.2845 -2.0088
 8355TIP3   OH246555   6.416   3.850   3.741  0.3311  0.9203 -0.1660
 8355TIP3    H146556   6.457   3.930   3.709  0.8437  0.8862  0.3934
 8355TIP3    H246557   6.331   3.847   3.696  1.5576  0.1587 -2.6411
 8356TIP3   OH246558   2.899   3.246  15.752 -0.3444 -0.0389  0.6260
 8356TIP3    H146559   2.909   3.253  15.657 -3.2008  1.9143  0.3323
 8356TIP3    H246560   2.905   3.153  15.770 -1.6975 -0.7094 -1.8154
 8357TIP3   OH246561   5.305   0.228   2.072 -0.2117 -0.3976 -0.0580
 8357TIP3    H146562   5.303   0.292   2.143 -1.2746  0.4622 -0.8218
 8357TIP3    H246563   5.378   0.255   2.017 -0.5357  0.0591 -0.2720
 8358TIP3   OH246564   3.617   4.260  15.935 -0.9373  0.4866 -0.1842
 8358TIP3    H146565   3.644   4.239  15.846 -0.4858  2.4501 -0.5392
 8358TIP3    H246566   3.588   4.351  15.932  0.7140  1.1828  2.0057
 8359TIP3   OH246567   1.195   5.016   4.765 -0.2651 -0.6939 -0.1702
 8359TIP3    H146568   1.207   4.930   4.806 -1.3906 -0.6373  0.2993
 8359TIP3    H246569   1.192   4.997   4.671  2.4235 -0.8148 -0.3113
 8360TIP3   OH246570   1.678   5.177   3.951  0.2933  0.4647 -0.1429
 8360TIP3    H146571   1.625   5.145   3.878 -1.4516 -1.6813  1.8834
 8360TIP3    H246572   1.691   5.100   4.007  1.9490  1.8897  1.5743
 8361TIP3   OH246573   2.133   4.912   3.262  0.1051  0.2794  0.2880
 8361TIP3    H146574   2.173   4.998   3.250 -0.0888  0.0400 -2.8464
 8361TIP3    H246575   2.093   4.892   3.177 -0.5115 -2.5797  1.1517
 8362TIP3   OH246576   6.136   4.570   1.272 -0.1610 -0.2926 -0.1577
 8362TIP3    H146577   6.232   4.571   1.272  0.0041  0.1938 -4.1834
 8362TIP3    H246578   6.111   4.654   1.233 -2.2163 -0.6078  0.3884
 8363TIP3   OH246579   4.078   5.346  10.775 -0.4639 -0.0378  0.2872
 8363TIP3    H146580   4.078   5.406  10.700  0.5652 -0.3682  0.0059
 8363TIP3    H246581   4.013   5.280  10.753 -1.3399  0.7551  0.4312
 8364TIP3   OH246582   5.226   5.844  13.200 -0.0900  0.1931  0.0351
 8364TIP3    H146583   5.167   5.779  13.163 -0.5134  1.3984 -1.5027
 8364TIP3    H246584   5.310   5.799  13.207 -1.1202 -1.5791  2.3463
 8365TIP3   OH246585   6.231   2.956   5.049 -0.1184  0.1728 -0.0637
 8365TIP3    H146586   6.283   2.890   5.005 -0.7022  0.4861 -1.2547
 8365TIP3    H246587   6.242   3.035   4.997 -1.4041  0.3612 -0.0918
 8366TIP3   OH246588   0.371   6.545  10.556 -0.0692  0.2021 -0.3655
 8366TIP3    H146589   0.405   6.529  10.468  0.4019  4.4352 -1.1659
 8366TIP3    H246590   0.410   6.475  10.609 -0.6006 -2.7123 -3.4127
 8367TIP3   OH246591   2.651   0.882  13.781  0.2281 -0.6749 -0.2932
 8367TIP3    H146592   2.715   0.901  13.849  2.1846 -1.9412 -1.6861
 8367TIP3    H246593   2.703   0.850  13.707 -1.9337 -0.7475 -1.8757
 8368TIP3   OH246594   0.771   5.053  17.146  0.2512  0.3484 -0.0892
 8368TIP3    H146595   0.833   5.016  17.209  0.7887 -0.7390 -1.2159
 8368TIP3    H246596   0.727   4.977  17.108  1.2809  0.7964 -2.3770
 8369TIP3   OH246597   4.883   4.674   0.402  0.5949  0.1313  0.2351
 8369TIP3    H146598   4.802   4.724   0.391  1.4663  1.3164 -1.0592
 8369TIP3    H246599   4.928   4.716   0.475 -0.3788 -1.1657  1.6376
 8370TIP3   OH246600   6.076   5.294   0.663  0.0607  0.3597 -0.2935
 8370TIP3    H146601   6.066   5.388   0.649 -0.9943  0.2724 -0.2091
 8370TIP3    H246602   5.986   5.260   0.664  0.4459 -0.7388 -0.9561
 8371TIP3   OH246603   3.366   1.730  11.129 -0.1869  0.1569  0.4216
 8371TIP3    H146604   3.462   1.730  11.120 -0.0607  1.9872  1.4006
 8371TIP3    H246605   3.335   1.698  11.044  1.2624  0.7518 -0.3843
 8372TIP3   OH246606   3.163   4.173  12.444  0.4932 -0.0033  0.2251
 8372TIP3    H146607   3.155   4.137  12.532  0.6501  1.5079  0.8812
 8372TIP3    H246608   3.257   4.173  12.426  0.5233  0.3858  0.3698
 8373TIP3   OH246609   5.332   4.121   1.115  0.0280 -0.1482  0.3367
 8373TIP3    H146610   5.372   4.046   1.159  0.5050 -1.0341 -1.5196
 8373TIP3    H246611   5.258   4.084   1.067 -0.5466  0.8035  0.4807
 8374TIP3   OH246612   4.338   1.762  12.791 -0.0081  0.7629 -0.0730
 8374TIP3    H146613   4.370   1.682  12.832  0.0709  0.7875 -0.0866
 8374TIP3    H246614   4.386   1.833  12.834 -0.2847  0.8239  0.1368
 8375TIP3   OH246615   3.158   6.254  12.300  0.1511  0.3134 -0.2512
 8375TIP3    H146616   3.117   6.331  12.338 -0.1830 -0.6689  1.4796
 8375TIP3    H246617   3.251   6.262  12.323 -0.0922 -0.4056  1.0526
 8376TIP3   OH246618   1.245   3.246  16.402  0.0218  0.7711  0.4338
 8376TIP3    H146619   1.170   3.255  16.462 -1.2365  0.0582 -0.9640
 8376TIP3    H246620   1.291   3.330  16.408 -2.3454  2.2413 -0.5417
 8377TIP3   OH246621   0.900   1.589   3.266 -1.1037  0.2444  0.2990
 8377TIP3    H146622   0.817   1.626   3.296 -1.4655  2.4014 -2.8808
 8377TIP3    H246623   0.966   1.652   3.296 -0.6369 -0.9563  1.9569
 8378TIP3   OH246624   3.469   1.302   5.157  0.0122 -0.0043 -0.3367
 8378TIP3    H146625   3.418   1.376   5.189  0.3772  0.5314 -0.9535
 8378TIP3    H246626   3.553   1.341   5.131  0.3914 -0.7185 -0.2046
 8379TIP3   OH246627   3.737   4.698  13.048 -0.7925 -0.2413  0.0881
 8379TIP3    H146628   3.809   4.638  13.031 -1.6759 -0.9028 -1.5606
 8379TIP3    H246629   3.670   4.643  13.090  0.1394  0.6808  2.9891
 8380TIP3   OH246630   0.628   1.087  14.669 -0.2039 -0.0609 -0.1046
 8380TIP3    H146631   0.722   1.101  14.681 -0.2996 -0.6612  1.6509
 8380TIP3    H246632   0.622   1.022  14.599  0.6403  0.5804 -0.7894
 8381TIP3   OH246633   2.114   0.216  12.515 -0.0116 -0.8231 -0.4992
 8381TIP3    H146634   2.198   0.248  12.484 -0.7221  0.5048 -1.1730
 8381TIP3    H246635   2.096   0.267  12.594  1.0138 -3.0080  1.2435
 8382TIP3   OH246636   6.759   1.711  12.447  0.2316  0.0738 -0.8509
 8382TIP3    H146637   6.676   1.711  12.494 -0.4182 -1.2227 -1.8918
 8382TIP3    H246638   6.766   1.621  12.413  2.0639  0.1590 -0.7924
 8383TIP3   OH246639   4.206   1.053  15.859  0.4202 -1.1815 -0.4276
 8383TIP3    H146640   4.117   1.035  15.829 -0.0112  0.6985 -0.3589
 8383TIP3    H246641   4.224   0.984  15.923 -0.6623 -2.0627 -1.0490
 8384TIP3   OH246642   6.298   4.116   1.011  0.2631 -0.6615 -0.0649
 8384TIP3    H146643   6.323   4.024   1.007  1.9699 -0.2368  0.1435
 8384TIP3    H246644   6.355   4.154   1.078 -0.9481  0.3994  0.4133
 8385TIP3   OH246645   5.250   2.560  12.584  0.0781  0.4335  0.3144
 8385TIP3    H146646   5.296   2.477  12.595  1.7464  1.1664 -0.7244
 8385TIP3    H246647   5.211   2.578  12.669  0.4070 -0.9953  0.7909
 8386TIP3   OH246648   4.174   3.808  16.672  0.6009  0.0878 -0.7927
 8386TIP3    H146649   4.195   3.879  16.733  0.3255 -0.7924  0.3546
 8386TIP3    H246650   4.258   3.766  16.656  0.4087 -0.8985  0.5762
 8387TIP3   OH246651   1.564   1.223  11.756 -0.1554  0.0235  0.0380
 8387TIP3    H146652   1.549   1.312  11.788 -2.8310 -0.2343 -0.2577
 8387TIP3    H246653   1.647   1.227  11.709 -0.9387  2.7410 -1.2764
 8388TIP3   OH246654   2.182   1.558  14.368 -0.3816 -0.1718 -0.3338
 8388TIP3    H146655   2.102   1.526  14.411  0.1951 -0.0656  0.8826
 8388TIP3    H246656   2.158   1.569  14.277 -1.6695 -0.4480 -0.0484
 8389TIP3   OH246657   0.601   1.235  16.902  0.4950 -0.0132  0.4969
 8389TIP3    H146658   0.662   1.167  16.875  0.6320 -0.8804  2.7547
 8389TIP3    H246659   0.655   1.311  16.920  0.9418 -0.6710  2.1428
 8390TIP3   OH246660   4.419   6.448   0.924 -0.0546  0.3118 -0.0953
 8390TIP3    H146661   4.443   6.490   0.841  1.5962 -0.2664  0.0427
 8390TIP3    H246662   4.503   6.433   0.968 -0.7888 -0.8153  0.9831
 8391TIP3   OH246663   4.973   3.169   3.523 -0.0954  0.2466 -0.2227
 8391TIP3    H146664   5.012   3.156   3.437  0.8841 -0.1946  0.2670
 8391TIP3    H246665   4.914   3.243   3.512  0.1740  0.3287 -1.2178
 8392TIP3   OH246666   4.077   5.480  16.574 -0.2759  0.9326 -0.2390
 8392TIP3    H146667   4.105   5.537  16.646 -1.2067  2.8819 -1.3619
 8392TIP3    H246668   4.069   5.393  16.615  2.3489  1.2952  1.2431
 8393TIP3   OH246669   2.962   4.269  11.147 -0.2704  0.4553  0.1990
 8393TIP3    H146670   2.879   4.232  11.176  1.0806 -1.2706  2.1954
 8393TIP3    H246671   2.965   4.356  11.187 -1.4366  0.8770 -0.5861
 8394TIP3   OH246672   6.404   5.457   3.894 -0.0512  0.1591  0.0606
 8394TIP3    H146673   6.448   5.539   3.915  1.2004 -0.5313  0.2773
 8394TIP3    H246674   6.475   5.395   3.878 -0.9170 -1.2664  1.3814
 8395TIP3   OH246675   2.393   1.121   1.969  0.3663 -0.2310  0.0841
 8395TIP3    H146676   2.430   1.039   1.936 -0.4632 -0.1108 -1.2399
 8395TIP3    H246677   2.392   1.179   1.893 -1.4801  0.1272  0.3323
 8396TIP3   OH246678   0.519   6.374   4.673  0.3844 -0.5816 -0.2049
 8396TIP3    H146679   0.567   6.420   4.604  0.3928 -1.1928 -0.6122
 8396TIP3    H246680   0.434   6.418   4.677  0.4809 -0.3757 -0.4191
 8397TIP3   OH246681   5.563   3.279  14.796 -0.0402  0.0930 -0.0863
 8397TIP3    H146682   5.638   3.336  14.780 -1.5294  1.7024 -1.8934
 8397TIP3    H246683   5.545   3.288  14.890  1.1812  0.7460  0.0978
 8398TIP3   OH246684   3.285   5.041  15.098 -0.2422  0.0319 -0.1829
 8398TIP3    H146685   3.273   5.007  15.187  2.8503 -1.9989 -0.4061
 8398TIP3    H246686   3.291   5.136  15.110  0.8725 -0.2524  1.9053
 8399TIP3   OH246687   3.064   3.876  11.971 -0.1387  0.2599  0.0431
 8399TIP3    H146688   3.111   3.946  12.018  1.0807 -1.1232  0.9644
 8399TIP3    H246689   3.114   3.865  11.890 -0.1266  0.2194  0.0568
 8400TIP3   OH246690   1.332   4.727   4.118  0.1393  0.4196  0.5802
 8400TIP3    H146691   1.348   4.719   4.212  1.8524  2.2589  0.5061
 8400TIP3    H246692   1.260   4.790   4.111  0.6882  1.0656  0.6559
 8401TIP3   OH246693   6.511   6.659  10.814 -0.0322  0.8496  0.0314
 8401TIP3    H146694   6.480   6.719  10.746 -2.0571 -1.0626 -0.8657
 8401TIP3    H246695   6.431   6.627  10.856  0.9785 -0.9482  0.7094
 8402TIP3   OH246696   6.673   3.346   1.806  0.2797  0.3471 -0.2012
 8402TIP3    H146697   6.698   3.438   1.808  1.9424 -0.0762  1.4868
 8402TIP3    H246698   6.598   3.341   1.865 -1.1778  0.9139 -1.9242
 8403TIP3   OH246699   0.138   1.361   4.493  0.5120  0.2769 -0.0573
 8403TIP3    H146700   0.187   1.443   4.502  0.8752  0.2005 -1.1394
 8403TIP3    H246701   0.189   1.297   4.543  0.7224  0.5183  0.0401
 8404TIP3   OH246702   6.694   2.546  16.158  0.0303 -0.3583 -0.5305
 8404TIP3    H146703   6.749   2.488  16.106  0.6872 -0.0159 -0.2390
 8404TIP3    H246704   6.664   2.613  16.096 -3.1268 -2.5157 -1.5867
 8405TIP3   OH246705   1.598   1.982  13.764  0.2759  0.1132  0.8129
 8405TIP3    H146706   1.615   1.920  13.835  0.5166  0.5597  1.1477
 8405TIP3    H246707   1.684   2.017  13.740 -0.0357  1.8105  2.0025
 8406TIP3   OH246708   3.944   6.704   0.538 -0.0302  0.4079  0.0801
 8406TIP3    H146709   3.953   6.777   0.601  0.5205 -0.2342  0.7749
 8406TIP3    H246710   3.957   6.745   0.453  0.0142  1.1717  0.4381
 8407TIP3   OH246711   0.050   2.423  13.682  0.4905 -0.5835 -0.2013
 8407TIP3    H146712  -0.002   2.414  13.761  1.3400 -0.9601  0.3343
 8407TIP3    H246713   0.073   2.516  13.680 -0.7012 -0.2837 -0.7856
 8408TIP3   OH246714   3.979   2.695  14.286  0.3440 -0.4414  0.2471
 8408TIP3    H146715   3.950   2.605  14.298 -0.3607 -0.6201 -2.1280
 8408TIP3    H246716   3.931   2.745  14.352 -2.3103 -1.3186 -0.8919
 8409TIP3   OH246717   5.880   0.293  11.579  0.2614  0.3051 -0.6690
 8409TIP3    H146718   5.841   0.240  11.648  0.8266 -0.9807 -1.2956
 8409TIP3    H246719   5.816   0.290  11.507  1.2215 -1.4371 -1.5311
 8410TIP3   OH246720   4.669   6.078  14.896  0.4270  0.5145 -0.7361
 8410TIP3    H146721   4.765   6.074  14.899  0.4204  0.3693 -0.7003
 8410TIP3    H246722   4.642   5.987  14.880  0.1932  0.0149  2.0350
 8411TIP3   OH246723   6.198   5.967  17.170  0.4293 -0.2817 -0.2884
 8411TIP3    H146724   6.122   5.987  17.223  0.7579  1.2543 -0.3514
 8411TIP3    H246725   6.198   5.872  17.163 -0.7185 -0.3891  0.8183
 8412TIP3   OH246726   3.542   2.159   3.363 -0.4283 -0.6935 -0.2198
 8412TIP3    H146727   3.557   2.064   3.370 -2.1043 -0.9332  0.4619
 8412TIP3    H246728   3.456   2.173   3.401 -0.4553  1.0495 -0.8302
 8413TIP3   OH246729   4.771   4.900  13.220  0.3394  0.5168  0.0892
 8413TIP3    H146730   4.830   4.926  13.291  1.1952 -0.0069 -0.4037
 8413TIP3    H246731   4.825   4.908  13.141 -0.6443  1.2514 -0.5298
 8414TIP3   OH246732   6.077   4.608  11.611 -0.1236 -0.3171 -0.7503
 8414TIP3    H146733   6.040   4.608  11.700 -1.5426  0.0011 -1.3207
 8414TIP3    H246734   6.135   4.684  11.610  1.3588 -1.3361  0.4385
 8415TIP3   OH246735   3.941   3.526   0.218  0.1760  0.1124  0.4124
 8415TIP3    H146736   3.971   3.478   0.295 -0.6789 -2.6369 -0.8245
 8415TIP3    H246737   3.884   3.595   0.252  2.4489  1.1846  2.3625
 8416TIP3   OH246738   6.096   0.822   0.128 -0.0657 -0.0546  0.3720
 8416TIP3    H146739   6.062   0.907   0.159  2.2329  0.2377  2.3580
 8416TIP3    H246740   6.145   0.844   0.049 -2.2970 -0.1323 -1.1286
 8417TIP3   OH246741   0.003   4.850  17.091  0.3893  0.0345  1.1793
 8417TIP3    H146742  -0.082   4.810  17.110  0.8012 -2.0968 -1.0418
 8417TIP3    H246743   0.067   4.795  17.135  0.7978 -0.3487  0.1538
 8418TIP3   OH246744   1.092   0.852   5.942  0.5863 -0.1619 -0.2803
 8418TIP3    H146745   1.033   0.857   5.868 -0.8079 -1.4454  0.6928
 8418TIP3    H246746   1.179   0.843   5.903  0.1806  1.6034 -1.7269
 8419TIP3   OH246747   4.674   6.064  11.767 -0.6275 -0.3943 -0.1496
 8419TIP3    H146748   4.732   6.007  11.716 -1.3562 -1.0050 -0.3216
 8419TIP3    H246749   4.732   6.131  11.804  0.0442 -0.4033 -1.1238
 8420TIP3   OH246750   5.614   0.224  14.670  0.3063  0.3605 -0.6374
 8420TIP3    H146751   5.522   0.248  14.660 -0.3907 -1.1787  1.3009
 8420TIP3    H246752   5.611   0.133  14.699  2.4085  0.5462  0.3275
 8421TIP3   OH246753   1.774   3.243  13.644 -0.2791 -0.6217 -0.5102
 8421TIP3    H146754   1.702   3.304  13.629  0.4798 -0.0159 -1.8906
 8421TIP3    H246755   1.806   3.264  13.732 -1.0999 -0.1691 -0.3151
 8422TIP3   OH246756   5.514   2.168   0.909 -0.0911 -0.1391  0.4412
 8422TIP3    H146757   5.581   2.142   0.846 -1.1753  1.3752 -1.4582
 8422TIP3    H246758   5.563   2.206   0.982  1.1644 -1.1143  0.1539
 8423TIP3   OH246759   0.166   3.207  12.488 -0.5860 -0.2466  0.2566
 8423TIP3    H146760   0.192   3.291  12.527 -0.0988  0.2062 -0.9982
 8423TIP3    H246761   0.176   3.144  12.560  1.3198  0.3817  0.6039
 8424TIP3   OH246762   6.317   1.215   6.571 -0.0071  0.2310  0.1069
 8424TIP3    H146763   6.381   1.152   6.602  0.3809  0.9055  0.7095
 8424TIP3    H246764   6.234   1.185   6.608  0.1763  0.0653  0.3873
 8425TIP3   OH246765   1.938   4.349   4.486  0.2882  0.2607 -0.0211
 8425TIP3    H146766   1.875   4.419   4.471  0.8653  0.7964 -0.0302
 8425TIP3    H246767   1.979   4.334   4.401  0.1927 -0.0622 -0.0109
 8426TIP3   OH246768   3.827   2.252   4.362 -0.3724  0.2756  0.2234
 8426TIP3    H146769   3.778   2.292   4.290  0.3079  1.3925  0.3526
 8426TIP3    H246770   3.776   2.271   4.440  0.6052  2.1233  0.4603
 8427TIP3   OH246771   0.693   3.907   0.099 -0.2049 -0.0387  0.4828
 8427TIP3    H146772   0.687   3.980   0.161  1.0126  0.1458  0.4115
 8427TIP3    H246773   0.657   3.942   0.018 -2.4867 -0.5037  1.2284
 8428TIP3   OH246774   1.172   3.569   1.562 -0.4229  0.4452  0.0124
 8428TIP3    H146775   1.209   3.600   1.480  0.5636 -0.0489  0.2509
 8428TIP3    H246776   1.185   3.642   1.623  1.2139 -0.1168  0.3803
 8429TIP3   OH246777   6.089   5.827   3.636 -0.3315 -0.0749 -0.1234
 8429TIP3    H146778   6.004   5.792   3.661 -0.6005  1.0985  0.6955
 8429TIP3    H246779   6.078   5.922   3.637  0.7666  0.0864 -0.8062
 8430TIP3   OH246780   5.185   0.676   5.276  0.2160  0.3542 -0.7096
 8430TIP3    H146781   5.203   0.748   5.216 -0.3891  0.6760 -0.5156
 8430TIP3    H246782   5.091   0.660   5.267 -0.0729  1.0137  0.7939
 8431TIP3   OH246783   5.936   5.401  14.566  0.5832 -0.0596  0.1973
 8431TIP3    H146784   5.898   5.426  14.650  0.2695 -1.6232  0.5474
 8431TIP3    H246785   5.967   5.312  14.579  0.7676 -0.2435 -1.2791
 8432TIP3   OH246786   6.686   5.540  15.587 -0.0749 -0.4365  0.0663
 8432TIP3    H146787   6.735   5.483  15.647 -0.3302 -0.0484  0.6494
 8432TIP3    H246788   6.717   5.628  15.607  1.0587 -0.4320 -1.5289
 8433TIP3   OH246789   4.898   3.197   4.191  0.0951  0.2160  0.0891
 8433TIP3    H146790   4.986   3.231   4.209  0.4762  0.8526 -2.5013
 8433TIP3    H246791   4.844   3.232   4.262  1.4481  2.0781  0.2793
 8434TIP3   OH246792   0.572   1.061  11.389 -0.1799  0.0140 -0.0956
 8434TIP3    H146793   0.630   1.125  11.346  0.2458  0.0449  0.5225
 8434TIP3    H246794   0.510   1.036  11.320 -0.8750  1.7051 -0.1479
 8435TIP3   OH246795   0.837   1.753   0.716 -0.5994 -0.0034  0.0212
 8435TIP3    H146796   0.825   1.848   0.727 -0.7740  0.4179 -3.0321
 8435TIP3    H246797   0.786   1.731   0.638  2.6790 -1.8141 -1.8337
 8436TIP3   OH246798   3.702   3.399  11.205  0.4370 -0.1010  0.0552
 8436TIP3    H146799   3.653   3.317  11.202  1.1765 -0.5547  0.0834
 8436TIP3    H246800   3.791   3.376  11.177  0.5799  0.7520 -0.2571
 8437TIP3   OH246801   0.231   5.217  13.306  0.4694 -0.1190 -0.0170
 8437TIP3    H146802   0.231   5.271  13.226  0.2381  1.3347  0.9247
 8437TIP3    H246803   0.273   5.273  13.371 -0.9804 -0.5522  1.3414
 8438TIP3   OH246804   0.188   2.954  12.029  0.0932  0.1413 -0.6741
 8438TIP3    H146805   0.256   2.923  12.088  0.0061 -1.7917 -1.5282
 8438TIP3    H246806   0.120   2.887  12.033 -1.7544  1.9333  0.0472
 8439TIP3   OH246807   1.891   3.234   0.907  0.5580  0.1919  0.1401
 8439TIP3    H146808   1.869   3.163   0.847  0.9175  1.3043 -1.3645
 8439TIP3    H246809   1.987   3.235   0.909  0.5536  0.5630  0.2420
 8440TIP3   OH246810   2.756   3.792   5.584  0.1871 -0.6849  0.1686
 8440TIP3    H146811   2.752   3.703   5.548 -0.2226 -0.1451 -1.1432
 8440TIP3    H246812   2.673   3.832   5.560 -0.4217 -0.4976  2.3203
 8441TIP3   OH246813   4.426   0.152  12.569 -0.2491  0.2767  0.5852
 8441TIP3    H146814   4.475   0.070  12.570 -1.0258 -0.1870  0.8847
 8441TIP3    H246815   4.335   0.126  12.583 -0.7043  1.0496 -0.7855
 8442TIP3   OH246816   6.667   4.890   3.121  0.3709  0.0355  0.0650
 8442TIP3    H146817   6.685   4.983   3.110  1.4722 -0.1277  0.3494
 8442TIP3    H246818   6.723   4.863   3.193 -0.9337 -0.5758  0.8881
 8443TIP3   OH246819   5.165   1.587   3.167  0.2207  0.4836 -0.7850
 8443TIP3    H146820   5.205   1.669   3.195 -2.0675  1.1750  0.7465
 8443TIP3    H246821   5.223   1.519   3.202  0.5733  1.4333  0.5589
 8444TIP3   OH246822   6.195   1.619  12.576 -0.8215  0.3567  0.6702
 8444TIP3    H146823   6.171   1.663  12.657  0.1012  0.5412  0.8570
 8444TIP3    H246824   6.221   1.531  12.604 -3.0159 -0.4840  0.2604
 8445TIP3   OH246825   0.428   4.805   1.716  0.0555 -0.0571 -0.1477
 8445TIP3    H146826   0.454   4.812   1.808 -1.6297 -2.6856  0.6388
 8445TIP3    H246827   0.356   4.866   1.706  0.5869  0.6200  0.1135
 8446TIP3   OH246828   0.778   5.840   3.768  0.1261 -0.6600 -0.3697
 8446TIP3    H146829   0.813   5.753   3.752 -0.3739 -0.6909 -1.3567
 8446TIP3    H246830   0.749   5.871   3.682 -0.3617  0.1864  0.0844
 8447TIP3   OH246831   0.503   5.134  16.534  0.4505  0.2563 -0.2534
 8447TIP3    H146832   0.551   5.138  16.617  0.4219  2.3336 -0.2907
 8447TIP3    H246833   0.419   5.176  16.553  0.3265  0.4691 -1.2559
 8448TIP3   OH246834   6.601   0.350  11.757 -0.5158  0.0778 -0.8449
 8448TIP3    H146835   6.506   0.360  11.748 -0.4447  1.0404 -0.6045
 8448TIP3    H246836   6.621   0.388  11.843  0.2002  0.6560 -1.2612
 8449TIP3   OH246837   6.202   2.863   3.645  0.2534  0.3232  0.1358
 8449TIP3    H146838   6.200   2.933   3.711  0.7153 -1.7357  2.4796
 8449TIP3    H246839   6.116   2.866   3.605 -0.5443  0.8249  1.7915
 8450TIP3   OH246840   1.929   4.236  14.082  0.2566 -0.4001  0.3594
 8450TIP3    H146841   1.996   4.273  14.140  0.0085  2.6808 -1.1042
 8450TIP3    H246842   1.846   4.269  14.117 -0.0621 -0.1646 -0.5975
 8451TIP3   OH246843   0.871   3.913   1.255 -0.0262  0.2433  0.4477
 8451TIP3    H146844   0.812   3.985   1.231  0.4509  0.8074  0.9238
 8451TIP3    H246845   0.909   3.885   1.172  0.2219  0.9382  0.3177
 8452TIP3   OH246846   0.537   0.368   1.092  0.1452 -0.3711  0.5146
 8452TIP3    H146847   0.498   0.442   1.045  0.3427 -0.4053  0.2962
 8452TIP3    H246848   0.469   0.301   1.092  0.3042 -0.5407 -0.1273
 8453TIP3   OH246849   5.949   6.179  15.362 -0.0305  0.3101  0.2058
 8453TIP3    H146850   5.972   6.168  15.454 -0.5341  0.8535  0.4039
 8453TIP3    H246851   5.917   6.269  15.356  0.1452  0.3337 -0.5353
 8454TIP3   OH246852   5.517   0.685  11.148 -0.9301 -0.4038  0.1523
 8454TIP3    H146853   5.465   0.694  11.228 -1.8029  0.9718 -0.5249
 8454TIP3    H246854   5.564   0.768  11.140 -0.2690 -0.8220 -0.3690
 8455TIP3   OH246855   1.560   1.572   3.979 -0.4068 -0.5334 -0.2473
 8455TIP3    H146856   1.572   1.596   3.887 -0.3191 -1.2385 -0.4274
 8455TIP3    H246857   1.619   1.629   4.027  0.0156 -0.5993 -0.6892
 8456TIP3   OH246858   6.356   5.576   5.470 -1.0126  0.1871  0.2401
 8456TIP3    H146859   6.264   5.562   5.492 -0.4366 -0.0478  2.7222
 8456TIP3    H246860   6.392   5.622   5.545  0.9513  0.1495 -0.6290
 8457TIP3   OH246861   3.115   4.383  14.756  0.0800  0.3659  0.3851
 8457TIP3    H146862   3.079   4.388  14.667  0.4866 -0.3623  0.1768
 8457TIP3    H246863   3.196   4.332  14.747  0.6508  1.1374  1.0135
 8458TIP3   OH246864   2.155   3.191  10.756  0.2923 -0.2584  0.5072
 8458TIP3    H146865   2.192   3.159  10.673  0.8461 -1.7766  1.3169
 8458TIP3    H246866   2.098   3.121  10.786  1.7294 -0.6604  2.4603
 8459TIP3   OH246867   5.398   5.284   0.980 -0.0304  0.2547  0.0978
 8459TIP3    H146868   5.391   5.189   0.970 -3.1667  0.3871  0.1504
 8459TIP3    H246869   5.317   5.310   1.024  1.0934  2.9062  0.8221
 8460TIP3   OH246870   0.360   5.858  12.867  0.2045 -0.1190 -0.1499
 8460TIP3    H146871   0.446   5.823  12.886  0.2177  0.0975  0.2006
 8460TIP3    H246872   0.377   5.941  12.822  0.1746 -0.8659 -1.5951
 8461TIP3   OH246873   2.711   2.822  12.837 -0.3124 -0.1049  0.4245
 8461TIP3    H146874   2.639   2.874  12.871  0.4105  1.0781  0.1879
 8461TIP3    H246875   2.748   2.779  12.914 -2.1157 -1.8830  0.3873
 8462TIP3   OH246876   1.272   3.254   5.726 -0.1832 -0.2479  0.1778
 8462TIP3    H146877   1.244   3.172   5.684  1.1162 -0.6202  0.0044
 8462TIP3    H246878   1.192   3.306   5.732 -0.9845 -1.4260  0.0592
 8463TIP3   OH246879   0.040   1.004  13.579 -0.3988 -0.0580 -0.5160
 8463TIP3    H146880  -0.028   0.960  13.630 -0.5626  0.2483 -0.4673
 8463TIP3    H246881   0.121   0.957  13.601 -0.5539 -0.2721 -0.3931
 8464TIP3   OH246882   5.296   1.290   2.479 -0.3534 -0.9039 -0.1302
 8464TIP3    H146883   5.245   1.214   2.450 -1.3503 -0.8881  1.4424
 8464TIP3    H246884   5.327   1.330   2.398 -0.8177 -2.2935 -1.0462
 8465TIP3   OH246885   2.991   0.728  16.971  0.1671 -0.3263 -0.5001
 8465TIP3    H146886   2.958   0.818  16.981  0.4517 -0.1166 -1.3741
 8465TIP3    H246887   3.084   0.739  16.954  0.1405 -0.7707 -0.9430
 8466TIP3   OH246888   4.112   2.260   5.724 -0.1348 -0.1179  0.1215
 8466TIP3    H146889   4.178   2.249   5.792 -0.6457 -0.0812  0.6341
 8466TIP3    H246890   4.038   2.300   5.769 -0.3555  0.2248 -0.5338
 8467TIP3   OH246891   5.921   2.779   2.104  0.5221  0.2477 -0.5653
 8467TIP3    H146892   5.990   2.842   2.124  0.9849 -0.4344  0.0735
 8467TIP3    H246893   5.886   2.753   2.189  0.2425 -0.2397 -0.8212
 8468TIP3   OH246894   5.317   1.887   2.149 -0.2282  0.0287 -0.2255
 8468TIP3    H146895   5.239   1.832   2.144 -1.1504  1.2294  0.2843
 8468TIP3    H246896   5.312   1.927   2.236  0.6616  0.5531 -0.4003
 8469TIP3   OH246897   6.327   6.416  14.572 -0.0201 -0.3863 -0.0816
 8469TIP3    H146898   6.245   6.383  14.535  0.3605 -1.1267 -0.2955
 8469TIP3    H246899   6.314   6.413  14.666 -0.6355  0.5562 -0.1320
 8470TIP3   OH246900   1.434   4.795   4.398  0.2052 -0.1421 -0.0936
 8470TIP3    H146901   1.527   4.813   4.407  0.6174 -1.4308 -1.4615
 8470TIP3    H246902   1.391   4.877   4.424  1.7893  1.2039 -1.4813
 8471TIP3   OH246903   4.692   3.783  13.262 -0.5688 -0.7328  0.5372
 8471TIP3    H146904   4.649   3.775  13.346  0.2396  3.2091  1.5330
 8471TIP3    H246905   4.623   3.809  13.201 -0.4843  0.8222  1.0599
 8472TIP3   OH246906   1.072   6.721  14.644 -0.4429  0.1571 -0.4099
 8472TIP3    H146907   1.051   6.781  14.716  2.7792 -0.7976  1.5514
 8472TIP3    H246908   1.056   6.634  14.680 -0.7364 -0.3168 -1.6272
 8473TIP3   OH246909   5.875   2.549  16.603 -0.2087 -0.2072 -0.8933
 8473TIP3    H146910   5.928   2.491  16.657 -1.7245 -0.4996  0.3513
 8473TIP3    H246911   5.931   2.625  16.587  0.7683 -0.7284 -0.0763
 8474TIP3   OH246912   3.686   5.388  15.354 -0.5994 -0.2290  0.6636
 8474TIP3    H146913   3.696   5.483  15.349 -1.4885 -0.1259  0.8028
 8474TIP3    H246914   3.602   5.370  15.312 -1.5504 -0.7084  2.6444
 8475TIP3   OH246915   6.042   0.085  14.848  0.2779  0.3966  0.0233
 8475TIP3    H146916   6.137   0.097  14.845  0.3535 -0.2566 -0.8923
 8475TIP3    H246917   6.021   0.048  14.762 -1.0274  2.0651 -0.4156
 8476TIP3   OH246918   2.391   5.062   3.025  0.1901 -0.3620 -0.0156
 8476TIP3    H146919   2.475   5.108   3.017 -0.0907  0.3098  0.7924
 8476TIP3    H246920   2.396   5.017   3.109 -0.6519  0.5356  0.5389
 8477TIP3   OH246921   0.076   6.185   2.138 -0.2116  0.2558  0.1202
 8477TIP3    H146922   0.068   6.279   2.123 -0.6187  0.2918  0.5507
 8477TIP3    H246923   0.095   6.148   2.052  0.4708  0.7877  0.0307
 8478TIP3   OH246924   5.864   1.176   4.096  0.5116 -1.3325 -0.0541
 8478TIP3    H146925   5.937   1.205   4.042  0.1593 -1.0431 -0.3794
 8478TIP3    H246926   5.872   1.081   4.098  1.3738 -1.2617  0.5925
 8479TIP3   OH246927   2.528   3.898   2.590 -0.5112 -0.7284 -0.2693
 8479TIP3    H146928   2.527   3.993   2.587  0.6498 -0.6221  1.5863
 8479TIP3    H246929   2.477   3.875   2.667 -2.6383 -1.7550 -1.8755
 8480TIP3   OH246930   5.023   6.190   3.171 -0.1649 -0.1865  0.7315
 8480TIP3    H146931   5.098   6.250   3.178 -1.0179  0.9626  0.4228
 8480TIP3    H246932   5.053   6.109   3.211  1.6016 -0.0993 -0.2978
 8481TIP3   OH246933   6.044   6.325  13.399  0.6010  0.0503 -0.3707
 8481TIP3    H146934   6.035   6.401  13.342 -1.6563 -0.3684 -0.6500
 8481TIP3    H246935   6.130   6.337  13.441  1.3485  1.4998 -2.1575
 8482TIP3   OH246936   3.565   3.253   2.674  0.1451  0.0122  0.9605
 8482TIP3    H146937   3.615   3.334   2.677  1.8914 -1.0244  2.3255
 8482TIP3    H246938   3.510   3.261   2.596  2.3971  1.3110 -0.6306
 8483TIP3   OH246939   1.263   1.052   3.438  0.6940 -0.1326  0.3537
 8483TIP3    H146940   1.199   1.112   3.399  0.7760  1.2934  2.2881
 8483TIP3    H246941   1.236   0.965   3.408 -2.3104  0.3741  1.2829
 8484TIP3   OH246942   5.521   3.954  14.354  0.1199 -0.6734  0.4028
 8484TIP3    H146943   5.614   3.968  14.340  0.0608 -2.2606 -2.1791
 8484TIP3    H246944   5.495   4.025  14.413  2.7826  0.2216  0.6333
 8485TIP3   OH246945   3.047   5.743  14.373  0.7677 -0.1895  0.1065
 8485TIP3    H146946   3.034   5.652  14.399 -0.3514 -0.1158 -0.1497
 8485TIP3    H246947   3.033   5.744  14.279 -1.1565  0.5531  0.3599
 8486TIP3   OH246948   3.748   0.030   2.156 -0.5078 -0.1007 -0.2925
 8486TIP3    H146949   3.721   0.047   2.246 -0.0168  2.7631 -0.5842
 8486TIP3    H246950   3.681   0.073   2.102 -0.4837 -1.2630 -1.2768
 8487TIP3   OH246951   4.573   3.407  13.434  0.5073 -0.2067  0.2830
 8487TIP3    H146952   4.566   3.499  13.407  2.3798  0.6754  2.4582
 8487TIP3    H246953   4.660   3.400  13.473 -0.5508 -2.2259  2.5513
 8488TIP3   OH246954   1.706   2.279   0.439  0.2669 -0.0649  0.4630
 8488TIP3    H146955   1.734   2.343   0.504 -0.0522  0.7832 -0.2027
 8488TIP3    H246956   1.727   2.194   0.477 -0.9299  0.3438  2.1545
 8489TIP3   OH246957   0.836   2.791   1.258 -0.2103  0.6577  0.3725
 8489TIP3    H146958   0.745   2.820   1.254 -0.6004 -0.5105  0.4764
 8489TIP3    H246959   0.852   2.774   1.350 -0.1768 -0.0018  0.2513
 8490TIP3   OH246960   0.490   6.043   3.630  0.9114 -0.2215 -0.4395
 8490TIP3    H146961   0.437   5.982   3.682 -0.2109  0.1985 -1.0806
 8490TIP3    H246962   0.527   6.103   3.695 -1.0096  0.7092 -0.1416
 8491TIP3   OH246963   4.630   1.556   2.604  0.0405  0.1852 -0.2051
 8491TIP3    H146964   4.627   1.523   2.514  1.6161 -2.0626  0.4855
 8491TIP3    H246965   4.549   1.522   2.644 -0.2780  0.5311 -0.5404
 8492TIP3   OH246966   6.230   2.030  14.516  0.5158 -0.5152  0.1577
 8492TIP3    H146967   6.324   2.021  14.529  0.6060  0.7535  0.5176
 8492TIP3    H246968   6.194   1.944  14.537  1.4425 -0.5898  1.5500
 8493TIP3   OH246969   0.367   4.427   0.444 -0.7246 -0.1924  0.1519
 8493TIP3    H146970   0.337   4.474   0.366  0.7217  0.5834  0.0402
 8493TIP3    H246971   0.451   4.390   0.419 -0.4895 -0.3793  1.1887
 8494TIP3   OH246972   2.312   6.092   3.543  0.1845  0.2004 -0.2716
 8494TIP3    H146973   2.333   6.039   3.466 -0.6911 -0.5978  0.0105
 8494TIP3    H246974   2.377   6.067   3.608  0.4909  0.3397 -0.5254
 8495TIP3   OH246975   4.244   3.981   0.108  0.0373 -0.1497  0.1233
 8495TIP3    H146976   4.183   4.053   0.092  0.3259 -0.1748 -1.2794
 8495TIP3    H246977   4.321   4.004   0.056  0.6200 -0.8628  0.6619
 8496TIP3   OH246978   2.897   3.436  11.448 -0.1254 -0.3344  0.0184
 8496TIP3    H146979   2.851   3.416  11.530 -0.1794 -0.0140  0.0652
 8496TIP3    H246980   2.918   3.350  11.411 -0.7938 -0.4872 -0.0198
 8497TIP3   OH246981   1.552   5.080  12.514 -0.2669  0.4278  0.3157
 8497TIP3    H146982   1.623   5.135  12.480 -0.7388  0.1042 -1.2881
 8497TIP3    H246983   1.564   4.996  12.469 -1.2497  0.1493  0.5658
 8498TIP3   OH246984   0.742   2.949  12.377 -0.0564  0.1429  0.0807
 8498TIP3    H146985   0.658   2.994  12.367  0.9183  2.2377  0.6951
 8498TIP3    H246986   0.806   3.012  12.345  1.3732 -1.0087  0.5896
 8499TIP3   OH246987   4.160   5.174   1.231  0.4758  0.2958  0.1844
 8499TIP3    H146988   4.185   5.217   1.149 -0.8854  2.6886  0.9275
 8499TIP3    H246989   4.241   5.167   1.280  0.8595  1.4724 -0.2421
 8500TIP3   OH246990   3.436   2.540  10.774  0.6301  1.0019 -0.1346
 8500TIP3    H146991   3.454   2.528  10.681  2.5206  1.3417  0.1492
 8500TIP3    H246992   3.521   2.559  10.813  0.4491 -2.1656  2.1700
 8501TIP3   OH246993   1.254   4.497   3.479 -0.5243 -0.3135 -0.1270
 8501TIP3    H146994   1.264   4.524   3.571 -2.5866 -3.3192  1.1267
 8501TIP3    H246995   1.339   4.461   3.455 -0.1584 -0.1023  0.8024
 8502TIP3   OH246996   6.600   3.750  13.255  0.2003  0.4734  0.4647
 8502TIP3    H146997   6.596   3.660  13.286  1.9879  0.7205  1.5783
 8502TIP3    H246998   6.675   3.751  13.194  0.2284  1.2116  0.4998
 8503TIP3   OH246999   0.715   1.404   5.189 -0.3793  0.3122  0.4268
 8503TIP3    H147000   0.699   1.406   5.095  0.5851 -0.9512  0.2193
 8503TIP3    H247001   0.746   1.493   5.209 -0.3862  0.5329 -0.4756
 8504TIP3   OH247002   2.841   3.896   4.264  0.3152 -0.2793 -0.3221
 8504TIP3    H147003   2.771   3.837   4.291 -0.4776 -0.3130 -2.2999
 8504TIP3    H247004   2.814   3.982   4.298  0.7127 -0.7228  1.2339
 8505TIP3   OH247005   0.177   1.063  15.503  0.5246  0.4481  0.6574
 8505TIP3    H147006   0.175   1.142  15.556  0.4208  1.3149 -0.6158
 8505TIP3    H247007   0.234   1.084  15.430  0.8150 -0.7955  0.4941
 8506TIP3   OH247008   0.617   5.082  16.779  0.2537  0.8020 -0.0786
 8506TIP3    H147009   0.632   4.988  16.787  0.1199  0.8213  0.4986
 8506TIP3    H247010   0.585   5.108  16.866 -0.8244  1.1699 -0.5623
 8507TIP3   OH247011   5.427   5.386   6.456 -0.2980 -0.1355 -0.0880
 8507TIP3    H147012   5.370   5.449   6.412 -0.4362 -1.6159 -2.2108
 8507TIP3    H247013   5.382   5.302   6.444  1.2443 -1.0287  0.1342
 8508TIP3   OH247014   2.356   3.547  14.781 -0.1469 -0.2307 -0.0762
 8508TIP3    H147015   2.413   3.536  14.705 -0.4104 -0.1583 -0.2884
 8508TIP3    H247016   2.283   3.601  14.748 -0.7302 -0.9592 -0.0179
 8509TIP3   OH247017   3.569   1.575  14.670 -1.2231 -0.4062  0.0289
 8509TIP3    H147018   3.623   1.504  14.705 -1.9384 -0.6833  0.6001
 8509TIP3    H247019   3.556   1.552  14.578  0.3731  0.1359 -0.3550
 8510TIP3   OH247020   3.630   6.636  14.157  0.3292  0.0892  0.0759
 8510TIP3    H147021   3.724   6.619  14.155 -0.0211 -2.4074  0.7754
 8510TIP3    H247022   3.605   6.619  14.248 -0.6592  1.9117  0.2003
 8511TIP3   OH247023   6.605   6.704   5.756 -0.3064 -0.6080 -0.5324
 8511TIP3    H147024   6.690   6.705   5.800 -1.7044 -0.0113  2.4262
 8511TIP3    H247025   6.625   6.686   5.664  3.0780  0.6559 -0.1699
 8512TIP3   OH247026   0.668   1.375  13.299  0.1839 -0.1780  0.1120
 8512TIP3    H147027   0.611   1.348  13.371  0.7529  0.0632  0.6650
 8512TIP3    H247028   0.704   1.293  13.265 -0.6032 -0.3438 -0.3447
 8513TIP3   OH247029   4.514   2.879   2.796  0.5014 -0.0950 -0.6367
 8513TIP3    H147030   4.470   2.949   2.748  0.7070  1.4801  1.3625
 8513TIP3    H247031   4.446   2.815   2.814 -0.4049  1.0414  0.0971
 8514TIP3   OH247032   5.911   2.870   0.587 -0.1436  0.4328  0.0907
 8514TIP3    H147033   5.905   2.952   0.538 -1.4624 -0.9464 -2.2259
 8514TIP3    H247034   5.823   2.854   0.619  0.0704 -0.1617  0.4005
 8515TIP3   OH247035   3.744   5.927   5.736  0.2073 -0.4128  0.4693
 8515TIP3    H147036   3.666   5.883   5.771  0.0763  0.9817  2.0161
 8515TIP3    H247037   3.784   5.862   5.678 -1.4887 -1.5531  0.5099
 8516TIP3   OH247038   5.106   5.085  12.401 -0.2048 -0.3861 -0.0999
 8516TIP3    H147039   5.136   5.130  12.322 -1.6403  0.2250 -0.3201
 8516TIP3    H247040   5.073   5.155  12.458  0.3330 -0.8711  0.8384
 8517TIP3   OH247041   2.963   5.209  11.501 -0.5418  0.3856  0.1365
 8517TIP3    H147042   2.879   5.200  11.544 -0.7875 -0.2135 -0.4480
 8517TIP3    H247043   2.963   5.141  11.433 -0.0101  1.0346 -0.5328
 8518TIP3   OH247044   3.199   2.729   4.955 -0.1080 -0.3575  0.5353
 8518TIP3    H147045   3.187   2.812   4.909  0.5817 -0.8134 -0.4949
 8518TIP3    H247046   3.236   2.670   4.890 -2.4795 -2.1204  0.6116
 8519TIP3   OH247047   6.446   2.720  14.138 -0.2906 -0.3637  0.6938
 8519TIP3    H147048   6.366   2.669  14.154 -1.3099  1.1206  0.5196
 8519TIP3    H247049   6.459   2.714  14.043  0.7127 -1.8459  0.8797
 8520TIP3   OH247050   3.203   4.203  10.715  0.1204 -0.2458  0.0639
 8520TIP3    H147051   3.235   4.225  10.802  0.0307 -2.4671  0.7193
 8520TIP3    H247052   3.263   4.135  10.684 -1.1152 -1.0483 -0.6734
 8521TIP3   OH247053   6.011   2.869  14.541 -0.3155  0.4048  0.8491
 8521TIP3    H147054   6.078   2.938  14.537  0.7287 -0.6136 -0.5920
 8521TIP3    H247055   6.032   2.820  14.621  1.0026 -0.1623  0.2052
 8522TIP3   OH247056   3.418   5.152   2.181 -0.3148 -0.1319  0.2998
 8522TIP3    H147057   3.446   5.243   2.188  0.7054 -0.4847  1.0553
 8522TIP3    H247058   3.397   5.127   2.271 -1.3270 -0.4398  0.0001
 8523TIP3   OH247059   2.031   4.318   2.237 -0.0974  0.1215  0.0254
 8523TIP3    H147060   2.112   4.299   2.189 -0.3053 -1.3750  0.2100
 8523TIP3    H247061   1.964   4.324   2.170 -0.4080 -2.0761  0.0443
 8524TIP3   OH247062   0.375   2.931  13.530  0.3187  0.4923  0.1978
 8524TIP3    H147063   0.444   2.880  13.488 -0.7967 -1.8281  1.0121
 8524TIP3    H247064   0.320   2.961  13.458  0.4400 -0.3491 -0.2626
 8525TIP3   OH247065   0.536   6.081   6.528 -0.0930 -0.0684 -0.3335
 8525TIP3    H147066   0.631   6.073   6.518 -0.0382  0.2111 -0.0486
 8525TIP3    H247067   0.519   6.053   6.618  0.0894  2.7119  0.6580
 8526TIP3   OH247068   5.725   4.630   3.086  0.2095  0.1685 -0.6359
 8526TIP3    H147069   5.769   4.676   3.015 -0.9188  0.9075 -0.8705
 8526TIP3    H247070   5.687   4.699   3.140  2.3475 -0.2806  1.6102
 8527TIP3   OH247071   2.192   6.753  14.258  0.1047 -0.6919 -0.3881
 8527TIP3    H147072   2.227   6.830  14.213  0.7930 -0.9586 -0.3233
 8527TIP3    H247073   2.111   6.784  14.298  0.4131  0.0209 -0.2888
 8528TIP3   OH247074   0.064   2.084   5.061 -0.2078  0.2594 -0.0051
 8528TIP3    H147075   0.120   2.010   5.085  0.0190  0.7198  0.9372
 8528TIP3    H247076   0.122   2.145   5.015  0.3039  1.1363  1.7471
 8529TIP3   OH247077   5.289   4.392   4.300 -0.3579  0.2671 -0.5467
 8529TIP3    H147078   5.305   4.485   4.314 -2.2012  0.4903  0.3914
 8529TIP3    H247079   5.335   4.349   4.373  0.7286  0.3934 -1.1380
 8530TIP3   OH247080   3.073   4.493   3.091 -0.1378  0.2612 -0.3482
 8530TIP3    H147081   3.007   4.553   3.056 -1.9153 -1.5993 -0.3786
 8530TIP3    H247082   3.154   4.518   3.047 -1.2653  1.2290 -1.9755
 8531TIP3   OH247083   6.046   4.516   2.697  0.2127  0.3850  0.2939
 8531TIP3    H147084   5.959   4.490   2.666 -0.0228 -2.4954  2.8508
 8531TIP3    H247085   6.098   4.528   2.618 -1.8929 -0.1640 -1.2508
 8532TIP3   OH247086   5.459   5.284   3.946  0.2581 -0.3507  0.3677
 8532TIP3    H147087   5.478   5.296   4.039 -1.8253  0.4284  0.7472
 8532TIP3    H247088   5.432   5.371   3.916  0.6384 -0.6542 -0.9245
 8533TIP3   OH247089   3.516   2.793  10.588 -0.0323  0.1393  0.7388
 8533TIP3    H147090   3.524   2.762  10.498 -0.3001  1.7692  0.1197
 8533TIP3    H247091   3.587   2.749  10.635  0.5250 -0.2237 -0.4113
 8534TIP3   OH247092   6.636   2.938   5.413  0.4740 -0.1700  0.2904
 8534TIP3    H147093   6.572   2.961   5.345  1.5702 -2.4791 -1.6830
 8534TIP3    H247094   6.584   2.897   5.482 -0.2763 -1.9695 -1.2574
 8535TIP3   OH247095   1.914   0.966  15.527  0.1431 -0.8705  0.5281
 8535TIP3    H147096   1.977   0.999  15.590 -0.4117  1.3858 -0.0093
 8535TIP3    H247097   1.857   1.041  15.509 -0.9855 -2.0511 -1.0699
 8536TIP3   OH247098   4.721   6.143  11.073 -0.3624 -0.3267 -0.1155
 8536TIP3    H147099   4.669   6.193  11.009  0.0321 -1.8460 -1.6973
 8536TIP3    H247100   4.778   6.088  11.019  2.9349  1.2048  1.5116
 8537TIP3   OH247101   5.700   3.526   4.383  0.3389 -0.2539  0.0826
 8537TIP3    H147102   5.775   3.493   4.334  1.2990  0.2358  1.1881
 8537TIP3    H247103   5.636   3.455   4.380  2.1571 -2.0836  1.9928
 8538TIP3   OH247104   5.794   0.088  17.127 -0.2148 -0.1529  0.8075
 8538TIP3    H147105   5.715   0.127  17.090 -0.0412  0.1336  0.7386
 8538TIP3    H247106   5.865   0.141  17.092  0.1051 -1.1982 -0.2040
 8539TIP3   OH247107   1.542   5.987  15.009  1.0466 -0.1450  0.3892
 8539TIP3    H147108   1.526   6.079  14.992 -1.8273 -0.2083  2.1708
 8539TIP3    H247109   1.481   5.941  14.952  1.7925 -0.9282  0.2018
 8540TIP3   OH247110   6.823   4.944   4.102  0.0804 -0.0884 -0.2559
 8540TIP3    H147111   6.799   4.979   4.016  0.0145  0.4064 -0.0368
 8540TIP3    H247112   6.754   4.975   4.161  1.1828  1.2779  0.3630
 8541TIP3   OH247113   0.137   6.087  11.176 -0.1589  0.2763  0.0380
 8541TIP3    H147114   0.108   6.120  11.260 -0.3982  0.6759 -0.2013
 8541TIP3    H247115   0.060   6.092  11.120 -0.4219 -1.3938  0.1952
 8542TIP3   OH247116   2.072   1.448  13.168  0.1909 -0.1945 -0.1969
 8542TIP3    H147117   2.062   1.392  13.245  1.7037 -0.1366  0.0809
 8542TIP3    H247118   2.099   1.533  13.203 -0.4480  0.2434 -0.7245
 8543TIP3   OH247119   5.847   1.920   4.785 -0.2583 -0.7136  0.3728
 8543TIP3    H147120   5.817   1.850   4.843  0.1100 -1.2069 -0.0308
 8543TIP3    H247121   5.940   1.903   4.773 -0.2942 -0.5007 -0.2113
 8544TIP3   OH247122   1.043   6.441  12.299 -0.0981 -0.3601  0.0486
 8544TIP3    H147123   1.137   6.430  12.308 -0.1702 -0.6034  0.5427
 8544TIP3    H247124   1.033   6.519  12.244  0.3813  0.5966  1.2734
 8545TIP3   OH247125   0.245   0.246  12.528  0.2953  0.2677 -0.0856
 8545TIP3    H147126   0.253   0.174  12.590  0.1342  0.8773  0.6495
 8545TIP3    H247127   0.336   0.270  12.509  0.3470  0.7857  0.7585
 8546TIP3   OH247128   2.070   0.019   6.650  0.1319  0.2051 -0.3502
 8546TIP3    H147129   2.094  -0.068   6.617  1.5982  0.4886 -0.1312
 8546TIP3    H247130   2.030   0.063   6.575 -0.3370 -0.5458 -0.5501
 8547TIP3   OH247131   5.285   2.769   2.906 -0.3507 -0.2826  0.5130
 8547TIP3    H147132   5.293   2.720   2.824 -0.5526 -0.1315  0.4033
 8547TIP3    H247133   5.312   2.707   2.973 -0.1194 -0.3864  0.3261
 8548TIP3   OH247134   2.743   4.238   0.320  0.2469  0.2207 -0.5301
 8548TIP3    H147135   2.679   4.283   0.376  2.7914 -0.3775  3.2165
 8548TIP3    H247136   2.828   4.266   0.354  2.0438 -1.1140 -3.5146
 8549TIP3   OH247137   2.244   6.061  16.267  0.6294  0.2556 -0.4474
 8549TIP3    H147138   2.213   5.975  16.296  1.4758  0.6773  1.9707
 8549TIP3    H247139   2.164   6.113  16.255  0.1438 -0.6613 -1.3365
 8550TIP3   OH247140   1.326   6.408  15.737  0.8482 -0.1223 -0.8680
 8550TIP3    H147141   1.246   6.449  15.704  1.0081  0.2700 -0.7772
 8550TIP3    H247142   1.351   6.461  15.813  1.3440 -0.0724 -1.0595
 8551TIP3   OH247143   4.478   2.581   2.940  0.0151  0.0240 -0.0822
 8551TIP3    H147144   4.414   2.645   2.969 -0.0552 -0.2901  0.4729
 8551TIP3    H247145   4.562   2.613   2.973 -0.0508 -0.2817  0.3884
 8552TIP3   OH247146   3.942   2.807  12.023  0.5508 -0.1985 -0.1825
 8552TIP3    H147147   3.926   2.838  12.113  0.8369 -0.0670 -0.1767
 8552TIP3    H247148   4.036   2.816  12.011  0.8006 -2.0642  0.1705
 8553TIP3   OH247149   5.126   3.363  12.357 -0.2058 -0.0049 -0.4698
 8553TIP3    H147150   5.196   3.334  12.298  2.3071  0.8841  1.8957
 8553TIP3    H247151   5.080   3.282  12.381 -1.1376 -0.4242 -3.2692
 8554TIP3   OH247152   4.450   3.009  12.909 -0.0535 -0.0157 -0.0951
 8554TIP3    H147153   4.414   3.017  12.820  2.3490  1.4573 -1.0555
 8554TIP3    H247154   4.376   3.026  12.967 -1.2641  1.1275 -1.8840
 8555TIP3   OH247155   5.126   3.937  14.043  0.3151 -0.1942  0.1038
 8555TIP3    H147156   5.059   3.914  14.108  0.2765 -2.0206 -0.5424
 8555TIP3    H247157   5.077   3.971  13.969  0.0694 -1.5695 -0.3850
 8556TIP3   OH247158   0.148   3.243   0.128  0.1518  0.2435  0.1983
 8556TIP3    H147159   0.188   3.281   0.049 -0.0660 -0.2324 -0.1442
 8556TIP3    H247160   0.222   3.233   0.189  0.2315  1.1004  0.2539
 8557TIP3   OH247161   4.735   5.051  13.515  0.2302  0.2922  0.3649
 8557TIP3    H147162   4.750   5.118  13.582  1.2101 -0.4505  0.9045
 8557TIP3    H247163   4.739   4.968  13.562  1.4818 -0.2768 -0.6735
 8558TIP3   OH247164   2.936   1.849  14.653 -0.0168  0.4682 -0.2459
 8558TIP3    H147165   2.994   1.816  14.721  1.0245  3.8346  0.6821
 8558TIP3    H247166   2.851   1.861  14.696  0.4314  1.8381  0.3056
 8559TIP3   OH247167   4.245   0.355  13.601 -0.1889 -0.0329 -0.6759
 8559TIP3    H147168   4.276   0.414  13.669  0.4666 -2.2060  1.0488
 8559TIP3    H247169   4.155   0.334  13.627  1.1701 -3.7160  1.8439
 8560TIP3   OH247170   5.722   2.297  11.360 -0.4370 -0.3957  0.0138
 8560TIP3    H147171   5.658   2.313  11.430 -1.0939 -0.4520 -0.5653
 8560TIP3    H247172   5.670   2.264  11.287  0.0321  1.0803 -1.0273
 8561TIP3   OH247173   1.768   3.006   5.683 -0.4562  0.4215  0.1990
 8561TIP3    H147174   1.726   3.011   5.769  0.9571 -0.8795  1.0195
 8561TIP3    H247175   1.857   2.976   5.701  0.4323  1.7766 -1.5860
 8562TIP3   OH247176   3.214   4.741  10.956  0.0738 -0.1129 -0.5143
 8562TIP3    H147177   3.213   4.787  10.872 -0.6195 -1.5029 -1.3047
 8562TIP3    H247178   3.122   4.733  10.980  0.2492 -0.0706  0.1833
 8563TIP3   OH247179   5.534   3.728  14.941  0.5149  0.6738 -0.1272
 8563TIP3    H147180   5.544   3.800  15.004 -0.9609  1.4492 -0.7407
 8563TIP3    H247181   5.620   3.721  14.900  1.7464 -0.2669  2.3536
 8564TIP3   OH247182   4.280   3.424  15.352 -0.2286 -0.0112 -0.2114
 8564TIP3    H147183   4.258   3.493  15.414 -0.1917 -0.6768  0.5615
 8564TIP3    H247184   4.335   3.467  15.287  0.5144  0.5154  0.7246
 8565TIP3   OH247185   5.894   4.053   4.510 -0.2877 -0.3879 -0.1883
 8565TIP3    H147186   5.930   3.988   4.449  3.2826  0.2724  0.9667
 8565TIP3    H247187   5.900   4.010   4.596 -0.0791  0.6016  0.3054
 8566TIP3   OH247188   5.923   1.212  12.871 -0.3634  0.8252 -0.3705
 8566TIP3    H147189   5.894   1.140  12.928  0.7969  1.1249  0.6352
 8566TIP3    H247190   5.893   1.187  12.784  0.6596 -1.2505 -0.1717
 8567TIP3   OH247191   2.451   6.494  14.660 -0.0866 -0.4783  0.0493
 8567TIP3    H147192   2.543   6.494  14.633 -0.5782 -0.7512 -1.7393
 8567TIP3    H247193   2.402   6.518  14.581 -1.7208 -2.4686  0.3733
 8568TIP3   OH247194   0.430   6.244   1.996 -0.0011  0.4707  0.5143
 8568TIP3    H147195   0.470   6.268   1.912 -1.6163  0.4449 -0.2990
 8568TIP3    H247196   0.339   6.273   1.989 -0.4654 -0.5361  1.8276
 8569TIP3   OH247197   5.728   0.959   5.607  0.2613 -0.5283 -0.6119
 8569TIP3    H147198   5.696   0.899   5.675 -1.8842  0.5774 -0.5665
 8569TIP3    H247199   5.697   0.921   5.525 -0.8667  0.3478 -0.6041
 8570TIP3   OH247200   2.799   0.295  14.615 -1.2854  0.3316  0.0319
 8570TIP3    H147201   2.870   0.303  14.679 -0.9311 -2.4172  0.1346
 8570TIP3    H247202   2.791   0.200  14.601 -2.5262  0.7549 -2.6966
 8571TIP3   OH247203   4.841   3.186   4.503 -0.0231 -0.3300  0.0008
 8571TIP3    H147204   4.845   3.225   4.590  0.6725 -1.6452  0.5873
 8571TIP3    H247205   4.858   3.093   4.518 -0.7755 -0.7262 -1.4450
 8572TIP3   OH247206   4.496   4.221   3.328  0.5099 -0.6245 -0.0757
 8572TIP3    H147207   4.488   4.315   3.315  0.3921 -0.7323 -0.8028
 8572TIP3    H247208   4.464   4.182   3.246  0.8061 -1.2881  0.1163
 8573TIP3   OH247209   1.970   6.011  14.963  0.5274  0.3666 -0.3055
 8573TIP3    H147210   1.892   5.964  14.992  1.3703 -0.4637  0.7375
 8573TIP3    H247211   2.024   6.019  15.042  1.6439  0.6039 -1.0627
 8574TIP3   OH247212   6.247   4.784  14.857  0.2752 -0.3036 -0.2306
 8574TIP3    H147213   6.263   4.877  14.874  0.3452  0.0268 -1.9944
 8574TIP3    H247214   6.153   4.773  14.868  0.0605  0.2924 -1.3504
 8575TIP3   OH247215   2.636   3.989   3.729  0.1015 -0.8960 -0.3925
 8575TIP3    H147216   2.719   3.945   3.712  1.9359  2.3492 -0.6632
 8575TIP3    H247217   2.641   4.015   3.821 -2.6533 -4.2733  0.9624
 8576TIP3   OH247218   3.684   1.678   0.201 -0.2381  0.5593  0.2273
 8576TIP3    H147219   3.753   1.616   0.220  0.0158  0.5250 -0.7575
 8576TIP3    H247220   3.621   1.629   0.148 -0.5023  0.8801  0.2362
 8577TIP3   OH247221   4.134   3.067   5.965  0.1967  0.3308  0.1312
 8577TIP3    H147222   4.158   3.016   6.043  1.1475 -0.0867 -0.4223
 8577TIP3    H247223   4.211   3.064   5.909 -0.8135 -0.2100 -1.2806
 8578TIP3   OH247224   1.259   1.858   3.148 -0.2618  0.0181  0.0046
 8578TIP3    H147225   1.219   1.941   3.123 -1.3721 -0.3367  0.5404
 8578TIP3    H247226   1.333   1.848   3.088 -0.7392  0.8825 -0.7464
 8579TIP3   OH247227   0.339   6.254   6.443 -0.2800  0.0688 -0.7276
 8579TIP3    H147228   0.385   6.328   6.402  1.0613  0.0924  0.7440
 8579TIP3    H247229   0.409   6.195   6.472 -1.2939 -1.3046 -0.9445
 8580TIP3   OH247230   3.285   1.079  16.274  0.0969 -0.2891 -0.4122
 8580TIP3    H147231   3.213   1.070  16.212  0.4377  0.4349 -0.9228
 8580TIP3    H247232   3.259   1.026  16.349 -1.7574  1.2773  0.1141
 8581TIP3   OH247233   2.358   2.062  13.932 -1.0308  0.3604 -0.3372
 8581TIP3    H147234   2.365   2.155  13.954  0.2346  0.5199 -1.3282
 8581TIP3    H247235   2.447   2.028  13.941 -1.2125 -0.4307 -1.3709
 8582TIP3   OH247236   0.436   2.102  12.312  0.1563 -0.2524 -0.6154
 8582TIP3    H147237   0.449   2.081  12.220 -0.4360  0.1961 -0.8081
 8582TIP3    H247238   0.342   2.093  12.326  0.4738 -2.7921  0.5788
 8583TIP3   OH247239   3.969   4.110  14.278 -0.2621 -0.4258  0.3872
 8583TIP3    H147240   4.036   4.052  14.312  0.0690 -0.3969 -0.2018
 8583TIP3    H247241   3.932   4.063  14.203 -0.2977 -0.0688  0.1753
 8584TIP3   OH247242   0.345   5.242   3.521  0.4508 -0.4733 -0.1382
 8584TIP3    H147243   0.404   5.316   3.537  0.2874  0.0775 -1.8839
 8584TIP3    H247244   0.257   5.279   3.530  0.3694 -0.5719 -0.5201
 8585TIP3   OH247245   2.963   0.848  14.914 -0.8476  0.0212 -0.1696
 8585TIP3    H147246   2.984   0.941  14.907  0.0659 -0.2939 -2.3014
 8585TIP3    H247247   2.872   0.842  14.883 -1.9799  0.4994  2.7116
 8586TIP3   OH247248   4.989   6.796   5.358 -0.0221  0.4022  0.9945
 8586TIP3    H147249   5.036   6.752   5.428 -0.4751 -1.4636  0.1868
 8586TIP3    H247250   5.058   6.839   5.307  0.9912 -2.5538 -0.3681
 8587TIP3   OH247251   0.778   1.074   4.113 -0.3330  0.4186  0.2138
 8587TIP3    H147252   0.768   1.021   4.033  0.2934  0.3921  0.1411
 8587TIP3    H247253   0.806   1.160   4.080 -1.3171  0.7856  0.3333
 8588TIP3   OH247254   0.960   0.143  14.533 -0.5296 -0.2546  0.1284
 8588TIP3    H147255   0.995   0.079  14.596  0.6435 -0.7735 -1.0072
 8588TIP3    H247256   1.027   0.211  14.528 -0.1661 -0.6819 -1.2212
 8589TIP3   OH247257   2.074   5.045  11.670 -0.4804  0.1539 -0.3587
 8589TIP3    H147258   2.098   5.013  11.583 -1.5216 -0.5397 -0.4013
 8589TIP3    H247259   2.158   5.066  11.711  0.0617 -0.1131 -1.2932
 8590TIP3   OH247260   1.902   2.138  15.193  0.4994  0.2649  0.2448
 8590TIP3    H147261   1.963   2.190  15.140  1.0591 -2.9481 -2.6963
 8590TIP3    H247262   1.958   2.072  15.234 -0.5421 -0.2544  0.8615
 8591TIP3   OH247263   2.729   2.919   6.280 -0.7174  0.7089 -0.2719
 8591TIP3    H147264   2.654   2.933   6.337 -0.5840  1.4444 -0.2586
 8591TIP3    H247265   2.796   2.980   6.313  0.7793 -1.6054  1.2603
 8592TIP3   OH247266   0.880   3.409  14.956  0.4656 -0.4722  0.1715
 8592TIP3    H147267   0.863   3.416  15.050  0.7684 -0.0405  0.1960
 8592TIP3    H247268   0.839   3.326  14.931  0.8166 -0.8410  0.7794
 8593TIP3   OH247269   0.841   1.879  11.841 -0.2000  0.0174 -0.4671
 8593TIP3    H147270   0.867   1.787  11.854 -0.4033  0.1887  1.5190
 8593TIP3    H247271   0.922   1.924  11.820  0.5047 -0.1313  1.6804
 8594TIP3   OH247272   5.702   4.668   4.116  0.2078 -0.3128  0.9777
 8594TIP3    H147273   5.675   4.684   4.026 -2.7714  2.1361  2.0962
 8594TIP3    H247274   5.629   4.621   4.155  0.5395  0.4173  2.5611
 8595TIP3   OH247275   5.929   2.831   3.639 -0.5475  0.0036  0.4177
 8595TIP3    H147276   5.886   2.916   3.626 -2.0341 -0.9603 -1.5514
 8595TIP3    H247277   5.904   2.804   3.727  0.6498  1.9446  1.4105
 8596TIP3   OH247278   5.289   6.587   1.816  0.0920 -0.7470  0.4936
 8596TIP3    H147279   5.195   6.605   1.810  0.4387  1.8219  1.5325
 8596TIP3    H247280   5.297   6.524   1.888 -0.8277 -1.2244  0.1936
 8597TIP3   OH247281   3.271   4.610  13.616  0.0488  0.7516  0.8811
 8597TIP3    H147282   3.218   4.553  13.560  0.5649  0.0867  1.0531
 8597TIP3    H247283   3.256   4.576  13.704  0.2027  1.0161  1.0092
 8598TIP3   OH247284   3.931   1.531   0.196  0.3522 -0.1468  0.0085
 8598TIP3    H147285   4.014   1.554   0.239  0.0704  0.8734  0.0242
 8598TIP3    H247286   3.928   1.435   0.201  0.5059 -0.0923  1.9612
 8599TIP3   OH247287   6.477   5.621  12.939  0.2561 -0.9309  0.0422
 8599TIP3    H147288   6.434   5.575  12.866  0.4854 -1.5838  0.3136
 8599TIP3    H247289   6.569   5.595  12.933  0.3354 -0.7271  0.3701
 8600TIP3   OH247290   0.183   0.087  13.688 -0.1650 -0.1355  1.0621
 8600TIP3    H147291   0.181   0.111  13.781  0.5354  0.9000  0.8334
 8600TIP3    H247292   0.208   0.168  13.644 -0.6219 -0.5875 -0.0472
 8601TIP3   OH247293   4.257   6.589   5.056 -0.2201  0.1913  0.3194
 8601TIP3    H147294   4.194   6.612   5.124 -0.6291  0.5149 -0.1546
 8601TIP3    H247295   4.278   6.672   5.014  1.3662  0.2546  1.1633
 8602TIP3   OH247296   4.832   4.227  11.815 -0.1391 -0.1332  0.1934
 8602TIP3    H147297   4.788   4.275  11.884 -0.5296 -1.7125  1.0878
 8602TIP3    H247298   4.819   4.280  11.736 -1.7072  0.5446  0.8752
 8603TIP3   OH247299   4.902   5.344  11.779  0.0513 -0.1926  0.3881
 8603TIP3    H147300   4.974   5.406  11.793  0.5092 -0.2927 -1.2447
 8603TIP3    H247301   4.922   5.304  11.694 -1.8379 -0.3464 -0.0254
 8604TIP3   OH247302   6.805   6.175  10.411  0.2401  0.4503  0.6480
 8604TIP3    H147303   6.764   6.095  10.444  1.8805  0.0234  1.7686
 8604TIP3    H247304   6.891   6.147  10.381 -0.2566  1.3056 -1.7501
 8605TIP3   OH247305   3.438   3.930  11.375  0.5605 -0.0669  0.1951
 8605TIP3    H147306   3.455   3.877  11.453  2.7411  0.0517 -0.1452
 8605TIP3    H247307   3.402   3.868  11.311  1.0309 -0.6656  0.5084
 8606TIP3   OH247308   1.074   1.565  13.181  0.1494  0.0582  0.3344
 8606TIP3    H147309   1.091   1.659  13.181 -2.7694  0.7013  0.5255
 8606TIP3    H247310   1.093   1.536  13.270  1.3607  0.3873  0.1898
 8607TIP3   OH247311   0.393   3.834   6.404 -0.6043 -0.1013  0.0349
 8607TIP3    H147312   0.375   3.892   6.478 -2.0025 -0.3882 -0.0490
 8607TIP3    H247313   0.331   3.762   6.415  0.2707 -0.9645 -0.5440
 8608TIP3   OH247314   1.474   1.555   5.956 -0.6147 -0.0486  0.5225
 8608TIP3    H147315   1.427   1.637   5.970 -0.2270 -0.0365  1.8399
 8608TIP3    H247316   1.510   1.532   6.042 -0.7327 -1.6196  0.1779
 8609TIP3   OH247317   6.675   6.187  12.623 -0.8184 -0.1273 -0.3063
 8609TIP3    H147318   6.610   6.186  12.552 -0.0715  0.0450 -1.0120
 8609TIP3    H247319   6.707   6.278  12.624  1.2308 -0.7684 -1.6888
 8610TIP3   OH247320   4.374   6.606   4.452  0.3943 -0.5586  0.3290
 8610TIP3    H147321   4.385   6.670   4.382  0.2959 -0.0915  0.7396
 8610TIP3    H247322   4.457   6.558   4.454 -0.1811 -1.7086 -1.2162
 8611TIP3   OH247323   1.486   5.131   1.438  0.1839  0.0221  0.2624
 8611TIP3    H147324   1.516   5.085   1.360 -0.8376 -1.8771  0.9327
 8611TIP3    H247325   1.406   5.174   1.411 -0.5176 -1.1630  0.3895
 8612TIP3   OH247326   3.844   4.881   2.756 -0.2637  0.1254 -0.4442
 8612TIP3    H147327   3.792   4.896   2.835 -0.4445  0.5094 -0.6309
 8612TIP3    H247328   3.866   4.969   2.725  0.1691 -0.0308 -0.5828
 8613TIP3   OH247329   5.334   2.593   1.655  0.6180 -0.6665  0.1766
 8613TIP3    H147330   5.350   2.512   1.608 -2.0969 -1.0696 -0.2253
 8613TIP3    H247331   5.314   2.657   1.587 -2.1133 -0.9506  0.5845
 8614TIP3   OH247332   1.972   4.560  11.936 -0.2458 -0.2408 -0.1254
 8614TIP3    H147333   1.934   4.610  11.863  0.1707  0.2574 -0.0052
 8614TIP3    H247334   2.001   4.626  11.998  0.7640 -0.6050 -0.1856
 8615TIP3   OH247335   1.103   5.652   5.243 -0.2663  0.4400  0.7715
 8615TIP3    H147336   1.142   5.625   5.160 -1.0717  2.5995 -0.3809
 8615TIP3    H247337   1.041   5.721   5.220  0.4740  2.1225  3.2806
 8616TIP3   OH247338   5.407   5.770  13.951 -0.8812 -0.0623 -0.0844
 8616TIP3    H147339   5.367   5.821  14.021  1.5805  0.5329  0.9938
 8616TIP3    H247340   5.412   5.681  13.985 -3.2170 -0.6721 -1.1248
 8617TIP3   OH247341   1.266   4.864  16.394 -0.1352 -0.5139  1.1442
 8617TIP3    H147342   1.304   4.936  16.445  0.1109 -0.7060  1.2363
 8617TIP3    H247343   1.327   4.851  16.322 -0.3745 -0.3838  0.9170
 8618TIP3   OH247344   0.268   6.425  15.277  0.0222  0.1683  0.1454
 8618TIP3    H147345   0.204   6.462  15.216  2.0588 -0.7304 -2.7915
 8618TIP3    H247346   0.239   6.335  15.290 -0.3404  0.3204  0.4116
 8619TIP3   OH247347   3.922   1.119   0.127  0.5975  0.3164 -1.0309
 8619TIP3    H147348   3.934   1.160   0.212 -1.9830 -0.5333 -0.1720
 8619TIP3    H247349   3.860   1.175   0.081 -0.5342 -0.8843 -1.0473
 8620TIP3   OH247350   4.407   5.218  14.607  0.0079 -0.1921 -0.1217
 8620TIP3    H147351   4.386   5.249  14.519  0.3678 -0.0134 -0.1466
 8620TIP3    H247352   4.322   5.210  14.651 -0.1033  0.7111 -0.1540
 8621TIP3   OH247353   2.322   1.819   2.350 -0.2318 -0.7296 -0.1686
 8621TIP3    H147354   2.269   1.898   2.350 -1.1903 -1.3434 -1.4782
 8621TIP3    H247355   2.375   1.826   2.429  0.2531  1.5743 -0.6149
 8622TIP3   OH247356   6.161   1.210  11.896  0.0089 -0.3742  0.1087
 8622TIP3    H147357   6.189   1.296  11.927 -0.3206  1.2399 -3.6063
 8622TIP3    H247358   6.073   1.199  11.930  0.8734 -0.4096  2.5537
 8623TIP3   OH247359   5.991   4.199   3.254 -0.4251  0.2516 -0.1424
 8623TIP3    H147360   6.051   4.202   3.180 -0.0647 -1.4665  0.0536
 8623TIP3    H247361   6.022   4.269   3.312 -0.6701  1.5702 -1.5463
 8624TIP3   OH247362   2.331   1.678   2.678  0.4698 -0.1150 -0.0563
 8624TIP3    H147363   2.260   1.619   2.704 -0.3544  0.8778  0.0324
 8624TIP3    H247364   2.411   1.633   2.704 -0.1757 -0.7677  0.8644
 8625TIP3   OH247365   1.943   0.074   2.739 -1.2969  0.0480  0.7643
 8625TIP3    H147366   1.897   0.003   2.694 -0.1411 -0.6690  0.6673
 8625TIP3    H247367   1.963   0.137   2.670 -1.8559  0.2256  0.7565
 8626TIP3   OH247368   4.419   1.509   0.135 -0.3483  0.1499  0.4982
 8626TIP3    H147369   4.473   1.536   0.061 -1.7709 -1.4637 -1.2479
 8626TIP3    H247370   4.330   1.534   0.110 -0.8844 -0.5625  1.5904
 8627TIP3   OH247371   2.353   3.359  15.318 -0.2910  0.7454 -0.5437
 8627TIP3    H147372   2.317   3.436  15.361  0.7825  0.8120  0.2643
 8627TIP3    H247373   2.376   3.300  15.389 -0.0701  0.1384 -1.1108
 8628TIP3   OH247374   5.027   4.707  16.053 -0.4549  0.2560 -0.0548
 8628TIP3    H147375   4.982   4.660  16.123 -0.9062 -1.1033 -1.2362
 8628TIP3    H247376   5.114   4.727  16.089 -0.6455 -0.5102  0.8456
 8629TIP3   OH247377   0.514   6.369  15.033 -0.3821  0.1957 -0.2570
 8629TIP3    H147378   0.543   6.281  15.007  1.7654  0.4374  1.1175
 8629TIP3    H247379   0.555   6.427  14.970  0.9589  0.4196  0.7757
 8630TIP3   OH247380   0.182   5.719   1.783 -0.0223  0.2126 -0.3008
 8630TIP3    H147381   0.259   5.773   1.761  0.5421 -0.4069  0.1036
 8630TIP3    H247382   0.145   5.761   1.860  1.2679 -0.7630  0.9084
 8631TIP3   OH247383   2.391   5.350  16.030  0.2049  0.4275 -0.1047
 8631TIP3    H147384   2.444   5.301  16.092 -1.1501 -0.0922  0.6840
 8631TIP3    H247385   2.434   5.337  15.946  1.7172  0.6296  0.6126
 8632TIP3   OH247386   2.086   2.408  12.464 -0.4512 -0.6470  0.4627
 8632TIP3    H147387   2.048   2.326  12.431 -0.8440 -0.3494  0.1676
 8632TIP3    H247388   2.137   2.382  12.540 -0.8018 -1.1308  0.5343
 8633TIP3   OH247389   3.840   3.925   5.930  0.4381 -0.6242 -0.1543
 8633TIP3    H147390   3.770   3.906   5.867  1.2404 -1.8478 -0.7213
 8633TIP3    H247391   3.837   3.851   5.991  0.0050  0.2937  0.9649
 8634TIP3   OH247392   0.329   5.718  13.818 -0.1844  0.4493  0.0138
 8634TIP3    H147393   0.324   5.707  13.723  1.6186 -0.7462  0.0064
 8634TIP3    H247394   0.238   5.719  13.847 -0.7939  1.3785 -1.7517
 8635TIP3   OH247395   0.605   4.083   0.938  0.6573 -0.5997  0.2386
 8635TIP3    H147396   0.560   4.167   0.931  4.0963  1.4581  0.5763
 8635TIP3    H247397   0.629   4.061   0.848  1.9092  0.1312  0.3726
 8636TIP3   OH247398   5.980   1.382  15.909  0.0240 -0.1763  0.4967
 8636TIP3    H147399   6.000   1.445  15.979  0.1471  1.9452 -1.3561
 8636TIP3    H247400   6.060   1.377  15.857 -0.1601 -1.5121  0.3013
 8637TIP3   OH247401   0.223   3.490  15.989  0.5517  0.0346 -0.1837
 8637TIP3    H147402   0.234   3.421  15.922 -0.3012 -0.2576 -0.0327
 8637TIP3    H247403   0.303   3.542  15.982 -0.3897  1.2861 -2.9056
 8638TIP3   OH247404   1.291   4.377  14.056 -0.3322  0.2190 -0.1100
 8638TIP3    H147405   1.217   4.424  14.018 -0.6642 -0.7312 -0.6877
 8638TIP3    H247406   1.257   4.289  14.073  0.5488 -0.1135 -0.0134
 8639TIP3   OH247407   4.214   5.823  12.000 -0.1059  0.3638 -0.2679
 8639TIP3    H147408   4.222   5.917  11.982 -0.1410  0.1857 -1.2281
 8639TIP3    H247409   4.144   5.817  12.065  0.1109  1.0243  0.0350
 8640TIP3   OH247410   4.274   3.471   2.028  0.2504 -0.4275  0.2312
 8640TIP3    H147411   4.198   3.528   2.019 -0.3920 -1.3519 -0.4386
 8640TIP3    H247412   4.243   3.396   2.079  1.4584  0.4307  2.3579
 8641TIP3   OH247413   6.601   1.821   6.345 -0.2609 -0.2065 -0.3764
 8641TIP3    H147414   6.510   1.796   6.360 -1.0027  2.0820 -0.6649
 8641TIP3    H247415   6.648   1.786   6.421 -1.9263  1.1577  1.3667
 8642TIP3   OH247416   2.965   6.245   1.781 -0.0158 -0.1242  0.5517
 8642TIP3    H147417   3.042   6.299   1.798  1.2080 -1.9144  0.9799
 8642TIP3    H247418   2.905   6.266   1.853  0.6631  0.2574  1.0169
 8643TIP3   OH247419   1.091   5.605  16.402 -0.1219 -0.1690 -0.5249
 8643TIP3    H147420   1.150   5.576  16.472 -0.0182 -0.0710 -0.5712
 8643TIP3    H247421   1.116   5.696  16.386  0.3072 -0.3871 -1.1477
 8644TIP3   OH247422   2.663   1.291   5.154 -0.3723  0.1988 -0.2731
 8644TIP3    H147423   2.727   1.281   5.224 -0.1335 -1.2004 -0.6620
 8644TIP3    H247424   2.605   1.216   5.164 -0.5650  0.1958 -1.3297
 8645TIP3   OH247425   1.819   2.502  11.312 -0.0353 -0.1728 -0.5103
 8645TIP3    H147426   1.847   2.446  11.240 -0.9250  0.3333 -1.2692
 8645TIP3    H247427   1.860   2.587  11.294 -1.0777  0.2498 -1.0169
 8646TIP3   OH247428   5.409   6.051  11.622 -0.7516  0.3181  0.0173
 8646TIP3    H147429   5.391   6.139  11.590  1.1612  0.8766  0.3413
 8646TIP3    H247430   5.332   6.000  11.599 -0.9597  1.5481 -2.1955
 8647TIP3   OH247431   0.909   1.344   4.165  0.1678 -0.3166  0.1714
 8647TIP3    H147432   0.961   1.331   4.244  0.4206  0.6358  0.1772
 8647TIP3    H247433   0.921   1.436   4.143 -1.0272 -0.2289 -0.1899
 8648TIP3   OH247434   3.757   1.368   6.580 -0.1328 -0.1616  0.1236
 8648TIP3    H147435   3.824   1.405   6.523  0.0132  0.6006  0.7714
 8648TIP3    H247436   3.770   1.412   6.664  0.1685 -1.8265  0.9941
 8649TIP3   OH247437   5.392   1.714   2.628 -0.0176 -0.4677  0.3177
 8649TIP3    H147438   5.342   1.790   2.658 -1.1581 -1.1481  0.2002
 8649TIP3    H247439   5.325   1.649   2.606  0.7743 -0.4521 -2.5346
 8650TIP3   OH247440   2.030   3.115   3.254 -0.3202 -0.0989 -0.2106
 8650TIP3    H147441   2.027   3.207   3.282  0.1602 -0.3514  0.7075
 8650TIP3    H247442   1.955   3.074   3.298 -0.1488 -0.2901 -0.0987
 8651TIP3   OH247443   4.938   6.346  14.594  0.8118  0.3519  1.0527
 8651TIP3    H147444   4.891   6.394  14.661 -0.5816 -1.6112  1.5619
 8651TIP3    H247445   4.953   6.410  14.524  0.3171  1.8560  2.2828
 8652TIP3   OH247446   0.299   0.262   5.591 -0.5033  0.2016  0.5303
 8652TIP3    H147447   0.319   0.237   5.681 -0.0495  0.4992  0.5128
 8652TIP3    H247448   0.346   0.344   5.578  0.3455 -0.4042 -0.3339
 8653TIP3   OH247449   1.856   6.096  16.959 -0.2385  0.5051  0.1339
 8653TIP3    H147450   1.945   6.129  16.948  0.1562 -0.2805  0.8613
 8653TIP3    H247451   1.805   6.173  16.985 -0.2735  1.4429 -2.4751
 8654TIP3   OH247452   5.466   3.424  12.005  0.3605  0.2788 -0.0695
 8654TIP3    H147453   5.511   3.375  11.937 -0.4240  0.0981 -0.4705
 8654TIP3    H247454   5.417   3.491  11.958 -0.7938 -0.3225  0.2355
 8655TIP3   OH247455   6.420   4.845  16.659 -0.4645 -0.1306  0.0741
 8655TIP3    H147456   6.392   4.937  16.662 -2.2076 -0.5970 -0.8896
 8655TIP3    H247457   6.380   4.805  16.736 -2.3861 -0.7496 -1.1899
 8656TIP3   OH247458   0.418   1.290   5.876  0.1462 -0.1503  0.2075
 8656TIP3    H147459   0.481   1.307   5.806 -1.6796  2.2629 -1.0100
 8656TIP3    H247460   0.377   1.206   5.852 -0.4805  0.6515 -1.7132
 8657TIP3   OH247461   2.887   4.817   0.218 -0.3505  0.0663 -0.4034
 8657TIP3    H147462   2.813   4.877   0.209 -0.6580 -0.3300 -0.5493
 8657TIP3    H247463   2.955   4.854   0.161 -0.2858  0.6595  0.0555
 8658TIP3   OH247464   0.355   6.171  15.156 -0.0107  0.0296 -0.1429
 8658TIP3    H147465   0.343   6.266  15.152  1.1343  0.2597  1.2468
 8658TIP3    H247466   0.267   6.136  15.168 -0.6386  0.7742 -2.1000
 8659TIP3   OH247467   4.604   6.752   0.829 -0.3690 -0.0101 -0.1424
 8659TIP3    H147468   4.675   6.781   0.773 -1.0495  0.0338 -1.0151
 8659TIP3    H247469   4.561   6.832   0.858 -0.3474 -0.0485 -0.0037
 8660TIP3   OH247470   5.293   0.938  14.768  0.3271  0.2777 -0.5240
 8660TIP3    H147471   5.363   0.989  14.811  0.3914 -1.1375  1.1578
 8660TIP3    H247472   5.214   0.990  14.783  0.5509  0.4156  0.2839
 8661TIP3   OH247473   5.604   4.533   5.012  0.1085 -0.6562  0.2427
 8661TIP3    H147474   5.523   4.583   5.021  1.1638  1.1845 -0.0990
 8661TIP3    H247475   5.668   4.580   5.065  1.0226 -1.9842  0.3756
 8662TIP3   OH247476   4.840   5.769  10.790 -0.5172 -0.3689 -0.1749
 8662TIP3    H147477   4.852   5.696  10.729 -3.4029 -1.7281  0.7057
 8662TIP3    H247478   4.787   5.832  10.741 -2.0607 -1.0568  0.5463
 8663TIP3   OH247479   2.872   2.763   5.012  0.0504  0.6091  0.1325
 8663TIP3    H147480   2.959   2.724   4.998 -0.7143 -0.7849 -1.0806
 8663TIP3    H247481   2.838   2.718   5.090 -1.3194 -2.3146 -1.9341
 8664TIP3   OH247482   0.061   0.546   1.387 -0.2451 -0.0092 -0.1108
 8664TIP3    H147483  -0.013   0.592   1.425 -0.5778 -0.2892 -0.4161
 8664TIP3    H247484   0.022   0.474   1.337  0.3123 -1.6606  1.7020
 8665TIP3   OH247485   0.223   3.582   3.569 -0.2332 -0.0904  0.3483
 8665TIP3    H147486   0.156   3.649   3.583  0.2286  0.8149 -1.5723
 8665TIP3    H247487   0.173   3.501   3.553 -0.8158  0.2085  0.6232
 8666TIP3   OH247488   3.869   4.851   6.033  0.5006  0.6212 -0.5414
 8666TIP3    H147489   3.793   4.904   6.056 -0.1839 -0.1440 -0.9843
 8666TIP3    H247490   3.854   4.766   6.074  0.6713  0.1752 -1.3621
 8667TIP3   OH247491   2.392   1.524   4.025  0.4888  0.9354  0.6895
 8667TIP3    H147492   2.349   1.608   4.044  2.1226  2.2625 -1.0280
 8667TIP3    H247493   2.465   1.548   3.968  0.8687 -1.7216 -0.0493
 8668TIP3   OH247494   2.688   5.422  11.482  0.1496  0.5093 -0.6393
 8668TIP3    H147495   2.679   5.335  11.443 -0.7905 -0.0125  0.6678
 8668TIP3    H247496   2.602   5.463  11.469  0.1962  0.7665 -0.1577
 8669TIP3   OH247497   2.102   1.214   4.532 -0.9334 -0.1881  0.0460
 8669TIP3    H147498   2.149   1.297   4.537  0.2706 -0.9119  2.8215
 8669TIP3    H247499   2.169   1.150   4.508 -2.1590 -0.2888 -3.7728
 8670TIP3   OH247500   2.023   2.826   3.740 -0.8323  0.4702  0.8806
 8670TIP3    H147501   2.106   2.849   3.697 -0.6163  1.0888  1.5903
 8670TIP3    H247502   2.012   2.732   3.724 -0.5665  0.6131 -0.1735
 8671TIP3   OH247503   1.171   0.086   2.930 -0.1199  0.2714  0.3009
 8671TIP3    H147504   1.149  -0.006   2.947 -1.3102  0.5647  0.3908
 8671TIP3    H247505   1.247   0.082   2.872  0.6360 -0.7632  1.3191
 8672TIP3   OH247506   3.614   3.721   1.954  0.4723  0.6223 -0.3523
 8672TIP3    H147507   3.543   3.784   1.957  0.2748  0.4694 -1.3414
 8672TIP3    H247508   3.662   3.743   1.874 -0.0554 -0.9252 -1.1452
 8673TIP3   OH247509   6.668   1.080  14.658  0.3632 -0.4201 -0.4424
 8673TIP3    H147510   6.718   1.080  14.740 -2.2567  0.7045  1.3063
 8673TIP3    H247511   6.704   1.152  14.607  0.5535  0.3574  0.7522
 8674TIP3   OH247512   4.179   4.175  16.897 -0.5786 -0.3323 -0.3521
 8674TIP3    H147513   4.274   4.172  16.899 -0.5794 -0.4146 -0.4740
 8674TIP3    H247514   4.157   4.196  16.807 -0.7073 -1.6181 -0.6489
 8675TIP3   OH247515   4.850   3.327  14.121  0.1068 -0.3019 -0.1183
 8675TIP3    H147516   4.859   3.402  14.062 -0.5037  1.7550  2.2081
 8675TIP3    H247517   4.780   3.274  14.083  1.2123 -0.2684 -2.3347
 8676TIP3   OH247518   4.643   0.523  13.807 -0.3879  0.2069 -0.3760
 8676TIP3    H147519   4.570   0.579  13.779 -2.3447 -2.3659 -0.8550
 8676TIP3    H247520   4.602   0.460  13.866  2.4056  1.4424  3.2736
 8677TIP3   OH247521   2.069   0.620  12.121 -0.3600  0.9234 -0.0614
 8677TIP3    H147522   1.981   0.649  12.141 -1.5266 -1.2680 -1.5764
 8677TIP3    H247523   2.066   0.596  12.028  1.1294 -1.4279  0.3958
 8678TIP3   OH247524   3.669   2.562   3.723  0.3404 -0.0941 -0.2036
 8678TIP3    H147525   3.633   2.569   3.812  1.6688  2.6166  0.2383
 8678TIP3    H247526   3.593   2.546   3.667 -1.1310  2.0667  1.0467
 8679TIP3   OH247527   4.936   4.358  12.405  0.5981  0.6548 -0.5924
 8679TIP3    H147528   4.926   4.391  12.494 -2.5794  0.6975 -0.8435
 8679TIP3    H247529   4.972   4.433  12.356  1.2239  1.0255  0.4185
 8680TIP3   OH247530   0.769   6.799   1.794 -0.1958  0.1972 -0.4661
 8680TIP3    H147531   0.756   6.893   1.788 -0.6112  0.2712  1.0871
 8680TIP3    H247532   0.684   6.761   1.771  0.3351  0.1033 -2.4485
 8681TIP3   OH247533   1.658   5.591   4.288  0.4070  0.6251 -0.1008
 8681TIP3    H147534   1.569   5.592   4.323 -0.1219 -0.7565 -1.3122
 8681TIP3    H247535   1.703   5.522   4.338  1.3059  2.3110  1.5548
 8682TIP3   OH247536   5.957   4.906  16.337  0.3385 -0.0029 -0.2833
 8682TIP3    H147537   5.986   4.959  16.411 -0.8581  0.8090 -0.3652
 8682TIP3    H247538   5.894   4.845  16.374  0.3406 -0.1449 -0.5101
 8683TIP3   OH247539   0.137   1.287  12.433  0.0648 -0.5735  0.6959
 8683TIP3    H147540   0.135   1.253  12.344 -0.6044  1.3780 -0.0753
 8683TIP3    H247541   0.220   1.333  12.440 -1.0328  1.6394  0.0895
 8684TIP3   OH247542   5.635   1.433   1.992  0.0377  0.0251  0.2915
 8684TIP3    H147543   5.702   1.500   1.985  0.3752 -0.2251  1.0140
 8684TIP3    H247544   5.683   1.350   1.991 -0.4772 -0.3266 -2.2603
 8685TIP3   OH247545   6.780   0.513  16.698  0.3136 -0.5223 -0.4769
 8685TIP3    H147546   6.759   0.421  16.717  1.2121 -0.5366  0.5326
 8685TIP3    H247547   6.864   0.510  16.654  0.5432 -0.1673 -0.0740
 8686TIP3   OH247548   3.820   3.617  14.494  0.4661  0.2701 -0.4260
 8686TIP3    H147549   3.761   3.547  14.522  1.8244 -0.4194  0.8737
 8686TIP3    H247550   3.901   3.601  14.543  0.4667  3.4614  0.8469
 8687TIP3   OH247551   2.800   1.492   5.720  0.0868  0.5042  0.0591
 8687TIP3    H147552   2.848   1.571   5.693  0.7648  0.4903  1.1472
 8687TIP3    H247553   2.853   1.455   5.791  0.3072 -1.4923 -1.0649
 8688TIP3   OH247554   3.575   4.528   4.575  0.0671  0.2622  0.3603
 8688TIP3    H147555   3.662   4.567   4.574 -0.1326  0.7165 -1.2268
 8688TIP3    H247556   3.538   4.548   4.489 -1.3488 -0.5091  0.7534
 8689TIP3   OH247557   4.966   1.475   1.976  0.3668 -0.2769  0.2864
 8689TIP3    H147558   4.907   1.477   2.051 -0.3507 -0.0046 -0.2732
 8689TIP3    H247559   4.928   1.410   1.917  2.5179 -2.7280  1.3957
 8690TIP3   OH247560   1.955   0.957   3.332 -0.6267 -0.3358  0.4734
 8690TIP3    H147561   1.865   0.933   3.311 -0.2960 -0.7865 -0.4903
 8690TIP3    H247562   2.006   0.931   3.255  0.4768 -0.9587  1.3711
 8691TIP3   OH247563   4.032   0.299  14.483 -0.1573 -0.1245  0.1236
 8691TIP3    H147564   4.018   0.206  14.467  0.3873  0.0084 -1.2374
 8691TIP3    H247565   3.961   0.324  14.541  0.0647 -1.5248  1.0597
 8692TIP3   OH247566   6.007   5.771  10.767  0.8975 -0.3722 -0.4670
 8692TIP3    H147567   5.953   5.693  10.756  1.4608 -0.6523 -1.3421
 8692TIP3    H247568   6.031   5.770  10.860 -3.0285  1.4326  0.7875
 8693TIP3   OH247569   2.299   3.203   1.183  0.2165 -0.0918  0.5846
 8693TIP3    H147570   2.387   3.166   1.179 -0.0663 -0.6576 -0.7691
 8693TIP3    H247571   2.243   3.138   1.140 -1.0009 -0.1012  2.0976
 8694TIP3   OH247572   0.793   0.642  13.003  0.2527  0.2507  0.0999
 8694TIP3    H147573   0.832   0.706  13.063  0.1531 -0.4610  0.9377
 8694TIP3    H247574   0.804   0.681  12.916  1.0458  0.9670  0.5059
 8695TIP3   OH247575   5.808   1.194   2.450 -0.5414  0.1533  0.2070
 8695TIP3    H147576   5.736   1.132   2.446 -1.5920  1.3422  0.0882
 8695TIP3    H247577   5.777   1.271   2.403  1.0774  0.4463 -0.4650
 8696TIP3   OH247578   1.745   4.390  15.799 -0.3767  0.1543 -0.0619
 8696TIP3    H147579   1.778   4.473  15.834 -0.2345 -0.3776  1.1308
 8696TIP3    H247580   1.709   4.345  15.875  0.6753 -1.4042 -0.4417
 8697TIP3   OH247581   5.177   1.884   3.160  0.2989 -0.2426  0.9324
 8697TIP3    H147582   5.142   1.973   3.162 -0.1170 -0.4130  1.4616
 8697TIP3    H247583   5.200   1.870   3.068 -0.1467  0.2122  0.7470
 8698TIP3   OH247584   2.402   2.742  17.035  0.1157 -0.1439  0.0262
 8698TIP3    H147585   2.371   2.760  17.123 -0.1583 -0.0093 -0.0972
 8698TIP3    H247586   2.353   2.664  17.007  1.4303 -1.2325  0.6349
 8699TIP3   OH247587   5.823   0.893  14.930  0.1998  0.0562 -0.0551
 8699TIP3    H147588   5.891   0.868  14.992  0.0847  0.9078  0.4349
 8699TIP3    H247589   5.865   0.884  14.844  1.2770  1.4393  0.2723
 8700TIP3   OH247590   5.501   5.109  10.443 -0.2228  0.0313 -0.0912
 8700TIP3    H147591   5.458   5.178  10.493  0.8291  0.1187  0.7189
 8700TIP3    H247592   5.542   5.154  10.369 -0.1185  0.1851  0.0589
 8701TIP3   OH247593   3.402   4.037  12.348  0.1288  0.2723 -0.2537
 8701TIP3    H147594   3.350   3.961  12.375 -0.0900  0.7139  0.6071
 8701TIP3    H247595   3.493   4.010  12.360  0.1747 -0.7427 -2.3960
 8702TIP3   OH247596   5.012   0.263  17.045  0.1602 -0.0969  0.2330
 8702TIP3    H147597   4.960   0.309  16.978  0.6348  1.2804  0.7676
 8702TIP3    H247598   4.947   0.216  17.097 -0.3542 -0.0447 -0.3528
 8703TIP3   OH247599   1.700   5.692  16.842  0.1992 -0.5943 -0.1882
 8703TIP3    H147600   1.747   5.608  16.838  0.6962 -0.3594  0.4990
 8703TIP3    H247601   1.739   5.737  16.916 -2.1290 -1.0001  1.4038
 8704TIP3   OH247602   0.264   5.592   2.708 -0.0309  0.0851  0.3395
 8704TIP3    H147603   0.255   5.617   2.800  0.5874  0.5844  0.2648
 8704TIP3    H247604   0.336   5.529   2.707 -0.0463  0.0692  0.1950
 8705TIP3   OH247605   2.077   4.608  14.905  0.3397 -0.1974 -0.1836
 8705TIP3    H147606   2.041   4.535  14.855  0.1482  0.4818 -1.0464
 8705TIP3    H247607   2.036   4.686  14.867 -0.1031  0.3157  1.2723
 8706TIP3   OH247608   3.722   2.719   2.605 -0.2975  0.0285 -0.2056
 8706TIP3    H147609   3.682   2.736   2.520  0.3159 -0.8655 -0.6937
 8706TIP3    H247610   3.816   2.717   2.587 -0.0615  1.2471  0.7600
 8707TIP3   OH247611   0.795   6.053  13.610  0.4939  0.0250 -0.7903
 8707TIP3    H147612   0.744   6.033  13.688  1.1193 -0.0038 -0.3771
 8707TIP3    H247613   0.803   6.149  13.610  1.8497 -0.0560  0.0906
 8708TIP3   OH247614   6.738   3.188   0.191  0.2806 -0.2057  0.4893
 8708TIP3    H147615   6.719   3.102   0.155 -1.0723  0.7078 -1.1680
 8708TIP3    H247616   6.814   3.219   0.140 -2.1247  1.4204 -2.4850
 8709TIP3   OH247617   3.206   2.706   2.520 -0.0603 -0.1716 -0.0138
 8709TIP3    H147618   3.163   2.695   2.605 -0.3398  0.4372 -0.0746
 8709TIP3    H247619   3.141   2.675   2.457  0.5377 -1.6468  0.0392
 8710TIP3   OH247620   4.670   5.216   5.298  0.0161  0.0760 -0.0292
 8710TIP3    H147621   4.649   5.216   5.392  0.8109  0.3899  0.1519
 8710TIP3    H247622   4.656   5.126   5.270  0.7806 -0.2540  0.6247
 8711TIP3   OH247623   3.345   1.662   0.853  0.6087  0.8714  0.5919
 8711TIP3    H147624   3.270   1.637   0.798  1.1908  0.8885 -0.2220
 8711TIP3    H247625   3.384   1.580   0.880 -0.5323  0.8122  2.2291
 8712TIP3   OH247626   3.655   0.537   3.747 -0.6460  0.7823  0.2130
 8712TIP3    H147627   3.717   0.464   3.749 -2.3440 -0.6802  1.9387
 8712TIP3    H247628   3.710   0.613   3.724  1.4796 -0.6897  0.0914
 8713TIP3   OH247629   4.078   0.709   3.279 -0.1231  0.0810 -0.7748
 8713TIP3    H147630   4.010   0.654   3.240 -0.7458  0.6059 -0.4594
 8713TIP3    H247631   4.161   0.671   3.249 -0.5706  0.0520 -2.0170
 8714TIP3   OH247632   2.996   5.475   3.578  0.4527  0.1640 -0.0203
 8714TIP3    H147633   2.945   5.443   3.652 -1.1513  0.4922 -0.9405
 8714TIP3    H247634   2.990   5.404   3.513  1.7687 -0.0838  0.1068
 8715TIP3   OH247635   1.338   3.411  16.839  0.4438  0.3346  0.4046
 8715TIP3    H147636   1.340   3.443  16.929 -0.6727  1.6530  0.0090
 8715TIP3    H247637   1.412   3.454  16.797 -1.0069  2.5265 -0.1023
 8716TIP3   OH247638   1.923   4.786  11.747  0.0592 -0.1631  0.2070
 8716TIP3    H147639   1.892   4.775  11.657 -2.3320  0.6494  0.8486
 8716TIP3    H247640   2.001   4.841  11.738  0.5430 -1.0354 -1.4241
 8717TIP3   OH247641   2.274   4.556  12.858 -0.1654 -0.4026  0.1928
 8717TIP3    H147642   2.297   4.630  12.914  0.1537 -0.1845 -0.2141
 8717TIP3    H247643   2.298   4.478  12.909 -1.2932 -0.2609  0.9677
 8718TIP3   OH247644   6.617   4.682   2.177 -0.0627  0.1782  0.2716
 8718TIP3    H147645   6.555   4.744   2.139 -1.4869 -1.5064 -0.2763
 8718TIP3    H247646   6.663   4.646   2.101  2.0842  1.7931  0.6930
 8719TIP3   OH247647   3.952   1.334   3.077 -0.0889  0.4320 -0.3016
 8719TIP3    H147648   4.033   1.357   3.124 -0.2435 -0.5288  0.4712
 8719TIP3    H247649   3.904   1.417   3.070  1.2712  1.1596 -1.4258
 8720TIP3   OH247650   5.846   4.591   2.233  0.2716 -0.1264 -0.1260
 8720TIP3    H147651   5.754   4.613   2.223 -0.1537 -0.8834  1.8209
 8720TIP3    H247652   5.892   4.656   2.179 -1.1970  2.1775  1.2386
 8721TIP3   OH247653   4.135   4.984  13.874 -0.3031  0.1866  0.1639
 8721TIP3    H147654   4.210   5.001  13.930 -0.3404 -0.5154  0.4379
 8721TIP3    H247655   4.060   4.982  13.933 -0.2378 -1.3648  0.2215
 8722TIP3   OH247656   0.574   5.730  14.573 -0.1300 -0.1054 -0.5089
 8722TIP3    H147657   0.619   5.648  14.593 -0.4649  0.0429  0.9706
 8722TIP3    H247658   0.565   5.774  14.658 -0.9608  0.9438 -1.1155
 8723TIP3   OH247659   6.730   1.374   2.810 -0.3652  0.1356  0.3070
 8723TIP3    H147660   6.680   1.293   2.822  0.3947 -0.3396  0.3489
 8723TIP3    H247661   6.670   1.443   2.836 -0.7961 -0.4644  0.9388
 8724TIP3   OH247662   6.148   1.332  11.445 -0.0440 -0.3604  0.3274
 8724TIP3    H147663   6.176   1.423  11.437  3.1919 -1.2145  0.4573
 8724TIP3    H247664   6.149   1.298  11.355  0.0505 -0.5828  0.4102
 8725TIP3   OH247665   2.839   0.707  14.627 -0.0634 -0.0056  0.0503
 8725TIP3    H147666   2.770   0.736  14.687  0.1026 -0.5278  0.5006
 8725TIP3    H247667   2.838   0.612  14.634 -1.6881 -0.2739 -2.6211
 8726TIP3   OH247668   0.533   1.876  13.950  0.5592  0.0267 -0.4755
 8726TIP3    H147669   0.538   1.825  14.030  1.8117 -0.5502 -0.9077
 8726TIP3    H247670   0.518   1.966  13.980  1.3312 -0.1301  0.4139
 8727TIP3   OH247671   4.916   2.291  14.791 -0.4818 -0.2749 -0.0011
 8727TIP3    H147672   5.008   2.313  14.809  0.2743 -1.6156 -1.8569
 8727TIP3    H247673   4.873   2.298  14.876  1.9174 -2.1959  1.5249
 8728TIP3   OH247674   6.292   3.563  15.286 -0.3269 -0.4588  0.0758
 8728TIP3    H147675   6.286   3.656  15.306 -1.4293 -0.2713 -1.0292
 8728TIP3    H247676   6.302   3.559  15.191  0.0878 -1.4638  0.1430
 8729TIP3   OH247677   4.202   2.777  11.352  0.1064  0.3088  0.4837
 8729TIP3    H147678   4.270   2.843  11.338  0.4662 -0.1733 -0.0741
 8729TIP3    H247679   4.219   2.745  11.441  0.3374  0.5032  0.5109
 8730TIP3   OH247680   2.590   2.123   3.583 -0.6445 -0.1169  0.3185
 8730TIP3    H147681   2.558   2.194   3.637 -0.0357  0.0767  0.4287
 8730TIP3    H247682   2.659   2.082   3.635 -0.5292 -0.3618 -0.0228
 8731TIP3   OH247683   0.945   4.388   4.889  0.0304  0.4206  0.4241
 8731TIP3    H147684   1.039   4.390   4.903  0.1355  1.9296 -0.2732
 8731TIP3    H247685   0.920   4.298   4.907  1.7161 -0.1904 -0.0764
 8732TIP3   OH247686   4.645   1.173   2.315 -0.2154  0.4324 -0.0129
 8732TIP3    H147687   4.670   1.154   2.224 -1.4592  1.4977 -0.6086
 8732TIP3    H247688   4.614   1.263   2.312  0.0634  0.5967  1.5664
 8733TIP3   OH247689   2.492   2.134  16.367 -0.3962  0.4192  0.1296
 8733TIP3    H147690   2.513   2.214  16.414 -0.0961  0.7283 -0.5203
 8733TIP3    H247691   2.551   2.068  16.403  0.0725  0.7344 -0.0609
 8734TIP3   OH247692   4.352   3.954  12.594 -0.1604  0.1954 -0.7707
 8734TIP3    H147693   4.284   4.002  12.642 -0.2191  0.4711 -1.1266
 8734TIP3    H247694   4.340   3.981  12.503 -0.6267 -0.9901 -1.0844
 8735TIP3   OH247695   0.441   1.659  14.703 -0.1983 -0.0284  0.1876
 8735TIP3    H147696   0.431   1.748  14.735 -3.1300 -0.9626  2.4101
 8735TIP3    H247697   0.523   1.629  14.741  0.7512  1.6406 -0.4615
 8736TIP3   OH247698   5.412   1.142  12.064 -0.3543  0.3731 -0.3408
 8736TIP3    H147699   5.366   1.223  12.086 -2.8085 -0.7537 -0.9209
 8736TIP3    H247700   5.349   1.073  12.085  1.2709 -1.3154 -0.8289
 8737TIP3   OH247701   2.268   4.189   2.818 -0.1530  0.0284 -0.4961
 8737TIP3    H147702   2.189   4.232   2.850  0.6014  0.1586  1.2828
 8737TIP3    H247703   2.340   4.242   2.851  0.7276 -0.9992 -0.6985
 8738TIP3   OH247704   3.895   5.741   6.064  0.1298  0.2569 -0.4492
 8738TIP3    H147705   3.917   5.820   6.112  1.0462  0.9886 -1.9688
 8738TIP3    H247706   3.876   5.771   5.975 -1.2022 -1.0550 -0.6545
 8739TIP3   OH247707   2.524   1.395  14.589 -0.0153  0.7877  0.1365
 8739TIP3    H147708   2.522   1.403  14.685 -1.4410 -0.3641  0.2400
 8739TIP3    H247709   2.555   1.480  14.558  1.2029  0.9313  1.6440
 8740TIP3   OH247710   2.855   6.138  14.255  0.3087  0.0263 -0.5013
 8740TIP3    H147711   2.838   6.220  14.301 -0.7801 -0.4009 -0.1011
 8740TIP3    H247712   2.841   6.070  14.321  3.4928 -0.4406 -0.1622
 8741TIP3   OH247713   1.588   2.565   5.431  0.2599 -0.3843  0.0880
 8741TIP3    H147714   1.596   2.600   5.342  2.5314 -0.6632  0.1270
 8741TIP3    H247715   1.651   2.493   5.435  0.3329 -0.2726  1.9610
 8742TIP3   OH247716   5.826   5.525  12.224 -0.6995  0.4978  0.3197
 8742TIP3    H147717   5.889   5.596  12.214 -0.6844  0.6575  1.4632
 8742TIP3    H247718   5.741   5.565  12.207 -0.4467 -0.0368 -2.7450
 8743TIP3   OH247719   2.638   2.518  14.749 -0.6231  0.1708  0.3232
 8743TIP3    H147720   2.624   2.542  14.840 -0.4207 -1.7313  0.8969
 8743TIP3    H247721   2.729   2.544  14.731  0.1311 -1.4934  1.4225
 8744TIP3   OH247722   1.360   4.522  14.985  0.2915 -0.4104  0.0686
 8744TIP3    H147723   1.445   4.509  15.028 -0.0110 -1.1376  0.4672
 8744TIP3    H247724   1.343   4.615  14.992  1.7537  0.0170 -1.3353
 8745TIP3   OH247725   1.529   4.464  10.954 -0.0256  0.0040 -0.5431
 8745TIP3    H147726   1.586   4.465  10.876  0.0646  2.1890 -0.4949
 8745TIP3    H247727   1.558   4.386  11.003  2.3868  0.5783 -0.9206
 8746TIP3   OH247728   3.359   3.277  15.046 -0.2713  0.2369  0.1172
 8746TIP3    H147729   3.410   3.315  15.118  2.3050 -0.2896 -1.3176
 8746TIP3    H247730   3.289   3.341  15.031  0.4549  1.4616  1.6207
 8747TIP3   OH247731   3.837   1.557   6.117  0.3256  0.0741 -0.5146
 8747TIP3    H147732   3.781   1.481   6.127  1.2645 -0.4146  1.4699
 8747TIP3    H247733   3.792   1.627   6.165  0.9344 -0.0711  0.2842
 8748TIP3   OH247734   0.389   4.022  11.191  0.5904 -0.5184 -0.4403
 8748TIP3    H147735   0.419   4.075  11.117 -2.0301  2.1885  0.2864
 8748TIP3    H247736   0.297   4.003  11.171  0.7647 -2.7435  0.5530
 8749TIP3   OH247737   2.211   1.963   4.454 -0.2538 -0.3767  0.1661
 8749TIP3    H147738   2.135   1.958   4.511 -0.7966 -1.5693 -0.6356
 8749TIP3    H247739   2.175   1.965   4.365  0.5927  1.0125 -0.1824
 8750TIP3   OH247740   1.028   6.668  17.185 -0.0101  0.2289 -0.6558
 8750TIP3    H147741   0.993   6.746  17.143 -0.6198  0.7525  0.7427
 8750TIP3    H247742   0.954   6.607  17.188  0.0150  0.2137 -0.3184
 8751TIP3   OH247743   6.386   2.676  11.237 -0.1938  0.2368  0.6566
 8751TIP3    H147744   6.319   2.639  11.178 -0.2537  0.5695  0.5108
 8751TIP3    H247745   6.450   2.606  11.248  0.3598  0.4910 -0.6463
 8752TIP3   OH247746   1.660   2.747   4.646  0.2074 -0.5848 -0.9642
 8752TIP3    H147747   1.705   2.824   4.610  2.9551 -2.0928 -1.0702
 8752TIP3    H247748   1.682   2.748   4.740 -1.7986  0.0253 -0.4574
 8753TIP3   OH247749   4.698   0.238  13.760  1.0339 -0.0459  0.2295
 8753TIP3    H147750   4.723   0.329  13.777  2.0191 -0.5054  1.3755
 8753TIP3    H247751   4.656   0.209  13.841 -2.8624  0.4724 -1.3591
 8754TIP3   OH247752   0.575   4.103  16.585  0.2549  0.3212 -0.2379
 8754TIP3    H147753   0.561   4.196  16.606 -1.5556 -0.2693  1.3762
 8754TIP3    H247754   0.575   4.059  16.670 -1.8637 -1.5101 -1.0992
 8755TIP3   OH247755   3.332   2.861   6.061  0.6616 -0.0877  0.4204
 8755TIP3    H147756   3.294   2.859   6.148  0.9990  0.6298  0.5961
 8755TIP3    H247757   3.298   2.942   6.022  0.4426 -0.4451 -0.1483
 8756TIP3   OH247758   5.201   3.681   1.418 -0.5120 -0.7124  0.4993
 8756TIP3    H147759   5.117   3.707   1.380 -0.1760 -1.2569 -0.6329
 8756TIP3    H247760   5.231   3.760   1.464 -2.3188 -0.9396  2.2097
 8757TIP3   OH247761   6.650   0.759  14.184  0.4626 -0.5290  0.3892
 8757TIP3    H147762   6.608   0.826  14.131 -0.4386 -1.5964 -0.2875
 8757TIP3    H247763   6.645   0.792  14.274  0.2939  0.4322  0.0335
 8758TIP3   OH247764   2.424   3.896  14.712 -0.6661 -0.0474  0.1643
 8758TIP3    H147765   2.476   3.972  14.739 -0.5256  0.3057 -1.0608
 8758TIP3    H247766   2.436   3.833  14.783  0.1862  0.6157  0.6298
 8759TIP3   OH247767   3.534   5.995  16.592  1.0365 -0.8952 -0.5958
 8759TIP3    H147768   3.565   5.995  16.502  0.2967  1.3608 -0.9317
 8759TIP3    H247769   3.603   6.040  16.641  0.7873 -0.8206 -0.3082
 8760TIP3   OH247770   2.033   5.474  10.668 -0.2104  0.3196  0.1836
 8760TIP3    H147771   2.004   5.503  10.582 -1.1433 -0.8006  0.0919
 8760TIP3    H247772   1.982   5.394  10.684 -0.4360  0.8045  2.0109
 8761TIP3   OH247773   6.316   1.154  11.572 -0.1425 -0.1766  0.0334
 8761TIP3    H147774   6.262   1.219  11.528  0.3036  0.5747  0.5744
 8761TIP3    H247775   6.401   1.158  11.527  0.6439  1.3099  1.5434
 8762TIP3   OH247776   3.559   2.805  14.339  0.6028 -0.1178 -0.2219
 8762TIP3    H147777   3.488   2.821  14.401  0.7123  0.1731 -0.1723
 8762TIP3    H247778   3.530   2.727  14.290 -0.3774  0.7686 -1.1150
 8763TIP3   OH247779   1.447   5.573  13.370 -0.0040 -0.5239  0.3490
 8763TIP3    H147780   1.441   5.645  13.433  0.3098 -0.4746  0.3254
 8763TIP3    H247781   1.387   5.597  13.299 -0.2125 -0.4867  0.5376
 8764TIP3   OH247782   2.675   3.033  11.800  0.0120 -0.2757  0.5673
 8764TIP3    H147783   2.714   3.073  11.723  0.5054 -0.8213  0.5218
 8764TIP3    H247784   2.682   2.939  11.783  0.6733 -0.4159  1.5362
 8765TIP3   OH247785   3.275   2.084   3.872 -0.4197  0.8133  0.0169
 8765TIP3    H147786   3.235   2.150   3.928  0.0655  1.7155 -0.6592
 8765TIP3    H247787   3.341   2.133   3.821  0.5732 -0.3611  0.1283
 8766TIP3   OH247788   0.580   2.934   0.150 -0.3049  0.1329 -1.1106
 8766TIP3    H147789   0.512   2.975   0.204  1.0584 -0.2754  1.0292
 8766TIP3    H247790   0.662   2.966   0.187  0.7172 -1.0650 -2.2517
 8767TIP3   OH247791   6.391   4.936   5.019 -0.1640  0.0757 -0.3062
 8767TIP3    H147792   6.410   5.019   5.063 -1.7016  0.0472  0.4894
 8767TIP3    H247793   6.463   4.924   4.957  0.8065  1.3097  0.5412
 8768TIP3   OH247794   1.978   0.992  12.915  0.1275  0.2850 -0.8998
 8768TIP3    H147795   1.912   0.946  12.968 -0.3452  1.4092 -0.4832
 8768TIP3    H247796   2.049   1.010  12.976 -0.0050  0.7325 -0.8685
 8769TIP3   OH247797   1.235   4.427  11.093 -0.0748 -0.1588  0.9803
 8769TIP3    H147798   1.237   4.386  11.180  1.8206 -1.3405  0.4399
 8769TIP3    H247799   1.320   4.470  11.086 -0.0213 -0.4557 -0.4554
 8770TIP3   OH247800   2.711   2.311   3.828  0.1598 -0.6474  0.0799
 8770TIP3    H147801   2.712   2.338   3.736  0.9625  0.4866  0.4048
 8770TIP3    H247802   2.727   2.391   3.877  1.7893 -1.5556  1.1268
 8771TIP3   OH247803   6.691   2.234  16.762  0.5257 -0.0052  0.1317
 8771TIP3    H147804   6.739   2.310  16.729  0.4067 -0.3703 -0.9024
 8771TIP3    H247805   6.730   2.160  16.717  1.3158 -0.7079  1.8559
 8772TIP3   OH247806   4.729   5.431   0.306 -0.4117  0.5082 -0.2220
 8772TIP3    H147807   4.730   5.507   0.248 -0.2624  0.5644 -0.1463
 8772TIP3    H247808   4.775   5.363   0.257  1.9345  1.2598  0.7741
 8773TIP3   OH247809   2.757   1.483   1.240 -0.6535  0.0068  0.3565
 8773TIP3    H147810   2.801   1.402   1.266  0.4828  0.6670  0.5774
 8773TIP3    H247811   2.731   1.468   1.149 -0.7723 -0.7352  0.5073
 8774TIP3   OH247812   1.352   1.939   2.781  0.4535 -0.3876 -0.2913
 8774TIP3    H147813   1.300   2.009   2.821  1.7168  0.1317  0.4727
 8774TIP3    H247814   1.295   1.905   2.711 -0.7091  0.4914  0.1865
 8775TIP3   OH247815   4.603   4.075  15.397 -0.0785  0.1288  0.0408
 8775TIP3    H147816   4.511   4.059  15.416 -0.0508  1.0358  1.0322
 8775TIP3    H247817   4.630   4.000  15.343 -0.7461 -1.4606  1.7944
 8776TIP3   OH247818   1.623   2.177  15.176  0.4513 -0.3268 -0.1199
 8776TIP3    H147819   1.608   2.164  15.082 -0.2220 -0.4214 -0.0024
 8776TIP3    H247820   1.717   2.161  15.187  0.7476  0.6870 -0.9466
 8777TIP3   OH247821   6.104   5.930  12.425  0.1133 -0.3877  0.0822
 8777TIP3    H147822   6.134   6.006  12.375 -1.0522  0.8429  1.1496
 8777TIP3    H247823   6.072   5.967  12.508  0.3440 -2.1571  1.0161
 8778TIP3   OH247824   4.706   1.928   5.587  0.0868  0.4095 -0.0568
 8778TIP3    H147825   4.684   1.912   5.679  2.4001  0.8974  0.6604
 8778TIP3    H247826   4.683   2.019   5.571 -0.6875  0.2116 -0.0967
 8779TIP3   OH247827   5.260   6.715  11.710  0.0002 -0.1645  0.5835
 8779TIP3    H147828   5.253   6.808  11.688  1.2811  0.1408  1.3013
 8779TIP3    H247829   5.173   6.690  11.740 -0.5940  0.5569 -0.4825
 8780TIP3   OH247830   3.188   6.054  13.730 -0.8191  0.6152 -0.0866
 8780TIP3    H147831   3.131   6.037  13.806 -0.6283  0.7297  0.0839
 8780TIP3    H247832   3.168   6.144  13.704 -0.0871  0.9688  0.5252
 8781TIP3   OH247833   5.750   1.249  17.118 -0.0491 -0.2691 -0.2450
 8781TIP3    H147834   5.826   1.257  17.059 -0.6924 -0.7497 -1.1716
 8781TIP3    H247835   5.764   1.316  17.185  0.6634  0.3643 -1.0034
 8782TIP3   OH247836   0.895   3.816  16.110  0.3743 -0.3676 -0.4903
 8782TIP3    H147837   0.939   3.731  16.105  0.6409 -0.3033  0.5823
 8782TIP3    H247838   0.963   3.879  16.084  0.8217 -0.3067  0.7601
 8783TIP3   OH247839   1.920   1.911   5.890  0.1050  0.0708  0.4689
 8783TIP3    H147840   1.854   1.859   5.937 -0.4039  1.3224  1.1751
 8783TIP3    H247841   1.902   1.895   5.798 -1.5319  0.7667  0.6264
 8784TIP3   OH247842   4.207   3.088  11.186 -0.0630 -0.1633  0.0613
 8784TIP3    H147843   4.215   3.095  11.091  1.6800 -0.7953  0.1167
 8784TIP3    H247844   4.297   3.070  11.216 -0.3666  1.1213  1.9221
 8785TIP3   OH247845   5.922   3.577   1.502 -0.2202  0.2670 -0.1001
 8785TIP3    H147846   5.992   3.632   1.537 -0.7008  0.8033  0.0266
 8785TIP3    H247847   5.930   3.586   1.407  0.3046 -0.2099 -0.1045
 8786TIP3   OH247848   0.321   1.449   4.804 -0.0469  0.0744 -0.4199
 8786TIP3    H147849   0.290   1.364   4.773 -1.4788  0.4980 -0.2287
 8786TIP3    H247850   0.415   1.447   4.788  0.8340 -3.1925  3.3304
 8787TIP3   OH247851   1.706   3.799   4.744  0.2219  0.3359  0.2651
 8787TIP3    H147852   1.743   3.792   4.832 -2.0932  0.0728  1.2847
 8787TIP3    H247853   1.720   3.713   4.704 -1.2620 -0.5407  1.5049
 8788TIP3   OH247854   6.006   4.894   2.338 -0.4560 -0.2699  0.1670
 8788TIP3    H147855   5.975   4.871   2.250 -0.8237 -0.8554  0.4403
 8788TIP3    H247856   5.927   4.919   2.385 -0.3378 -0.5087  0.4942
 8789TIP3   OH247857   2.318   6.038   5.433  0.3218  0.3666  0.0337
 8789TIP3    H147858   2.259   6.084   5.373  0.1075  0.1810  0.1032
 8789TIP3    H247859   2.382   5.996   5.375 -0.8564 -1.2213 -0.1968
 8790TIP3   OH247860   1.783   4.195   4.247  0.3463 -0.0296 -0.2479
 8790TIP3    H147861   1.771   4.287   4.224  1.1353  0.2958  0.5705
 8790TIP3    H247862   1.868   4.172   4.209  0.8981  0.0527  0.9087
 8791TIP3   OH247863   3.663   2.189   0.025 -0.1778  0.0025  0.0643
 8791TIP3    H147864   3.658   2.194   0.120 -0.0384  1.2229  0.0303
 8791TIP3    H247865   3.728   2.121   0.007  0.7216  0.6235  0.8742
 8792TIP3   OH247866   4.288   0.927   0.677 -0.5256  0.4155  0.8649
 8792TIP3    H147867   4.318   1.018   0.674 -0.4537  0.3628 -1.1481
 8792TIP3    H247868   4.366   0.875   0.657 -0.7142 -0.0565  1.3449
 8793TIP3   OH247869   6.296   4.115   1.579 -0.1735 -0.1129 -0.2734
 8793TIP3    H147870   6.368   4.052   1.575 -0.8022 -0.8383 -0.2587
 8793TIP3    H247871   6.306   4.168   1.500  0.9470  0.4379  0.2046
 8794TIP3   OH247872   3.861   3.018  11.818  0.2621 -0.5593  0.4025
 8794TIP3    H147873   3.816   3.056  11.894  1.5701  0.9787  0.4770
 8794TIP3    H247874   3.915   2.949  11.855  0.8228  0.1235  0.9025
 8795TIP3   OH247875   0.438   2.180   3.916  0.2079 -0.3021 -0.5673
 8795TIP3    H147876   0.491   2.166   3.993  0.6048  1.6329 -0.4273
 8795TIP3    H247877   0.399   2.095   3.897 -0.4960 -0.6904  2.1858
 8796TIP3   OH247878   2.690   3.388   0.881  0.1963 -0.1603 -0.8012
 8796TIP3    H147879   2.669   3.481   0.888 -1.1665 -0.5735  2.7678
 8796TIP3    H247880   2.632   3.355   0.812 -0.4129  1.3728 -1.0551
 8797TIP3   OH247881   1.928   1.680   5.331 -0.1090 -0.1834  0.3928
 8797TIP3    H147882   1.925   1.717   5.419 -1.8553  1.3997 -0.2621
 8797TIP3    H247883   1.842   1.639   5.319 -0.1980  0.3116 -0.8184
 8798TIP3   OH247884   0.896   0.515   5.149 -0.8837  0.6279  0.3666
 8798TIP3    H147885   0.976   0.514   5.201  0.0385  0.6411 -1.0022
 8798TIP3    H247886   0.882   0.423   5.124 -0.5997  0.7804 -0.3958
 8799TIP3   OH247887   4.774   3.430   1.812 -0.0148 -0.1463  0.1871
 8799TIP3    H147888   4.859   3.464   1.841  0.4797 -1.0945 -0.1230
 8799TIP3    H247889   4.715   3.505   1.818  1.0263  0.7355 -0.3868
 8800TIP3   OH247890   2.155   3.726   4.755 -0.1481  0.3559  0.1777
 8800TIP3    H147891   2.207   3.806   4.745 -1.4747  1.1947 -0.3474
 8800TIP3    H247892   2.100   3.724   4.677  0.9543 -1.9474 -0.6221
 8801TIP3   OH247893   6.096   3.593  14.503 -0.0730 -0.0207  0.4486
 8801TIP3    H147894   6.014   3.593  14.551  0.5539  2.2232  1.6769
 8801TIP3    H247895   6.150   3.528  14.549 -0.5748 -0.2579  0.7161
 8802TIP3   OH247896   0.871   5.612   3.463  0.1540 -0.3273 -0.6502
 8802TIP3    H147897   0.885   5.693   3.414  0.8639 -0.3121 -0.4440
 8802TIP3    H247898   0.938   5.552   3.429  1.8464  0.2205  1.4598
 8803TIP3   OH247899   4.275   1.021  12.386 -0.0642  0.0173 -0.2487
 8803TIP3    H147900   4.255   1.109  12.353 -5.0587 -1.1778 -1.2886
 8803TIP3    H247901   4.348   0.991  12.333  0.7175  2.9095 -0.9754
 8804TIP3   OH247902   4.298   6.574   5.888  0.2504 -0.3868 -0.1356
 8804TIP3    H147903   4.323   6.564   5.980  0.4234 -1.3485 -0.2772
 8804TIP3    H247904   4.203   6.561   5.889  0.1801  0.0964 -0.0344
 8805TIP3   OH247905   3.948   1.095   5.154 -0.1366  0.3036  0.1925
 8805TIP3    H147906   4.039   1.105   5.127  0.0185  1.4970  1.0881
 8805TIP3    H247907   3.945   1.132   5.242 -0.7109 -2.9735  1.7223
 8806TIP3   OH247908   0.417   3.231  12.939 -0.2619 -0.0124 -0.2138
 8806TIP3    H147909   0.413   3.311  12.887 -0.7385 -0.4854 -0.9292
 8806TIP3    H247910   0.487   3.180  12.899 -0.3430 -0.1950 -0.1256
 8807TIP3   OH247911   2.865   4.540  12.149 -0.0798 -0.0408  0.4258
 8807TIP3    H147912   2.950   4.558  12.189 -0.6317  1.0855  1.1574
 8807TIP3    H247913   2.815   4.496  12.218  0.4559 -2.3655 -0.5734
 8808TIP3   OH247914   6.158   2.508   5.907 -0.7308  0.3384  0.5972
 8808TIP3    H147915   6.073   2.530   5.868 -0.0623  2.6457  0.2848
 8808TIP3    H247916   6.216   2.496   5.832 -0.8488 -1.9097  0.7865
 8809TIP3   OH247917   0.146   4.297   1.021  0.3011  0.2115  0.6869
 8809TIP3    H147918   0.107   4.293   0.934 -0.9774  0.6150  1.2225
 8809TIP3    H247919   0.234   4.333   1.006 -0.4992  1.9060 -0.2699
 8810TIP3   OH247920   0.346   2.725  14.397  0.0559 -0.2141  0.6690
 8810TIP3    H147921   0.293   2.666  14.344 -1.2664  0.2350  1.4517
 8810TIP3    H247922   0.284   2.766  14.457  0.8966  2.0247  0.1206
 8811TIP3   OH247923   4.424   0.581   5.109 -0.8860 -0.2170  0.3664
 8811TIP3    H147924   4.399   0.582   5.016 -1.7087  0.0309  0.5842
 8811TIP3    H247925   4.427   0.673   5.134  0.1234 -0.2433  0.3928
 8812TIP3   OH247926   2.659   1.686   5.214 -1.0288  0.3392  0.3412
 8812TIP3    H147927   2.624   1.614   5.267 -0.0844 -0.0536  0.4562
 8812TIP3    H247928   2.754   1.679   5.225 -0.9390  2.2421  1.2101
 8813TIP3   OH247929   3.529   1.757   2.228  0.2192  0.1836  0.5441
 8813TIP3    H147930   3.564   1.743   2.316  0.9944  1.0213  0.3724
 8813TIP3    H247931   3.492   1.845   2.230 -1.1546 -0.3617  0.4695
 8814TIP3   OH247932   6.732   2.824  12.250 -0.5645 -0.2609  0.7911
 8814TIP3    H147933   6.649   2.836  12.204  0.1228 -0.9357 -0.6972
 8814TIP3    H247934   6.749   2.909  12.292 -1.4743  0.2184  0.2218
 8815TIP3   OH247935   3.784   4.690   4.586  0.2087 -0.3303  0.2581
 8815TIP3    H147936   3.865   4.657   4.548  0.2135  0.1836 -0.1878
 8815TIP3    H247937   3.813   4.754   4.652  0.1571  1.3400 -1.2734
 8816TIP3   OH247938   5.626   3.112   2.818  0.7952 -0.0961 -0.5023
 8816TIP3    H147939   5.638   3.162   2.736  0.4294 -1.1256 -1.2027
 8816TIP3    H247940   5.705   3.059   2.825 -0.1302 -1.6558 -1.3863
 8817TIP3   OH247941   1.698   3.898  17.180 -0.6692  0.6433 -0.4102
 8817TIP3    H147942   1.760   3.933  17.244 -0.6496 -0.7517  0.3713
 8817TIP3    H247943   1.614   3.937  17.205 -0.8038 -0.4084  0.9713
 8818TIP3   OH247944   5.430   0.120  12.578 -0.1967  0.2594 -0.5239
 8818TIP3    H147945   5.383   0.202  12.592  0.0957  0.3723 -0.1862
 8818TIP3    H247946   5.381   0.076  12.508 -0.1562  0.8694 -0.9407
 8819TIP3   OH247947   5.733   3.711  11.959 -0.1217  0.9220  0.7471
 8819TIP3    H147948   5.654   3.699  11.905  0.5629  0.6279 -0.2125
 8819TIP3    H247949   5.704   3.691  12.048 -1.3408  1.6728  0.5434
 8820TIP3   OH247950   1.596   3.264   6.076 -0.1018  0.1794 -0.3146
 8820TIP3    H147951   1.673   3.240   6.128  0.9807  0.5620 -1.6990
 8820TIP3    H247952   1.566   3.346   6.115 -0.1612 -0.2575  0.5896
 8821TIP3   OH247953   6.544   0.394   1.910  0.0354  0.0103 -0.4148
 8821TIP3    H147954   6.531   0.413   2.003  0.9073 -3.7060  0.6324
 8821TIP3    H247955   6.628   0.435   1.888  0.4163 -0.0968  0.7938
 8822TIP3   OH247956   0.758   0.693  12.725 -0.2251 -0.1609  0.7830
 8822TIP3    H147957   0.663   0.703  12.712  0.0504  1.8367 -0.1156
 8822TIP3    H247958   0.797   0.744  12.654  1.5732 -1.8435  0.4762
 8823TIP3   OH247959   3.452   0.814  11.129 -0.6151  0.3054  0.0120
 8823TIP3    H147960   3.526   0.764  11.164 -0.0610  0.1874 -1.2624
 8823TIP3    H247961   3.383   0.803  11.194 -0.8182 -2.8379 -0.5720
 8824TIP3   OH247962   3.409   5.730  16.336  0.3206  0.0114 -0.0496
 8824TIP3    H147963   3.447   5.746  16.250  0.4650 -0.6084 -0.1088
 8824TIP3    H247964   3.484   5.711  16.392  0.2034  0.1255  0.1477
 8825TIP3   OH247965   0.570   3.018   2.379 -0.2705 -0.2027  0.0979
 8825TIP3    H147966   0.616   2.940   2.347  0.1156 -0.0124  0.1859
 8825TIP3    H247967   0.639   3.084   2.391 -0.5972  0.1613  0.0002
 8826TIP3   OH247968   4.412   3.835   3.540 -0.1925  0.2724  0.3376
 8826TIP3    H147969   4.395   3.833   3.446 -0.5115 -0.6295  0.4043
 8826TIP3    H247970   4.446   3.923   3.556 -1.2394  0.8448 -0.4284
 8827TIP3   OH247971   2.242   3.323   2.583 -0.3544  0.0013  0.1826
 8827TIP3    H147972   2.260   3.417   2.591 -1.0008  0.1525 -0.0875
 8827TIP3    H247973   2.297   3.295   2.509 -0.2904  0.2061  0.1511
 8828TIP3   OH247974   5.036   6.006   0.851 -0.3853  0.2593  0.0976
 8828TIP3    H147975   4.984   6.051   0.784 -2.0845  1.6083  2.1735
 8828TIP3    H247976   4.989   6.023   0.932  2.7042  0.5102  1.9878
 8829TIP3   OH247977   1.860   4.628   0.336  0.3682 -0.5542 -0.1674
 8829TIP3    H147978   1.926   4.669   0.281  1.0547  0.3264  1.2550
 8829TIP3    H247979   1.804   4.701   0.364 -0.9004 -1.2097 -0.9139
 8830TIP3   OH247980   2.063   0.851  14.519 -0.4049  0.3009 -0.3719
 8830TIP3    H147981   2.088   0.816  14.604 -0.8393 -1.4914 -0.9350
 8830TIP3    H247982   1.982   0.900  14.535  1.8244  3.9150  0.9918
 8831TIP3   OH247983   5.038   4.628   4.639  0.5555 -0.2403 -0.4062
 8831TIP3    H147984   5.054   4.720   4.620 -1.7227  0.1842 -0.5214
 8831TIP3    H247985   5.022   4.587   4.554 -0.5385 -0.2642 -0.2094
 8832TIP3   OH247986   1.436   0.416  16.989 -0.2138  0.8981  0.3131
 8832TIP3    H147987   1.399   0.480  17.051  1.1025  0.8143  1.2254
 8832TIP3    H247988   1.505   0.373  17.039 -0.5644 -0.7060 -0.5408
 8833TIP3   OH247989   6.349   4.544   5.031 -0.4619  0.5515 -0.5974
 8833TIP3    H147990   6.257   4.553   5.005 -0.8280 -0.8931  0.1316
 8833TIP3    H247991   6.392   4.510   4.953 -1.1946 -1.8848 -0.0406
 8834TIP3   OH247992   2.566   4.161  15.899 -0.0638  0.1966 -0.0743
 8834TIP3    H147993   2.546   4.242  15.853  0.9709  0.4937 -0.0144
 8834TIP3    H247994   2.633   4.185  15.963 -0.0419 -0.6204  0.2200
 8835TIP3   OH247995   6.378   2.665  12.664 -0.3799  0.4147  0.0990
 8835TIP3    H147996   6.388   2.760  12.655  0.4835  0.1599 -3.3319
 8835TIP3    H247997   6.362   2.635  12.574 -2.4352 -2.5399  1.3093
 8836TIP3   OH247998   4.887   1.987  12.675 -0.3104 -0.1869 -0.0700
 8836TIP3    H147999   4.850   2.060  12.725 -0.6753 -0.2799 -0.2007
 8836TIP3    H248000   4.880   2.015  12.584  2.4824  1.0089 -0.0234
 8837TIP3   OH248001   6.637   2.065   3.413 -0.2867 -0.1961  0.2093
 8837TIP3    H148002   6.717   2.107   3.382 -0.8663  0.0480 -1.0350
 8837TIP3    H248003   6.655   1.972   3.409 -0.1432 -0.1488 -0.3140
 8838TIP3   OH248004   3.050   5.387  12.076  0.0798  0.1417  0.5163
 8838TIP3    H148005   2.969   5.336  12.076 -1.1584  2.0026  0.1551
 8838TIP3    H248006   3.119   5.322  12.092 -1.4654 -1.4913  0.9424
 8839TIP3   OH248007   1.841   1.541   4.938  0.1282  0.2439 -0.5327
 8839TIP3    H148008   1.751   1.571   4.934 -0.0961 -0.4944 -1.6658
 8839TIP3    H248009   1.834   1.446   4.948  0.7625  0.1023 -1.3354
 8840TIP3   OH248010   0.356   1.113   3.545  0.0605 -0.4599 -0.6371
 8840TIP3    H148011   0.377   1.129   3.637  1.8205  0.0973 -1.0909
 8840TIP3    H248012   0.284   1.173   3.526  0.5422  0.3699  0.0666
 8841TIP3   OH248013   4.073   4.072   5.872  0.5196  0.5917 -0.2194
 8841TIP3    H148014   4.108   4.013   5.805  1.0446 -1.1227  1.4608
 8841TIP3    H248015   3.986   4.038   5.892  0.0507  1.5550 -0.5387
 8842TIP3   OH248016   6.006   1.949  17.135  0.2975  0.1641  0.3443
 8842TIP3    H148017   5.987   1.971  17.226 -0.2149  2.6045 -0.3012
 8842TIP3    H248018   5.922   1.924  17.097  0.3230  0.2281  0.2456
 8843TIP3   OH248019   5.910   4.349   0.546 -0.5582 -0.0167 -0.4543
 8843TIP3    H148020   5.999   4.315   0.559 -1.1594 -0.6938  2.6827
 8843TIP3    H248021   5.917   4.442   0.567 -0.2942  0.3046 -1.9026
 8844TIP3   OH248022   4.883   0.475  15.947 -0.3182 -0.2118  0.3454
 8844TIP3    H148023   4.906   0.383  15.937  0.9579  0.2813 -2.0141
 8844TIP3    H248024   4.793   0.481  15.917 -0.5611 -0.7291  0.9432
 8845TIP3   OH248025   4.016   4.179   2.293  0.6947  0.0341  0.8219
 8845TIP3    H148026   3.984   4.138   2.373 -0.8239  0.9561  0.7089
 8845TIP3    H248027   3.940   4.184   2.236  1.7336 -0.5715 -0.7024
 8846TIP3   OH248028   3.715   6.287  11.522  0.3379 -0.0201 -0.0912
 8846TIP3    H148029   3.632   6.334  11.524  0.4447  0.1532  0.5717
 8846TIP3    H248030   3.690   6.196  11.503 -0.1223 -0.1863  1.1676
 8847TIP3   OH248031   4.843   1.158  11.652 -0.6102 -0.1237 -0.0615
 8847TIP3    H148032   4.932   1.189  11.636 -0.8286  0.0216 -1.0421
 8847TIP3    H248033   4.838   1.074  11.607 -1.4909  0.6787 -1.5483
 8848TIP3   OH248034   3.859   4.292   2.725 -0.1518  0.5832  0.3876
 8848TIP3    H148035   3.819   4.288   2.812 -0.0744  0.4402  0.4174
 8848TIP3    H248036   3.811   4.361   2.680  0.4564  1.3247  0.8679
 8849TIP3   OH248037   0.467   5.927   2.213  0.8281  0.3202  0.1566
 8849TIP3    H148038   0.502   5.838   2.205  2.8158  1.1288 -0.8702
 8849TIP3    H248039   0.421   5.944   2.131  1.6526  0.6910 -0.2454
 8850TIP3   OH248040   0.694   2.960  17.083  0.5121 -0.4359 -0.3411
 8850TIP3    H148041   0.743   3.038  17.110  3.6347 -1.4817 -2.4821
 8850TIP3    H248042   0.652   2.930  17.163  1.4270  1.8963  1.1333
 8851TIP3   OH248043   6.504   4.229  12.101 -0.2596  0.5142 -0.0631
 8851TIP3    H148044   6.455   4.218  12.182 -1.4397  0.0431 -0.8266
 8851TIP3    H248045   6.570   4.296  12.122 -1.0903  1.0127  1.0392
 8852TIP3   OH248046   3.250   4.337   2.105 -0.5545  0.3146 -0.3801
 8852TIP3    H148047   3.161   4.355   2.076 -0.1041 -0.0346 -2.1132
 8852TIP3    H248048   3.288   4.285   2.034  1.1779  0.8942  0.0685
 8853TIP3   OH248049   5.702   2.452  10.807 -0.2363  0.3464 -0.1575
 8853TIP3    H148050   5.626   2.509  10.796  0.6341  1.8508  1.1763
 8853TIP3    H248051   5.772   2.511  10.836  1.0038 -1.2533  0.2595
 8854TIP3   OH248052   3.903   2.935  12.995 -0.4796  0.1479  0.1280
 8854TIP3    H148053   3.816   2.897  13.003 -1.3291  2.1086  1.0581
 8854TIP3    H248054   3.925   2.962  13.085  1.1777 -0.4756 -0.0624
 8855TIP3   OH248055   4.137   3.813   4.086  0.2661 -0.7261  0.4909
 8855TIP3    H148056   4.181   3.895   4.062 -1.2534  0.2439  0.8109
 8855TIP3    H248057   4.166   3.796   4.176 -0.3060  0.1326  0.8517
 8856TIP3   OH248058   4.647   2.389  10.533 -0.1239  0.4225 -0.1479
 8856TIP3    H148059   4.612   2.375  10.622  0.8236  0.4480  0.2354
 8856TIP3    H248060   4.602   2.468  10.503 -1.6266 -0.4466 -0.3158
 8857TIP3   OH248061   5.471   1.631   4.165 -0.1604  0.3428 -0.5423
 8857TIP3    H148062   5.508   1.586   4.241  1.1965 -1.2569 -2.0306
 8857TIP3    H248063   5.509   1.718   4.167  3.0127 -0.8709 -1.3563
 8858TIP3   OH248064   3.614   3.920   0.989  0.0013 -0.4125  0.2246
 8858TIP3    H148065   3.575   3.997   0.947  1.5607 -0.2695 -1.0620
 8858TIP3    H248066   3.651   3.954   1.070  0.2872  0.1076 -0.1174
 8859TIP3   OH248067   0.739   1.376   0.599 -0.0892  0.2668 -0.2633
 8859TIP3    H148068   0.683   1.454   0.597 -0.9429 -0.3068  0.7198
 8859TIP3    H248069   0.821   1.407   0.638 -0.8258  0.4412  1.1914
 8860TIP3   OH248070   2.419   3.731   0.172  0.7107 -0.5849 -0.0124
 8860TIP3    H148071   2.371   3.782   0.237  0.3392 -2.0316  0.8930
 8860TIP3    H248072   2.491   3.789   0.145 -0.9606  1.2892 -0.7371
 8861TIP3   OH248073   6.600   2.994   4.437 -0.3175 -0.1987  0.3528
 8861TIP3    H148074   6.615   3.088   4.434 -1.9939  0.0786 -0.3613
 8861TIP3    H248075   6.594   2.967   4.346 -3.4820 -0.3021  0.4875
 8862TIP3   OH248076   2.240   6.401   2.967  0.0584 -0.0260 -0.3562
 8862TIP3    H148077   2.330   6.387   2.997 -0.0963  0.3180  0.2884
 8862TIP3    H248078   2.229   6.496   2.967 -0.5238 -0.0850  0.2580
 8863TIP3   OH248079   4.892   1.516   2.695 -0.3768 -0.1635 -0.3551
 8863TIP3    H148080   4.866   1.514   2.787 -1.2465  0.8744 -0.5424
 8863TIP3    H248081   4.814   1.548   2.649  0.8775  2.1647 -1.0822
 8864TIP3   OH248082   6.738   0.609   2.625  0.3643 -0.1480  0.0579
 8864TIP3    H148083   6.749   0.672   2.696  1.2308  0.6121 -0.7288
 8864TIP3    H248084   6.643   0.597   2.618  0.1953  1.0015  0.2798
 8865TIP3   OH248085   1.377   5.874  15.823  0.1865 -0.0551  0.1243
 8865TIP3    H148086   1.337   5.787  15.831  0.2040 -0.0193  0.5962
 8865TIP3    H248087   1.453   5.872  15.880  0.5502  0.0643 -0.3496
 8866TIP3   OH248088   4.413   0.510   4.328 -0.0050  0.3601 -0.4438
 8866TIP3    H148089   4.457   0.595   4.325 -0.5745  0.7123  0.6241
 8866TIP3    H248090   4.453   0.464   4.401  1.4211 -0.9743 -1.9603
 8867TIP3   OH248091   5.373   4.644   4.762 -0.7463  0.3723 -0.1713
 8867TIP3    H148092   5.372   4.549   4.746  0.8337  0.3056 -0.0202
 8867TIP3    H248093   5.353   4.653   4.855  0.2380  0.1034  0.0747
 8868TIP3   OH248094   1.918   2.875   1.215  0.4676 -0.1308 -0.0437
 8868TIP3    H148095   1.839   2.899   1.166  0.2114 -1.3819 -0.2807
 8868TIP3    H248096   1.885   2.836   1.296  0.8841  1.7576  1.1055
 8869TIP3   OH248097   1.743   2.647   5.630 -0.5180  0.0644 -0.1555
 8869TIP3    H148098   1.782   2.575   5.680  1.0069  1.2698  0.5056
 8869TIP3    H248099   1.776   2.634   5.541 -1.2786 -0.7348 -0.3366
 8870TIP3   OH248100   4.553   2.683  14.978 -0.7424  0.3693 -0.3606
 8870TIP3    H148101   4.622   2.732  14.934  2.0900 -1.1179  2.0848
 8870TIP3    H248102   4.526   2.616  14.914  0.8296  0.3354 -1.0247
 8871TIP3   OH248103   2.275   2.186  12.294 -0.1541 -0.1927  0.6613
 8871TIP3    H148104   2.286   2.233  12.211 -0.0788  0.8833  1.2574
 8871TIP3    H248105   2.190   2.215  12.327 -0.2521 -0.7280  0.8842
 8872TIP3   OH248106   4.836   1.702  11.556 -0.1942 -0.3970  0.1364
 8872TIP3    H148107   4.746   1.684  11.526  0.0741 -1.4837 -0.0727
 8872TIP3    H248108   4.849   1.795  11.537 -1.2008 -0.2731 -0.0332
 8873TIP3   OH248109   4.099   3.105   1.568 -0.3050  0.1438 -0.3296
 8873TIP3    H148110   4.014   3.088   1.527  0.0865 -0.9598 -0.7288
 8873TIP3    H248111   4.146   3.157   1.503 -0.3303 -0.0839 -0.5345
 8874TIP3   OH248112   5.715   6.251  17.096 -0.3155 -0.4700 -0.2135
 8874TIP3    H148113   5.722   6.254  17.192 -0.8284 -1.4068 -0.1377
 8874TIP3    H248114   5.691   6.160  17.077  0.7057 -0.5384 -1.2941
 8875TIP3   OH248115   2.008   2.263   5.562  0.3618 -0.2826  0.2224
 8875TIP3    H148116   2.039   2.182   5.521  0.5225  0.0304 -0.2731
 8875TIP3    H248117   1.988   2.237   5.653 -1.0782 -1.2439 -0.3236
 8876TIP3   OH248118   6.275   4.098  17.020 -0.0981  0.1005 -0.1374
 8876TIP3    H148119   6.337   4.129  16.955  1.4921  0.9711  1.6831
 8876TIP3    H248120   6.201   4.158  17.014  0.5240  0.8541 -0.3888
 8877TIP3   OH248121   1.273   1.110  12.495 -0.6703 -0.1361 -0.2827
 8877TIP3    H148122   1.183   1.086  12.473 -0.0642 -2.1768 -0.7722
 8877TIP3    H248123   1.281   1.088  12.588 -1.0021  1.1906  0.0764
 8878TIP3   OH248124   6.634   0.528   5.141 -0.4352 -0.2384  0.1279
 8878TIP3    H148125   6.670   0.441   5.160  0.5872 -0.0929 -1.0358
 8878TIP3    H248126   6.693   0.564   5.075  1.1440  2.6634  2.8335
 8879TIP3   OH248127   1.155   1.116   3.675 -0.2228 -0.6125 -0.0078
 8879TIP3    H148128   1.209   1.097   3.598  0.7200  1.8262 -0.0288
 8879TIP3    H248129   1.193   1.195   3.712 -0.1356 -2.1034  3.4794
 8880TIP3   OH248130   5.049   3.199  13.652 -0.1021  0.1488  0.1576
 8880TIP3    H148131   4.981   3.262  13.627 -0.6824 -0.5847 -0.1621
 8880TIP3    H248132   5.131   3.248  13.646 -0.4805  0.6983 -0.7124
 8881TIP3   OH248133   1.010   2.821  14.493 -0.1447 -0.7733  0.2789
 8881TIP3    H148134   1.039   2.895  14.547  0.7833 -0.8877 -0.0445
 8881TIP3    H248135   1.086   2.800  14.438 -0.6091 -1.5598 -0.0807
 8882TIP3   OH248136   0.689   4.906  15.553 -0.2297 -0.2365  0.2242
 8882TIP3    H148137   0.773   4.953  15.544 -1.1421  1.6566  1.0434
 8882TIP3    H248138   0.683   4.885  15.646 -0.3257 -1.0878  0.0363
 8883TIP3   OH248139   3.900   2.531  11.466 -0.1280 -0.4062  0.0770
 8883TIP3    H148140   3.896   2.461  11.401  0.4335  0.8606 -1.3722
 8883TIP3    H248141   3.812   2.533  11.504 -0.5324 -1.0393 -0.7863
 8884TIP3   OH248142   1.969   2.199  12.339 -0.0884 -0.7095 -0.1971
 8884TIP3    H148143   1.951   2.196  12.245  0.3476  1.9413 -0.4490
 8884TIP3    H248144   1.884   2.188  12.381 -0.4865 -0.5711 -0.9592
 8885TIP3   OH248145   0.167   3.440   1.573 -0.0525 -0.1073 -0.0823
 8885TIP3    H148146   0.081   3.424   1.534 -0.2278  0.6899 -0.0492
 8885TIP3    H248147   0.168   3.389   1.653 -0.8312  0.5279  0.3476
 8886TIP3   OH248148   3.619   3.301   4.933  0.4759 -0.4919 -0.0914
 8886TIP3    H148149   3.673   3.261   5.001 -0.1669 -1.1035  0.0832
 8886TIP3    H248150   3.647   3.392   4.929  2.7882 -1.1642 -1.2819
 8887TIP3   OH248151   6.696   1.146   3.122 -0.7349  1.2162 -0.6630
 8887TIP3    H148152   6.658   1.109   3.042 -0.8685  0.0467 -0.0750
 8887TIP3    H248153   6.742   1.073   3.163 -0.7181  1.7821  0.3640
 8888TIP3   OH248154   0.846   3.312  10.570  0.8127  0.2625 -0.0599
 8888TIP3    H148155   0.763   3.358  10.553  0.0660 -1.5685 -1.8498
 8888TIP3    H248156   0.826   3.253  10.643  0.1736 -0.8837 -1.1145
 8889TIP3   OH248157   5.295   5.598   4.393  0.1384  0.4100 -0.6457
 8889TIP3    H148158   5.257   5.512   4.409  1.4247  0.0526  0.7482
 8889TIP3    H248159   5.225   5.648   4.352 -2.0623  0.0091  2.3334
 8890TIP3   OH248160   2.718   1.167  16.136 -0.2484 -0.2603 -0.1509
 8890TIP3    H148161   2.629   1.167  16.173 -0.5868  0.6635 -0.9180
 8890TIP3    H248162   2.706   1.130  16.048 -0.0809  0.9377 -0.6908
 8891TIP3   OH248163   2.328   3.122   3.282 -0.6955 -0.7204 -0.6656
 8891TIP3    H148164   2.405   3.105   3.228 -0.1881 -2.8226  0.6169
 8891TIP3    H248165   2.259   3.144   3.218  0.1547 -1.9846 -2.0933
 8892TIP3   OH248166   2.672   5.768   3.843  0.6613  1.0081 -0.1810
 8892TIP3    H148167   2.739   5.702   3.826  0.7961  0.6260  1.6404
 8892TIP3    H248168   2.716   5.835   3.896 -0.2606  0.9763  0.6629
 8893TIP3   OH248169   4.789   4.187  14.846  0.0940  0.5939 -0.4805
 8893TIP3    H148170   4.731   4.130  14.897  1.5682 -2.5778 -2.0602
 8893TIP3    H248171   4.731   4.237  14.789 -1.3300  1.6864  1.7810
 8894TIP3   OH248172   4.965   4.716   2.393 -0.4801  0.1357  0.9858
 8894TIP3    H148173   4.949   4.808   2.371 -0.3339  0.6124  2.7354
 8894TIP3    H248174   4.879   4.682   2.417 -0.5765 -0.2747  0.0971
 8895TIP3   OH248175   5.175   5.931   4.942  0.6838  0.4900  0.2822
 8895TIP3    H148176   5.241   5.889   4.886  1.0223 -1.1622  1.7969
 8895TIP3    H248177   5.222   5.952   5.022 -0.0429  1.7617  0.3925
 8896TIP3   OH248178   3.677   2.657   3.379  0.1227  0.0466  0.3665
 8896TIP3    H148179   3.760   2.625   3.414  0.0332  0.8226  1.3546
 8896TIP3    H248180   3.640   2.583   3.333  1.1541 -0.4468  0.3000
 8897TIP3   OH248181   5.388   0.891   3.641  0.7739 -0.2854  0.0715
 8897TIP3    H148182   5.335   0.938   3.577  1.1447  1.4946  0.9967
 8897TIP3    H248183   5.478   0.903   3.611  0.8548 -0.7820  0.0987
 8898TIP3   OH248184   1.069   6.820  11.734  1.2901  0.0676 -0.5761
 8898TIP3    H148185   1.116   6.744  11.769  0.8470  0.4133  0.7861
 8898TIP3    H248186   0.978   6.804  11.756  1.1846  0.9798 -0.3319
 8899TIP3   OH248187   1.866   1.122   1.432  0.0744 -0.1716 -0.4060
 8899TIP3    H148188   1.828   1.039   1.401  0.0866  0.0702 -1.0804
 8899TIP3    H248189   1.954   1.122   1.396 -0.5234  0.9701 -1.9906
 8900TIP3   OH248190   3.085   4.817   1.664 -0.2546  0.2698 -0.4776
 8900TIP3    H148191   3.059   4.756   1.733 -1.9973 -0.0264 -1.3381
 8900TIP3    H248192   3.179   4.803   1.655 -0.6127 -2.6447 -0.9079
 8901TIP3   OH248193   5.166   5.534  16.773 -0.3835  0.0877  0.3919
 8901TIP3    H148194   5.226   5.466  16.804 -1.6764 -0.7311  1.1445
 8901TIP3    H248195   5.151   5.513  16.681  0.7265  0.5132  0.0847
 8902TIP3   OH248196   6.803   5.487  14.309 -0.7527 -0.2294  0.6394
 8902TIP3    H148197   6.840   5.405  14.342  0.6208  0.4799  0.9544
 8902TIP3    H248198   6.711   5.468  14.296 -1.0223 -1.0900  3.2207
 8903TIP3   OH248199   2.104   5.597  10.417 -0.0070  0.2087 -0.3529
 8903TIP3    H148200   2.083   5.609  10.325  2.3445  2.4654 -0.7267
 8903TIP3    H248201   2.073   5.677  10.459  0.4998 -0.0228  0.4859
 8904TIP3   OH248202   2.047   2.341   5.001  0.0087 -0.0978 -0.0061
 8904TIP3    H148203   2.022   2.349   4.909  2.1007  2.2142 -0.4719
 8904TIP3    H248204   1.964   2.353   5.049 -0.8459  0.4973 -1.5446
 8905TIP3   OH248205   4.175   4.258   3.022  0.5755  0.2274 -0.3439
 8905TIP3    H148206   4.263   4.294   3.010  0.6920 -0.6516 -2.6821
 8905TIP3    H248207   4.116   4.328   2.993  0.6177  0.1011 -0.7481
 8906TIP3   OH248208   4.890   1.813  13.891  0.5671 -0.1298  0.0015
 8906TIP3    H148209   4.902   1.760  13.813  2.5750  1.4715 -0.8645
 8906TIP3    H248210   4.929   1.898  13.868  0.2534  0.7183  2.3775
 8907TIP3   OH248211   0.569   2.979  16.174 -0.1634 -0.3001  0.0121
 8907TIP3    H148212   0.614   3.045  16.227  0.7190  0.5290 -1.7142
 8907TIP3    H248213   0.507   2.938  16.235  1.5128 -0.1157  1.9548
 8908TIP3   OH248214   6.234   6.526   4.587 -0.0968 -0.0508  0.5069
 8908TIP3    H148215   6.203   6.441   4.557  1.1421 -0.4746  0.3695
 8908TIP3    H248216   6.300   6.506   4.653  0.9703  0.7716 -0.2866
 8909TIP3   OH248217   5.746   5.636   1.037  0.1854  0.0264 -0.5556
 8909TIP3    H148218   5.727   5.723   1.071  0.3303 -0.0008 -0.4046
 8909TIP3    H248219   5.794   5.653   0.955  1.0423  0.0869 -0.0485
 8910TIP3   OH248220   0.272   5.236  13.647 -0.5633 -0.1101 -0.0975
 8910TIP3    H148221   0.241   5.305  13.589  2.0219  0.7235 -0.6452
 8910TIP3    H248222   0.296   5.281  13.727  0.0247 -0.5371 -0.0233
 8911TIP3   OH248223   5.966   1.816  15.163 -0.4926  0.8565 -0.3797
 8911TIP3    H148224   6.003   1.782  15.245 -1.3657 -0.8357 -0.6628
 8911TIP3    H248225   6.042   1.829  15.106  0.0927  1.7469  0.5712
 8912TIP3   OH248226   0.644   1.140  12.822 -0.7336  0.4156 -0.4634
 8912TIP3    H148227   0.738   1.149  12.807 -0.7444  2.3344  0.3749
 8912TIP3    H248228   0.634   1.050  12.853  0.6726 -0.1461 -1.5485
 8913TIP3   OH248229   6.326   1.836   0.698 -0.3686  1.0042 -0.6728
 8913TIP3    H148230   6.378   1.897   0.750  0.3070  0.2867 -0.4817
 8913TIP3    H248231   6.249   1.886   0.673  0.9048  2.4687 -1.9042
 8914TIP3   OH248232   1.413   0.029   0.053  0.7251 -0.0341  0.3456
 8914TIP3    H148233   1.376   0.109   0.090  1.7643  1.0966 -0.9529
 8914TIP3    H248234   1.374  -0.042   0.104 -3.0161  1.0254 -0.7266
 8915TIP3   OH248235   6.318   3.737  11.416 -0.2999 -0.1031 -0.2942
 8915TIP3    H148236   6.308   3.805  11.482 -0.8025 -0.2827 -0.1766
 8915TIP3    H248237   6.291   3.656  11.460  0.8785 -0.4885 -0.2377
 8916TIP3   OH248238   3.183   2.565  12.669  0.1210 -0.3111  0.3960
 8916TIP3    H148239   3.267   2.520  12.669 -0.1964 -0.9099 -0.3251
 8916TIP3    H248240   3.173   2.595  12.760  1.3924  0.3245  0.3550
 8917TIP3   OH248241   0.654   3.046  12.839  0.5105  0.1858 -0.7590
 8917TIP3    H148242   0.690   3.123  12.795  3.1074 -0.2563  0.3809
 8917TIP3    H248243   0.690   2.972  12.791  0.8612 -0.2849  0.2020
 8918TIP3   OH248244   0.196   6.158   5.872  0.1943 -0.3802 -0.5063
 8918TIP3    H148245   0.135   6.084   5.876 -0.1792 -0.0283  0.5120
 8918TIP3    H248246   0.200   6.192   5.961  0.3702  0.8241 -0.9453
 8919TIP3   OH248247   1.402   1.502   5.701 -0.5880 -0.3581  0.2474
 8919TIP3    H148248   1.421   1.533   5.790  3.6003  0.9205 -0.8660
 8919TIP3    H248249   1.446   1.417   5.696  0.4260  0.2075 -0.9335
 8920TIP3   OH248250   4.864   3.752   5.088 -0.2674 -0.4384 -0.0495
 8920TIP3    H148251   4.942   3.785   5.044 -1.2274  0.1769 -1.3531
 8920TIP3    H248252   4.791   3.787   5.037 -1.4027 -0.9852  1.1451
 8921TIP3   OH248253   4.741   0.259   4.932  0.6328  0.3090 -0.0636
 8921TIP3    H148254   4.834   0.241   4.917  0.4603  0.3705 -1.3560
 8921TIP3    H248255   4.699   0.174   4.925  0.4783  0.4201 -0.5351
 8922TIP3   OH248256   0.145   2.289   4.539 -0.0367  0.4103  0.1608
 8922TIP3    H148257   0.105   2.252   4.618 -0.7477 -1.8878 -1.1748
 8922TIP3    H248258   0.071   2.315   4.484  0.3719 -0.0337 -0.6268
 8923TIP3   OH248259   2.847   2.605  12.425 -0.1621 -0.5698  0.5902
 8923TIP3    H148260   2.803   2.558  12.355  0.1981 -1.5827  1.0318
 8923TIP3    H248261   2.840   2.547  12.501  0.7003 -0.1212  1.0243
 8924TIP3   OH248262   2.565   3.453   3.132  0.3911 -0.3605 -0.7395
 8924TIP3    H148263   2.583   3.536   3.087  0.1335  0.0575 -0.0968
 8924TIP3    H248264   2.613   3.460   3.214 -2.1586  0.5822  0.8066
 8925TIP3   OH248265   2.141   6.613  11.923 -0.3207 -0.0012 -0.2342
 8925TIP3    H148266   2.136   6.539  11.862 -2.0120 -0.4514  0.4027
 8925TIP3    H248267   2.234   6.635  11.925  0.5098 -3.1002  0.7165
 8926TIP3   OH248268   3.697   0.697  14.462 -0.3565 -0.0743 -0.0262
 8926TIP3    H148269   3.770   0.721  14.519  1.0802  0.2848 -1.9297
 8926TIP3    H248270   3.627   0.758  14.485 -0.3553 -0.8605  2.2970
 8927TIP3   OH248271   2.126   1.479   3.966  0.0743 -0.3989 -0.3961
 8927TIP3    H148272   2.187   1.526   3.910  1.7051 -1.9104  0.0244
 8927TIP3    H248273   2.181   1.425   4.023 -1.4740  1.0875  2.7670
 8928TIP3   OH248274   0.069   3.491  13.857 -0.3674 -0.2691  0.3989
 8928TIP3    H148275   0.079   3.440  13.777 -1.2546  0.3725 -0.1439
 8928TIP3    H248276   0.158   3.510  13.885 -0.0055  1.5350 -1.7710
 8929TIP3   OH248277   0.462   4.344  16.656  0.4797  0.2838  0.4844
 8929TIP3    H148278   0.546   4.383  16.681 -0.0162  1.1000  0.9252
 8929TIP3    H248279   0.399   4.381  16.718 -0.3718  0.4570 -0.4544
 8930TIP3   OH248280   3.196   0.639   0.551 -0.1346  0.4702  0.8631
 8930TIP3    H148281   3.150   0.577   0.494 -0.7199  1.2141  0.5001
 8930TIP3    H248282   3.258   0.586   0.600 -1.9363 -0.7338  1.9876
 8931TIP3   OH248283   1.785   1.563   3.456  0.5001 -0.0062  0.0232
 8931TIP3    H148284   1.803   1.511   3.535  0.1533 -1.0026 -0.5353
 8931TIP3    H248285   1.700   1.603   3.473  0.1296 -0.7284 -0.0886
 8932TIP3   OH248286   4.714   5.126  15.894  0.0109  0.5201  0.3121
 8932TIP3    H148287   4.690   5.142  15.803  1.9263  0.5950 -0.2145
 8932TIP3    H248288   4.635   5.147  15.943 -0.8923  1.0246 -1.2703
 8933TIP3   OH248289   0.607   6.708   4.591 -0.5139  0.0986  0.4795
 8933TIP3    H148290   0.540   6.776   4.579 -0.3969 -0.0613 -1.3118
 8933TIP3    H248291   0.689   6.752   4.569 -0.4933 -0.7171 -1.2402
 8934TIP3   OH248292   6.581   5.003  15.126  0.4495 -0.5681 -0.1770
 8934TIP3    H148293   6.523   5.013  15.050  0.6020  2.9644  0.0011
 8934TIP3    H248294   6.665   4.979  15.088 -0.0411 -1.3418 -0.8365
 8935TIP3   OH248295   4.198   0.904   3.425 -0.1424  0.2310  0.4054
 8935TIP3    H148296   4.130   0.968   3.444 -1.4645 -1.5506  2.0142
 8935TIP3    H248297   4.155   0.836   3.375  0.7739 -0.3226  0.3390
 8936TIP3   OH248298   3.469   4.170   5.498 -0.3641  0.3778  0.2715
 8936TIP3    H148299   3.565   4.171   5.506  0.1034  2.0395 -3.5302
 8936TIP3    H248300   3.448   4.082   5.468 -0.0660 -0.0276  1.2283
 8937TIP3   OH248301   3.786   5.673  16.708  0.0847 -0.4758 -0.2712
 8937TIP3    H148302   3.823   5.585  16.708  1.0846 -0.1369  1.9916
 8937TIP3    H248303   3.718   5.670  16.776 -0.5492  0.2593 -0.8530
 8938TIP3   OH248304   1.637   1.066   1.139  0.2779  0.2834 -0.0839
 8938TIP3    H148305   1.633   1.053   1.044 -1.2521  0.6459 -0.1056
 8938TIP3    H248306   1.676   1.153   1.149  2.6830 -0.6963 -0.2441
 8939TIP3   OH248307   2.051   4.632  13.063 -0.1375 -0.1709 -0.5859
 8939TIP3    H148308   2.102   4.601  12.988  0.8348  1.2231 -0.5478
 8939TIP3    H248309   2.115   4.641  13.133 -0.6036  0.7438 -0.2609
 8940TIP3   OH248310   4.813   6.122  15.296  0.3195 -0.1677  0.0937
 8940TIP3    H148311   4.741   6.097  15.238  0.4088 -0.8947  0.2964
 8940TIP3    H248312   4.772   6.133  15.381  0.2685  0.4655 -0.0054
 8941TIP3   OH248313   5.423   5.941  13.000  0.0034 -0.2047  0.0168
 8941TIP3    H148314   5.440   5.985  12.917  0.1404 -0.0811  0.1077
 8941TIP3    H248315   5.368   5.867  12.978  0.6360 -0.5943 -0.2842
 8942TIP3   OH248316   0.861   3.295  14.196  0.1278 -0.1110  0.6463
 8942TIP3    H148317   0.879   3.345  14.276  1.1465  0.2607  0.2032
 8942TIP3    H248318   0.847   3.362  14.129  0.2808 -0.4227  0.3013
 8943TIP3   OH248319   5.746   0.169  10.211  0.4887 -0.3951  0.6372
 8943TIP3    H148320   5.815   0.111  10.242 -0.7696 -1.9565  0.6672
 8943TIP3    H248321   5.683   0.111  10.168  0.3049  1.2315 -1.4722
 8944TIP3   OH248322   0.764   2.188  15.531 -0.0934  0.2185  0.1489
 8944TIP3    H148323   0.797   2.099  15.520 -0.0483 -0.0015  1.7796
 8944TIP3    H248324   0.669   2.180  15.519 -0.5934 -0.7888  3.6071
 8945TIP3   OH248325   4.702   4.296   4.430  0.5129 -0.0048 -0.3480
 8945TIP3    H148326   4.788   4.337   4.430 -0.1881  1.5227 -0.3357
 8945TIP3    H248327   4.644   4.361   4.468 -1.2059  0.2433 -3.1256
 8946TIP3   OH248328   5.298   5.974  12.207  0.2213 -0.1888  0.4093
 8946TIP3    H148329   5.236   6.037  12.172 -0.0774  0.0855  1.3962
 8946TIP3    H248330   5.256   5.889  12.196  0.8985 -0.3214 -1.5194
 8947TIP3   OH248331   6.350   4.960  15.767 -0.2786  0.1679  0.4376
 8947TIP3    H148332   6.303   4.918  15.695 -1.3540  1.5151  0.3166
 8947TIP3    H248333   6.439   4.971  15.734 -0.3974 -0.5099 -0.1412
 8948TIP3   OH248334   1.434   3.695   3.259 -0.2910  0.5910 -0.2073
 8948TIP3    H148335   1.501   3.759   3.284  0.8566 -1.1117  1.4204
 8948TIP3    H248336   1.351   3.740   3.272  0.4033  1.2657  2.6650
 8949TIP3   OH248337   1.037   2.707  16.865  0.1175  1.3712 -0.3587
 8949TIP3    H148338   1.093   2.724  16.789 -0.6472  0.2954 -1.2076
 8949TIP3    H248339   1.076   2.630  16.907 -0.3234  1.0191 -0.5748
 8950TIP3   OH248340   1.118   1.057   2.320  0.4468  0.0201 -0.1648
 8950TIP3    H148341   1.155   1.085   2.404  1.6788 -0.0366 -0.6742
 8950TIP3    H248342   1.023   1.066   2.332  0.6504  1.0732  0.8544
 8951TIP3   OH248343   4.429   1.671  10.914  0.0482 -0.0708 -0.1382
 8951TIP3    H148344   4.361   1.725  10.955  0.1902 -0.5248  0.6986
 8951TIP3    H248345   4.383   1.622  10.846  0.0907  1.8311 -1.6216
 8952TIP3   OH248346   2.239   4.290  16.847  0.2356  0.0604 -0.0414
 8952TIP3    H148347   2.327   4.329  16.847 -0.2526  1.2697  1.2412
 8952TIP3    H248348   2.247   4.211  16.900  0.9664 -0.9593 -1.6139
 8953TIP3   OH248349   3.215   0.209   1.366  0.4870  0.2241  0.9353
 8953TIP3    H148350   3.196   0.195   1.273 -1.0710 -0.7720  1.3692
 8953TIP3    H248351   3.291   0.267   1.367  1.1009 -0.4843 -0.9684
 8954TIP3   OH248352   2.303   3.785   4.204 -0.3622  0.2469  0.3296
 8954TIP3    H148353   2.281   3.855   4.142  0.9075  0.3719 -0.0014
 8954TIP3    H248354   2.300   3.705   4.152 -1.3547  0.0904  0.6036
 8955TIP3   OH248355   0.452   6.296   5.251 -0.3806 -0.6081 -0.1878
 8955TIP3    H148356   0.546   6.283   5.264 -0.4416  0.2848  1.4546
 8955TIP3    H248357   0.443   6.391   5.242 -1.3106 -0.4633  1.8031
 8956TIP3   OH248358   6.572   2.471  11.218  0.0506  0.2654  0.3156
 8956TIP3    H148359   6.585   2.377  11.228 -2.4697 -0.3173 -0.9425
 8956TIP3    H248360   6.579   2.487  11.124  1.0280  1.4863  0.5590
 8957TIP3   OH248361   3.643   3.110   1.565 -0.5546 -0.1686 -0.1041
 8957TIP3    H148362   3.575   3.159   1.517 -0.5109 -0.1054 -0.1022
 8957TIP3    H248363   3.616   3.019   1.559  0.2469 -0.3387 -1.5491
 8958TIP3   OH248364   6.734   6.225  16.268 -0.6329 -0.8316  0.1439
 8958TIP3    H148365   6.649   6.212  16.309 -1.5696  0.8633 -1.1074
 8958TIP3    H248366   6.714   6.238  16.175  0.7272  1.5608  0.0903
 8959TIP3   OH248367   3.270   5.018  14.455  0.3367  0.1419 -0.3689
 8959TIP3    H148368   3.202   4.963  14.493  1.4612 -0.1651  1.2879
 8959TIP3    H248369   3.326   5.042  14.528  2.4099 -0.1637 -1.7499
 8960TIP3   OH248370   1.931   0.686  16.954 -0.0158 -0.2138  0.3175
 8960TIP3    H148371   1.869   0.711  17.023  2.4055 -1.5383  3.1818
 8960TIP3    H248372   1.919   0.591  16.945  1.2764 -0.4107  0.6005
 8961TIP3   OH248373   0.261   6.829  15.265  0.4564  0.1274 -0.3262
 8961TIP3    H148374   0.330   6.795  15.322 -0.3939  0.1575  0.7617
 8961TIP3    H248375   0.254   6.921  15.289 -0.5977 -0.0906  0.2728
 8962TIP3   OH248376   3.348   0.679  11.798  0.2103 -0.2179 -0.0812
 8962TIP3    H148377   3.435   0.653  11.768  0.3133  0.2457 -0.1839
 8962TIP3    H248378   3.298   0.692  11.718  0.3895  0.6877 -0.0499
 8963TIP3   OH248379   6.117   4.632   2.398  0.1979 -0.0906 -0.5424
 8963TIP3    H148380   6.072   4.716   2.389 -1.7947 -1.0616 -0.2034
 8963TIP3    H248381   6.102   4.588   2.314  0.9029 -0.2693 -0.5789
 8964TIP3   OH248382   0.335   6.744   4.786 -1.0925 -0.3265 -0.7696
 8964TIP3    H148383   0.298   6.808   4.725 -2.6674 -1.7613 -1.4076
 8964TIP3    H248384   0.331   6.661   4.738  1.4243 -0.8534 -0.1790
 8965TIP3   OH248385   3.170   0.501  13.313 -0.0274  0.3937 -0.9102
 8965TIP3    H148386   3.104   0.533  13.252 -0.4756  1.6400  0.1715
 8965TIP3    H248387   3.206   0.423  13.272  0.0780  1.4928 -3.0139
 8966TIP3   OH248388   6.103   0.929  13.650 -0.5256 -0.1316  0.1186
 8966TIP3    H148389   6.097   0.941  13.745 -0.5629 -0.7287  0.1989
 8966TIP3    H248390   6.090   0.835  13.637  1.0481 -0.3184 -0.3424
 8967TIP3   OH248391   6.784   4.175   4.630  0.0797 -0.2560  0.7256
 8967TIP3    H148392   6.789   4.080   4.639 -0.8218 -0.3597  0.2777
 8967TIP3    H248393   6.750   4.205   4.715 -1.3847 -0.5232  0.2607
 8968TIP3   OH248394   4.308   3.210   6.237  0.6048 -0.4200 -0.0269
 8968TIP3    H148395   4.385   3.266   6.237  0.3373 -0.0496 -0.0535
 8968TIP3    H248396   4.249   3.251   6.300  0.3244 -0.5517 -0.2031
 8969TIP3   OH248397   6.741   2.414   5.142  0.3302 -0.5958  0.0920
 8969TIP3    H148398   6.713   2.440   5.230  0.7770 -2.4928  0.8400
 8969TIP3    H248399   6.668   2.439   5.085 -0.4512 -0.3750  1.1564
 8970TIP3   OH248400   0.757   0.074   3.947  0.7970  0.1016 -0.3569
 8970TIP3    H148401   0.695   0.119   3.890  2.0166  2.5054  0.0969
 8970TIP3    H248402   0.723   0.089   4.036 -0.8712 -3.2688 -0.2855
 8971TIP3   OH248403   6.733   3.018   4.996  0.1924 -0.1740  0.2124
 8971TIP3    H148404   6.738   3.024   4.900  0.2572  1.9185  0.3025
 8971TIP3    H248405   6.818   3.050   5.026  0.4401 -1.4828  0.9965
 8972TIP3   OH248406   2.016   2.079   0.324 -1.0810 -0.2387  0.2806
 8972TIP3    H148407   2.069   1.999   0.330  0.4325  0.8341  2.1628
 8972TIP3    H248408   2.041   2.117   0.239  1.5534  0.4226  1.2492
 8973TIP3   OH248409   1.459   2.180   3.815  0.0382 -0.1079 -0.4280
 8973TIP3    H148410   1.493   2.247   3.875 -0.5913 -0.1014 -0.0668
 8973TIP3    H248411   1.410   2.120   3.872  1.1110 -1.2233 -0.6701
 8974TIP3   OH248412   6.672   2.919  14.896  0.0970  1.1747  0.4276
 8974TIP3    H148413   6.635   2.893  14.812  1.8036 -0.5412  0.1345
 8974TIP3    H248414   6.601   2.907  14.959 -0.6844  0.7963 -0.5057
 8975TIP3   OH248415   4.277   5.248   5.600  0.2663  0.8430  0.3162
 8975TIP3    H148416   4.214   5.317   5.577 -1.2638  0.5577  3.1229
 8975TIP3    H248417   4.346   5.293   5.648 -0.6807  0.5146  2.0609
 8976TIP3   OH248418   1.103   1.085   3.991 -0.1668  0.6610  0.3364
 8976TIP3    H148419   1.009   1.092   4.004 -0.0314  1.9118  0.8219
 8976TIP3    H248420   1.115   1.007   3.937 -1.5964  1.2837 -0.9614
 8977TIP3   OH248421   5.372   2.467   2.387 -0.2359 -0.1090 -0.3419
 8977TIP3    H148422   5.356   2.377   2.361  0.5214 -0.1523 -0.6789
 8977TIP3    H248423   5.440   2.461   2.454 -0.7127  0.1595  0.1729
 8978TIP3   OH248424   5.689   2.707  11.589 -0.4312 -0.2368 -0.4639
 8978TIP3    H148425   5.744   2.724  11.513  0.0744  2.3173  0.3774
 8978TIP3    H248426   5.648   2.792  11.609 -0.0814 -0.6416  2.4553
 8979TIP3   OH248427   0.681   0.510  15.445 -0.3458  0.1319 -0.8571
 8979TIP3    H148428   0.740   0.527  15.372  1.3411 -0.2059  0.3838
 8979TIP3    H248429   0.738   0.503  15.522 -1.8289 -1.7822  0.1625
 8980TIP3   OH248430   4.728   1.908   1.569 -0.0407  0.0598 -0.1269
 8980TIP3    H148431   4.811   1.919   1.615 -0.3983 -1.5029  0.9719
 8980TIP3    H248432   4.752   1.898   1.477  1.2769 -2.8360  0.4266
 8981TIP3   OH248433   1.975   0.212  12.226  0.6203 -0.4731 -0.2628
 8981TIP3    H148434   1.982   0.117  12.237  0.1834 -0.8325 -2.5125
 8981TIP3    H248435   2.013   0.229  12.140  1.3810  1.5211  0.4069
 8982TIP3   OH248436   6.291   1.384   3.777 -0.2550 -0.6739 -0.0752
 8982TIP3    H148437   6.342   1.304   3.772  1.4824  0.4273 -1.1339
 8982TIP3    H248438   6.344   1.443   3.831 -0.8894  0.1788 -0.3463
 8983TIP3   OH248439   5.420   1.948   2.927  0.2809  0.2187  0.3369
 8983TIP3    H148440   5.402   2.016   2.992  0.0312  0.4045  0.0790
 8983TIP3    H248441   5.334   1.917   2.900  0.3930 -0.1275  0.3744
 8984TIP3   OH248442   3.744   2.522  16.831 -0.7007  0.0677 -0.0207
 8984TIP3    H148443   3.708   2.596  16.881  1.4170  1.2868 -0.2080
 8984TIP3    H248444   3.725   2.543  16.740 -0.1237  0.3859 -0.0723
 8985TIP3   OH248445   6.061   5.618  16.884  0.5755 -0.1263  0.1823
 8985TIP3    H148446   6.031   5.529  16.867 -1.4953  0.8943 -2.0511
 8985TIP3    H248447   6.044   5.631  16.978 -1.1357 -1.4064  0.1092
 8986TIP3   OH248448   5.739   4.833   5.000 -0.2206 -0.3958 -0.3168
 8986TIP3    H148449   5.687   4.848   4.921 -2.5692 -2.5636  0.6848
 8986TIP3    H248450   5.741   4.918   5.044  2.0950  1.1621 -3.0874
 8987TIP3   OH248451   1.429   3.467   6.165 -0.0262 -0.1808 -0.2827
 8987TIP3    H148452   1.449   3.519   6.243  0.9714 -1.4515  0.3340
 8987TIP3    H248453   1.333   3.463   6.164 -0.0580 -0.3378  1.0098
 8988TIP3   OH248454   4.250   0.746  12.478  0.1354 -0.5994 -0.2140
 8988TIP3    H148455   4.241   0.834  12.443  2.2791 -0.5930 -0.9049
 8988TIP3    H248456   4.180   0.738  12.543 -0.5626  1.3213 -0.6840
 8989TIP3   OH248457   3.400   0.107   0.536 -0.3830  0.0458  0.4885
 8989TIP3    H148458   3.432   0.195   0.519 -0.3749 -0.4305 -2.5314
 8989TIP3    H248459   3.478   0.051   0.529 -0.5573 -0.3144  1.3310
 8990TIP3   OH248460   0.915   1.059   3.798  0.1572 -0.2248  0.2737
 8990TIP3    H148461   0.975   0.985   3.807  0.5978  0.3074  2.4528
 8990TIP3    H248462   0.972   1.135   3.788 -0.2231  0.0528  0.1747
 8991TIP3   OH248463   1.102   6.767   5.529  0.0607  0.3029  1.5431
 8991TIP3    H148464   1.040   6.762   5.602 -1.3910  0.0606  0.3361
 8991TIP3    H248465   1.129   6.859   5.527 -0.9761  0.6171  1.5254
 8992TIP3   OH248466   3.835   1.969  15.083  0.0417  0.1339  0.4001
 8992TIP3    H148467   3.761   1.922  15.122  1.0135 -0.7330  1.2615
 8992TIP3    H248468   3.911   1.939  15.133  0.9111  1.4336 -0.0913
 8993TIP3   OH248469   0.388   2.165   4.390 -0.4320  0.3805  0.5964
 8993TIP3    H148470   0.409   2.083   4.434  0.7695  0.0377 -0.5236
 8993TIP3    H248471   0.303   2.191   4.425  0.2602 -0.0825  2.7374
 8994TIP3   OH248472   1.937   0.462  14.646 -0.6191  0.1039  0.3642
 8994TIP3    H148473   1.863   0.460  14.585 -0.0919 -0.3331 -0.2792
 8994TIP3    H248474   1.898   0.445  14.731 -1.7499  3.0514  0.5784
 8995TIP3   OH248475   3.699   1.788   5.049 -0.2626 -0.2885  0.2271
 8995TIP3    H148476   3.640   1.725   5.007 -2.0535  1.6397 -0.3731
 8995TIP3    H248477   3.740   1.835   4.976  0.5592 -0.3195  0.6580
 8996TIP3   OH248478   4.259   6.186   3.996  0.3955 -0.1494 -0.0079
 8996TIP3    H148479   4.328   6.121   4.007  1.3065  0.8411  0.4098
 8996TIP3    H248480   4.199   6.148   3.932  1.1826 -1.1651 -0.1608
 8997TIP3   OH248481   5.184   6.231   4.093  0.0120  0.7586 -0.0358
 8997TIP3    H148482   5.143   6.275   4.018  1.5295  0.5075 -1.0696
 8997TIP3    H248483   5.138   6.147   4.100  1.1621 -0.1184 -2.0519
 8998TIP3   OH248484   4.877   2.053  14.598  0.3637  0.4810 -0.1158
 8998TIP3    H148485   4.964   2.015  14.588 -0.1794 -0.6603 -0.7738
 8998TIP3    H248486   4.890   2.131  14.651  1.4443 -1.0858  2.0895
 8999TIP3   OH248487   2.324   2.246  14.946  0.2645 -0.2237  0.0454
 8999TIP3    H148488   2.386   2.268  15.016 -1.0432 -0.7590  1.4260
 8999TIP3    H248489   2.374   2.258  14.865  1.5476  1.3539  1.0101
 9000TIP3   OH248490   3.380   6.008   4.267  1.0134  0.5510  0.4883
 9000TIP3    H148491   3.342   6.095   4.279 -0.0397  0.0316  1.0387
 9000TIP3    H248492   3.313   5.958   4.221  2.2190  0.4504 -1.2518
 9001TIP3   OH248493   2.453   0.614  15.183 -0.7685  0.1745  0.1333
 9001TIP3    H148494   2.463   0.690  15.126 -0.9462  0.1111  0.0158
 9001TIP3    H248495   2.521   0.625  15.250 -0.2341 -0.0018 -0.3691
 9002TIP3   OH248496   1.030   3.285  11.859  0.0032  0.4066 -0.1653
 9002TIP3    H148497   1.091   3.213  11.872 -1.0168 -0.4612 -0.1006
 9002TIP3    H248498   0.989   3.267  11.774  0.8345  1.7380 -0.8858
 9003TIP3   OH248499   2.882   2.770  14.309  0.3735 -0.2655 -0.4687
 9003TIP3    H148500   2.968   2.807  14.328  0.1908  0.0491 -0.2445
 9003TIP3    H248501   2.824   2.809  14.374  0.1052 -0.6671 -0.4600
 9004TIP3   OH248502   5.680   5.766   3.584  0.0060  0.1511 -0.0095
 9004TIP3    H148503   5.708   5.858   3.589 -3.0474  1.1756  0.8074
 9004TIP3    H248504   5.638   5.759   3.498  0.3901 -0.5616 -0.1446
 9005TIP3   OH248505   0.349   1.854  11.322 -0.5092  0.5043 -0.3114
 9005TIP3    H148506   0.257   1.834  11.305 -0.1789  0.0873 -1.6837
 9005TIP3    H248507   0.383   1.885  11.238  0.7800 -0.0039  0.0046
 9006TIP3   OH248508   5.389   3.938   4.479 -0.4279  0.6640 -0.0917
 9006TIP3    H148509   5.315   3.882   4.456  0.3868 -2.2322  3.3129
 9006TIP3    H248510   5.463   3.901   4.430 -0.5539  1.2065 -0.6995
 9007TIP3   OH248511   2.379   5.428   0.432 -0.8229 -0.2174 -0.2021
 9007TIP3    H148512   2.316   5.494   0.402 -0.3503  0.0505 -0.6184
 9007TIP3    H248513   2.359   5.418   0.526 -0.0291  1.5226  0.1933
 9008TIP3   OH248514   1.714   5.444   3.987  0.6150 -0.2370 -0.0696
 9008TIP3    H148515   1.738   5.358   3.952  2.9456  0.6834 -0.9175
 9008TIP3    H248516   1.751   5.445   4.075 -0.4879 -0.5379  0.4054
 9009TIP3   OH248517   2.723   5.734  13.190 -0.0817  0.2684 -0.5373
 9009TIP3    H148518   2.775   5.738  13.271 -0.7130  2.1956 -0.1786
 9009TIP3    H248519   2.787   5.749  13.120 -0.1922  4.9353  0.0027
 9010TIP3   OH248520   3.337   6.206  11.806 -0.4244  0.5995 -0.4433
 9010TIP3    H148521   3.334   6.294  11.841 -1.8811  0.0304  1.0107
 9010TIP3    H248522   3.418   6.169  11.840  1.0210  1.8342 -2.3756
 9011TIP3   OH248523   2.383   1.766   1.673  0.0994 -0.1975 -0.3220
 9011TIP3    H148524   2.465   1.789   1.717  0.1687 -3.0343  1.2628
 9011TIP3    H248525   2.408   1.701   1.608 -0.7812 -0.5142 -0.3636
 9012TIP3   OH248526   6.216   6.239  13.019 -0.2695 -0.2834  0.2756
 9012TIP3    H148527   6.253   6.177  12.957 -0.1446  0.1109 -0.0468
 9012TIP3    H248528   6.138   6.273  12.975  0.3615  0.7293 -0.0842
 9013TIP3   OH248529   2.688   1.564   0.594  0.1446  0.4883 -0.4168
 9013TIP3    H148530   2.691   1.491   0.532  0.4269 -0.0096  0.1742
 9013TIP3    H248531   2.721   1.638   0.544  0.4877  0.0677 -0.8286
 9014TIP3   OH248532   1.016   2.930   6.685  0.3169  0.5784 -0.2192
 9014TIP3    H148533   1.105   2.905   6.712  0.6568  0.1813 -1.6176
 9014TIP3    H248534   1.029   3.008   6.630 -0.3980  1.6333  1.0292
 9015TIP3   OH248535   3.079   3.047  15.591 -0.1830  0.6841  0.2133
 9015TIP3    H148536   3.049   2.957  15.575  2.2309 -0.0651 -0.4789
 9015TIP3    H248537   3.079   3.088  15.505 -1.0631  1.3276  0.4972
 9016TIP3   OH248538   2.128   2.650   1.279 -0.0224 -0.3350  0.0781
 9016TIP3    H148539   2.079   2.727   1.307 -1.7291 -1.2527 -0.2911
 9016TIP3    H248540   2.097   2.633   1.190  0.4632 -1.3571  0.0948
 9017TIP3   OH248541   2.129   3.775   5.461 -0.2111  0.0911 -0.2586
 9017TIP3    H148542   2.057   3.768   5.398  0.7950  2.4325 -1.7803
 9017TIP3    H248543   2.087   3.761   5.546 -1.7872 -2.1268 -1.3022
 9018TIP3   OH248544   4.914   4.792   1.310 -0.7391  0.5319  0.1612
 9018TIP3    H148545   4.850   4.817   1.377  0.1594  0.5993  1.0181
 9018TIP3    H248546   4.942   4.704   1.335  0.2113  0.8792  0.3652
 9019TIP3   OH248547   3.003   6.430  10.682 -0.6230 -0.3133 -0.0915
 9019TIP3    H148548   2.920   6.384  10.696 -0.7006  0.0239  0.5878
 9019TIP3    H248549   3.053   6.372  10.624 -0.0982 -2.0227  1.9333
 9020TIP3   OH248550   5.457   6.037   0.512 -0.1126 -0.4581  0.3320
 9020TIP3    H148551   5.485   6.034   0.604  1.3356  1.4022  0.0249
 9020TIP3    H248552   5.363   6.056   0.517  0.0103 -0.0186  1.4574
 9021TIP3   OH248553   4.978   4.885   6.520 -0.1486 -0.2202  0.6759
 9021TIP3    H148554   5.003   4.965   6.566 -1.4206  0.0692  0.8839
 9021TIP3    H248555   4.890   4.902   6.487 -1.0471 -2.0229  1.9477
 9022TIP3   OH248556   5.203   4.025   2.270  0.1512  0.1756 -0.5963
 9022TIP3    H148557   5.178   4.109   2.307  0.8218 -0.6042  1.7831
 9022TIP3    H248558   5.155   4.020   2.187 -0.3471  2.6066 -0.5223
 9023TIP3   OH248559   5.739   4.073   2.205  0.4450 -0.7827  0.4275
 9023TIP3    H148560   5.779   4.153   2.171 -0.3096 -1.5482 -2.5285
 9023TIP3    H248561   5.656   4.102   2.243 -0.4187 -0.1885 -1.7392
 9024TIP3   OH248562   6.150   0.469  11.959 -0.0973 -0.6121  0.2896
 9024TIP3    H148563   6.170   0.431  11.873 -1.4401  1.5254 -1.0561
 9024TIP3    H248564   6.055   0.469  11.964 -0.0564  0.2097  1.3549
 9025TIP3   OH248565   0.880   0.898  12.540 -1.0493  0.3808 -0.6580
 9025TIP3    H148566   0.823   0.893  12.463 -0.1030  0.2341 -1.3588
 9025TIP3    H248567   0.967   0.917  12.504 -0.5533  0.0624  0.3623
 9026TIP3   OH248568   2.336   4.803  14.575 -0.6180  0.9666  0.3681
 9026TIP3    H148569   2.420   4.838  14.543 -1.4458  1.3751 -1.5191
 9026TIP3    H248570   2.306   4.867  14.639 -0.4829  1.9655 -0.5343
 9027TIP3   OH248571   3.948   1.062  10.883 -0.5352  0.3970 -0.2897
 9027TIP3    H148572   3.951   1.080  10.977  0.7645 -0.9894 -0.0134
 9027TIP3    H248573   3.888   0.988  10.875  0.0778 -0.0973 -0.4149
 9028TIP3   OH248574   2.774   1.422   4.399  0.3930  0.6190  0.0580
 9028TIP3    H148575   2.684   1.450   4.415  0.6188  0.4052  1.8684
 9028TIP3    H248576   2.781   1.337   4.441  0.6476 -0.7606 -2.5822
 9029TIP3   OH248577   3.419   4.312   3.764  0.6322 -0.8401  0.0277
 9029TIP3    H148578   3.444   4.402   3.740 -0.8396  0.1297  1.8545
 9029TIP3    H248579   3.492   4.279   3.816  2.0569 -1.4976 -2.2374
 9030TIP3   OH248580   0.345   0.306  12.841 -0.3624  0.2921 -0.1365
 9030TIP3    H148581   0.264   0.356  12.836 -1.0705 -0.6513  1.1336
 9030TIP3    H248582   0.414   0.372  12.852 -0.7637  1.1771 -2.4568
 9031TIP3   OH248583   0.789   3.537  14.745  0.2720  0.2362 -0.3799
 9031TIP3    H148584   0.807   3.510  14.836 -0.7581  2.0616  0.4218
 9031TIP3    H248585   0.799   3.633  14.746  0.5270  0.2692 -2.2831
 9032TIP3   OH248586   0.711   0.037   2.072  0.2723  0.4767 -0.4592
 9032TIP3    H148587   0.730   0.043   1.979  0.3430  0.6993 -0.4328
 9032TIP3    H248588   0.783   0.085   2.114  1.1532 -1.0349 -0.1763
 9033TIP3   OH248589   2.850   2.371   2.356  0.5892  0.3565 -0.2222
 9033TIP3    H148590   2.886   2.286   2.378 -1.7129 -1.1099 -1.7053
 9033TIP3    H248591   2.763   2.372   2.397  1.1139  2.6632  1.0345
 9034TIP3   OH248592   1.902   0.028   6.415 -0.3763 -0.1508 -0.4334
 9034TIP3    H148593   1.840   0.099   6.400  0.2859  0.5754  0.1247
 9034TIP3    H248594   1.946   0.016   6.330 -0.7093 -0.1041 -0.6114
 9035TIP3   OH248595   6.629   3.270   4.769  0.0306  0.1789 -0.0303
 9035TIP3    H148596   6.707   3.311   4.732  0.8592 -1.2361  0.0793
 9035TIP3    H248597   6.650   3.176   4.772 -0.7700  0.0029  2.1129
 9036TIP3   OH248598   0.771   1.364  16.226  0.3358 -0.2408 -0.0783
 9036TIP3    H148599   0.700   1.389  16.168  1.1377  1.0809 -0.5344
 9036TIP3    H248600   0.818   1.295  16.179  0.0659 -0.2801 -0.2897
 9037TIP3   OH248601   1.926   0.831  16.089  0.2132 -0.1917 -0.4941
 9037TIP3    H148602   1.909   0.757  16.031  0.4812  1.1632 -2.4123
 9037TIP3    H248603   1.874   0.813  16.168 -1.2270 -1.5005 -1.6812
 9038TIP3   OH248604   6.581   3.021  13.453  0.4561 -0.3283  0.1589
 9038TIP3    H148605   6.653   3.035  13.514 -0.0212  1.2898  0.4144
 9038TIP3    H248606   6.566   2.927  13.453  1.1497 -0.4606  1.7595
 9039TIP3   OH248607   4.933   5.029   2.666 -0.2531  0.3555  0.3125
 9039TIP3    H148608   5.018   5.063   2.638 -0.3285  1.9268  1.8437
 9039TIP3    H248609   4.870   5.094   2.635 -0.8865 -0.6498 -0.5509
 9040TIP3   OH248610   5.189   3.726   4.125  0.4664 -0.1282  0.0057
 9040TIP3    H148611   5.203   3.820   4.112 -0.3891  0.2746  1.7286
 9040TIP3    H248612   5.272   3.693   4.158  0.2374  0.3884  1.1219
 9041TIP3   OH248613   3.225   2.803   4.046  0.1220  0.1425 -0.1669
 9041TIP3    H148614   3.216   2.749   3.967  0.7053 -0.4450  0.1660
 9041TIP3    H248615   3.290   2.869   4.022  0.4372 -0.1484 -0.1188
 9042TIP3   OH248616   1.560   2.037  14.487  0.1148  0.4183  0.4394
 9042TIP3    H148617   1.516   1.954  14.467  0.2269  0.2114  1.0252
 9042TIP3    H248618   1.489   2.099  14.501  0.0279  0.3748  0.2014
 9043TIP3   OH248619   1.118   1.693   5.486  0.5565  0.2178  0.3909
 9043TIP3    H148620   1.065   1.642   5.547  1.3008  1.0632  1.7919
 9043TIP3    H248621   1.191   1.725   5.539  1.2719  0.9113 -0.9776
 9044TIP3   OH248622   6.704   5.038   6.040  0.1383  0.3644  0.1208
 9044TIP3    H148623   6.761   5.069   5.969 -0.5300 -0.8147 -0.9736
 9044TIP3    H248624   6.650   4.970   5.999  0.6818 -1.3623  2.0831
 9045TIP3   OH248625   6.124   5.220  13.788 -0.8277  0.4063  0.6152
 9045TIP3    H148626   6.195   5.188  13.732 -2.1488  0.4443 -1.1682
 9045TIP3    H248627   6.060   5.148  13.788 -2.1933  1.5816 -0.4313
 9046TIP3   OH248628   0.829   0.607  14.028 -0.3399 -0.0049 -0.3734
 9046TIP3    H148629   0.834   0.615  14.124  0.6237  0.7948 -0.4670
 9046TIP3    H248630   0.864   0.520  14.010  0.1462  0.1163 -0.0390
 9047TIP3   OH248631   5.333   4.194  10.714  0.4988 -0.5975  0.0391
 9047TIP3    H148632   5.425   4.206  10.692  0.2150 -1.2880 -1.6569
 9047TIP3    H248633   5.334   4.159  10.804  1.7750  1.0275  0.7072
 9048TIP3   OH248634   3.695   3.338   4.076 -0.0045  0.2853 -0.3712
 9048TIP3    H148635   3.761   3.271   4.097 -0.4587 -0.3189 -0.8120
 9048TIP3    H248636   3.641   3.344   4.155  0.0628  0.1497 -0.3141
 9049TIP3   OH248637   2.464   3.781   1.882 -0.3805 -0.1942  0.3120
 9049TIP3    H148638   2.554   3.750   1.871  0.0698  0.9731  0.5740
 9049TIP3    H248639   2.473   3.865   1.927 -1.6752 -0.7419  1.6996
 9050TIP3   OH248640   1.549   6.806  13.520  0.5172  0.0883 -0.3059
 9050TIP3    H148641   1.636   6.768  13.514  1.1048  0.8810  2.0619
 9050TIP3    H248642   1.536   6.821  13.614 -2.0403  0.2965 -0.6293
 9051TIP3   OH248643   4.972   2.515  11.738 -0.0483  0.3343 -0.1700
 9051TIP3    H148644   4.961   2.575  11.664  0.5885 -1.2331 -1.5955
 9051TIP3    H248645   4.933   2.433  11.708  2.3348 -1.0573  0.2468
 9052TIP3   OH248646   5.870   5.134  13.765 -0.3180  0.2550  0.1231
 9052TIP3    H148647   5.846   5.209  13.710 -2.3530 -0.8861 -0.6936
 9052TIP3    H248648   5.795   5.123  13.823  0.5859 -0.2944  1.2109
 9053TIP3   OH248649   4.241   4.568  10.823 -0.3896 -0.1339  0.4308
 9053TIP3    H148650   4.153   4.598  10.844 -0.2098 -0.3699  1.6317
 9053TIP3    H248651   4.296   4.645  10.835 -0.3742 -0.1063  0.1715
 9054TIP3   OH248652   5.707   2.431   1.664 -0.3935  0.5958  0.0192
 9054TIP3    H148653   5.794   2.463   1.688  0.1070 -1.4007  1.1282
 9054TIP3    H248654   5.702   2.344   1.703 -1.6567 -0.7033 -2.7403
 9055TIP3   OH248655   5.549   1.885  14.219 -0.1801  0.1454  0.3907
 9055TIP3    H148656   5.573   1.806  14.268  0.6516 -0.5012 -0.9865
 9055TIP3    H248657   5.567   1.862  14.127  0.9677  2.2479  0.0297
 9056TIP3   OH248658   2.373   2.386   5.148  0.3776 -0.0144  0.0792
 9056TIP3    H148659   2.336   2.437   5.076 -1.4582 -0.7548  0.4528
 9056TIP3    H248660   2.304   2.325   5.172  1.6560 -1.0647  1.2273
 9057TIP3   OH248661   5.589   2.917   3.619 -0.3771  0.1085 -0.1857
 9057TIP3    H148662   5.654   2.986   3.609  0.7563 -0.7635  0.9526
 9057TIP3    H248663   5.512   2.961   3.655  0.2902  0.8057  0.4054
 9058TIP3   OH248664   6.240   6.054  16.436  0.0741  0.1354  0.2528
 9058TIP3    H148665   6.259   6.119  16.504  0.6605 -0.2258  0.4390
 9058TIP3    H248666   6.291   5.977  16.461  4.3013  1.4847 -3.0814
 9059TIP3   OH248667   2.855   5.371  11.205 -0.3289  0.1562  0.2448
 9059TIP3    H148668   2.899   5.353  11.122 -2.9130 -0.3696 -1.1058
 9059TIP3    H248669   2.908   5.325  11.270  1.0124 -0.5753 -1.2818
 9060TIP3   OH248670   3.416   1.188  10.736 -0.4262 -0.1629 -0.0092
 9060TIP3    H148671   3.512   1.188  10.740 -0.4332 -1.4974  0.6016
 9060TIP3    H248672   3.394   1.106  10.692 -1.2986  0.0888 -0.0582
 9061TIP3   OH248673   4.932   0.927   2.527  0.0859 -0.5381 -1.0603
 9061TIP3    H148674   4.867   0.996   2.542 -0.2895 -1.4617  2.3240
 9061TIP3    H248675   4.881   0.851   2.499 -0.3106 -1.0827  0.9966
 9062TIP3   OH248676   1.264   0.938   6.341  0.7381  0.0108  0.2664
 9062TIP3    H148677   1.184   0.938   6.288  0.5892  2.0450  0.4087
 9062TIP3    H248678   1.320   0.873   6.299  0.2977  0.9420 -1.9321
 9063TIP3   OH248679   6.571   2.880   6.097 -0.0330  0.5796  0.9194
 9063TIP3    H148680   6.649   2.869   6.043  0.6759  1.2139  1.7867
 9063TIP3    H248681   6.577   2.970   6.129 -1.7003  1.0252  0.1245
 9064TIP3   OH248682   2.578   1.270  16.727 -0.4433 -0.3353 -0.2166
 9064TIP3    H148683   2.657   1.239  16.771  0.1396  0.9757 -0.2986
 9064TIP3    H248684   2.525   1.309  16.796 -0.8130 -0.7956 -0.2352
 9065TIP3   OH248685   1.529   3.906   1.923  0.1626  0.0871  0.6677
 9065TIP3    H148686   1.516   3.888   1.830 -3.0576 -2.5135  1.4390
 9065TIP3    H248687   1.576   3.829   1.956 -0.4004  0.0909  1.4982
 9066TIP3   OH248688   6.238   3.138   2.510 -0.0288  0.3203 -0.5247
 9066TIP3    H148689   6.168   3.180   2.459 -0.5863 -0.3990 -0.3733
 9066TIP3    H248690   6.198   3.057   2.542  0.4870  0.4868  0.5888
 9067TIP3   OH248691   1.160   6.295  10.265  0.6234 -0.0843  0.0071
 9067TIP3    H148692   1.242   6.343  10.273  1.4568 -1.4478  0.1233
 9067TIP3    H248693   1.188   6.205  10.246 -0.8533 -0.5645  0.0106
 9068TIP3   OH248694   3.330   2.853  15.400 -0.3196 -0.0767  1.0457
 9068TIP3    H148695   3.250   2.902  15.415  0.3479  1.2512  0.4553
 9068TIP3    H248696   3.326   2.828  15.308  0.2165  0.5283  0.8524
 9069TIP3   OH248697   2.935   1.692   5.201 -0.5227  0.2626 -0.4291
 9069TIP3    H148698   2.951   1.601   5.174  1.0536  0.4383 -0.1597
 9069TIP3    H248699   2.994   1.744   5.146  2.0408  0.7310  2.5329
 9070TIP3   OH248700   6.443   2.358   2.341  0.1992  0.2521 -0.1633
 9070TIP3    H148701   6.427   2.276   2.295 -0.8809  1.2513 -1.6861
 9070TIP3    H248702   6.417   2.426   2.278  0.7860  1.7494  1.1454
 9071TIP3   OH248703   3.778   6.074  16.030 -0.0572  0.0952 -0.0929
 9071TIP3    H148704   3.746   5.998  15.983  0.1434 -1.5813  2.3268
 9071TIP3    H248705   3.870   6.054  16.050 -0.3661  0.2824  1.7454
 9072TIP3   OH248706   4.338   3.801  14.209  0.5657  0.0525 -0.0332
 9072TIP3    H148707   4.259   3.748  14.196  0.8000 -0.0697 -0.9972
 9072TIP3    H248708   4.394   3.779  14.135  1.4862  0.1859  0.6130
 9073TIP3   OH248709   4.265   0.185   4.398 -0.3998 -0.7094  0.3748
 9073TIP3    H148710   4.274   0.186   4.303 -0.1212  0.9747  0.3786
 9073TIP3    H248711   4.203   0.115   4.416 -1.3726 -0.2914 -1.1612
 9074TIP3   OH248712   0.748   1.511  13.071 -0.0451 -0.2583  0.5078
 9074TIP3    H148713   0.715   1.471  13.151  1.4878  0.4699  1.5485
 9074TIP3    H248714   0.814   1.450  13.038 -0.1477 -0.2064  0.2004
 9075TIP3   OH248715   0.778   1.706   4.766  0.4577 -0.4135 -0.4655
 9075TIP3    H148716   0.782   1.799   4.790 -1.6021 -0.1753 -0.9101
 9075TIP3    H248717   0.849   1.695   4.703  0.5014  0.9400 -0.6909
 9076TIP3   OH248718   4.207   3.218  16.119 -0.1556  0.0889 -0.7740
 9076TIP3    H148719   4.259   3.288  16.078 -0.0440 -0.5144 -1.6971
 9076TIP3    H248720   4.197   3.246  16.210  2.4225 -0.0938 -0.3439
 9077TIP3   OH248721   3.180   0.677   4.479 -0.1594 -0.1959 -0.0380
 9077TIP3    H148722   3.223   0.758   4.450  1.9929 -1.8132 -1.7391
 9077TIP3    H248723   3.115   0.659   4.411  2.7571 -2.3398 -2.5586
 9078TIP3   OH248724   5.890   3.614   5.396  0.3091 -0.0402 -0.1833
 9078TIP3    H148725   5.856   3.569   5.474 -0.1860 -0.2768 -0.5292
 9078TIP3    H248726   5.897   3.546   5.329  0.7096  0.1666 -0.3564
 9079TIP3   OH248727   3.839   3.863   3.020  0.6349  0.1861 -0.1064
 9079TIP3    H148728   3.903   3.803   3.059 -1.0187 -1.7872 -0.2596
 9079TIP3    H248729   3.769   3.806   2.989 -0.4078  2.1251 -1.5112
 9080TIP3   OH248730   2.723   2.818  11.677 -0.0377 -0.2162 -0.2299
 9080TIP3    H148731   2.768   2.812  11.592  1.9011 -0.4292  0.7623
 9080TIP3    H248732   2.690   2.730  11.692  2.0974 -0.9633  0.4763
 9081TIP3   OH248733   1.370   1.857   1.325  0.8963  0.1421  0.5814
 9081TIP3    H148734   1.435   1.786   1.325  0.9230  0.1670  0.3332
 9081TIP3    H248735   1.318   1.842   1.404  1.0484 -0.0205  0.6509
 9082TIP3   OH248736   5.173   2.443   0.105 -0.1253 -0.3493  0.4812
 9082TIP3    H148737   5.231   2.504   0.061 -1.3492  0.1877 -0.4536
 9082TIP3    H248738   5.099   2.433   0.045 -1.0387 -0.9410  1.6585
 9083TIP3   OH248739   2.361   6.645  16.867 -0.1159  0.3605  0.0214
 9083TIP3    H148740   2.360   6.741  16.867 -0.5568  0.3605  1.0352
 9083TIP3    H248741   2.395   6.620  16.953 -2.4311 -0.3813  0.8006
 9084TIP3   OH248742   5.760   2.638   1.952 -0.0704  0.3180  0.1671
 9084TIP3    H148743   5.807   2.695   2.012 -1.1855  2.3149 -0.7693
 9084TIP3    H248744   5.814   2.637   1.873 -0.9854  1.6857 -0.5017
 9085TIP3   OH248745   5.664   2.569  13.877 -0.8852 -0.0427 -0.3650
 9085TIP3    H148746   5.733   2.619  13.920 -1.3961  0.6029 -0.2812
 9085TIP3    H248747   5.680   2.478  13.903 -1.0141  0.2966  0.9354
 9086TIP3   OH248748   0.542   3.726  11.466  0.1811 -0.1170 -0.5358
 9086TIP3    H148749   0.514   3.679  11.387 -1.5103  2.3436 -1.5467
 9086TIP3    H248750   0.570   3.812  11.434 -1.0231  1.1341  1.5591
 9087TIP3   OH248751   5.622   2.850  13.722 -0.0019  0.6650  0.2286
 9087TIP3    H148752   5.631   2.834  13.628 -3.0722  1.3725 -0.2764
 9087TIP3    H248753   5.609   2.762  13.760 -0.6029  0.5353 -0.2708
 9088TIP3   OH248754   4.869   5.596   3.670  0.0860  0.2652  0.6149
 9088TIP3    H148755   4.844   5.680   3.633  0.5118  0.1221 -0.0042
 9088TIP3    H248756   4.956   5.579   3.635 -0.1987 -0.6680  0.3233
 9089TIP3   OH248757   2.808   0.592   4.092  0.4662  0.1899 -0.1802
 9089TIP3    H148758   2.768   0.627   4.013  0.0426 -0.6898 -0.3617
 9089TIP3    H248759   2.742   0.535   4.130  1.4333 -1.1038 -0.3621
 9090TIP3   OH248760   1.630   1.085  14.293  0.3564 -0.3027 -0.0310
 9090TIP3    H148761   1.603   1.014  14.352  0.3401  0.3270  0.7346
 9090TIP3    H248762   1.700   1.130  14.341  1.0688 -0.4212 -0.9482
 9091TIP3   OH248763   4.637   1.162  13.013  0.0826  0.1757  0.2688
 9091TIP3    H148764   4.559   1.179  12.960  0.4933 -0.6197 -0.6060
 9091TIP3    H248765   4.608   1.178  13.103 -0.6157  1.5866 -0.1730
 9092TIP3   OH248766   1.618   3.509   2.272  0.4721 -0.0368  0.1941
 9092TIP3    H148767   1.662   3.505   2.357  0.5988  0.0494  0.1332
 9092TIP3    H248768   1.672   3.454   2.215  0.5552  0.1475  0.0957
 9093TIP3   OH248769   3.968   2.462   3.814 -0.2517 -0.1071  0.6092
 9093TIP3    H148770   4.018   2.527   3.765  2.1505 -1.5193  1.0053
 9093TIP3    H248771   3.886   2.452   3.765  0.5412  1.1085 -1.0529
 9094TIP3   OH248772   5.008   5.516   4.694 -0.5388 -0.3731  0.8026
 9094TIP3    H148773   5.006   5.570   4.773 -0.0277 -0.1568  0.6728
 9094TIP3    H248774   4.977   5.430   4.722  0.5728 -0.5811  1.4613
 9095TIP3   OH248775   5.738   2.801   0.013 -0.0702 -0.1468  0.0845
 9095TIP3    H148776   5.814   2.833  -0.035  0.9897 -1.3144  0.9367
 9095TIP3    H248777   5.774   2.763   0.093 -1.5984 -0.2666  0.7545
 9096TIP3   OH248778   4.849   3.767  13.706 -0.0798  0.0363  0.4860
 9096TIP3    H148779   4.937   3.730  13.703 -0.4909 -0.8945 -0.7637
 9096TIP3    H248780   4.828   3.788  13.615 -0.4058  2.1196  0.9871
 9097TIP3   OH248781   4.659   0.327   2.587  0.4460  0.4882 -0.2300
 9097TIP3    H148782   4.750   0.339   2.614  1.0013 -3.4625  0.3614
 9097TIP3    H248783   4.607   0.359   2.660  1.5713 -0.6515  1.1332
 9098TIP3   OH248784   4.273   1.506  14.061 -0.0980 -0.2189  0.0952
 9098TIP3    H148785   4.208   1.535  14.125 -0.0937 -0.5758  0.2661
 9098TIP3    H248786   4.303   1.422  14.095 -0.6701 -0.7908 -0.7987
 9099TIP3   OH248787   2.755   5.241   6.129 -0.3116 -0.3192  0.0790
 9099TIP3    H148788   2.771   5.213   6.219  1.8437 -2.1764 -0.7563
 9099TIP3    H248789   2.679   5.190   6.101 -0.4632 -0.3753  0.5852
 9100TIP3   OH248790   3.613   3.259  11.622 -0.5232 -0.0567 -0.5007
 9100TIP3    H148791   3.611   3.212  11.705 -2.0479  0.8907  0.0391
 9100TIP3    H248792   3.691   3.226  11.578  0.5127 -0.3557  1.4352
 9101TIP3   OH248793   6.092   4.185  16.030  0.0564 -0.3503  0.2246
 9101TIP3    H148794   6.056   4.272  16.049  0.7628  0.5960 -2.3949
 9101TIP3    H248795   6.185   4.201  16.011  0.0868 -1.5917 -0.7823
 9102TIP3   OH248796   2.414   0.503   0.341 -0.2942 -0.1448 -0.0060
 9102TIP3    H148797   2.417   0.519   0.435  0.0257 -0.6868  0.0781
 9102TIP3    H248798   2.333   0.453   0.327 -0.8082  0.7010 -0.1458
 9103TIP3   OH248799   4.503   1.687  12.553 -0.4709 -0.3959  0.1268
 9103TIP3    H148800   4.446   1.633  12.608  0.4416 -1.1558  0.3444
 9103TIP3    H248801   4.523   1.764  12.607 -0.7979 -0.4176  0.2817
 9104TIP3   OH248802   6.683   4.947   3.845  0.1288 -0.0218 -0.0043
 9104TIP3    H148803   6.702   4.923   3.755  0.5506  3.1797 -0.9102
 9104TIP3    H248804   6.604   4.898   3.868 -0.1230 -0.7200 -2.1954
 9105TIP3   OH248805   6.709   4.572  10.662 -0.3208  0.1752  0.2509
 9105TIP3    H148806   6.692   4.544  10.752  0.6473  0.9817  0.7064
 9105TIP3    H248807   6.804   4.561  10.652 -0.4877 -0.3686 -0.8438
 9106TIP3   OH248808   3.694   0.913  10.465  0.2292  0.2055 -0.0630
 9106TIP3    H148809   3.627   0.896  10.531 -1.5181  0.4815 -1.7010
 9106TIP3    H248810   3.649   0.903  10.381  3.2131 -4.0909 -1.4847
 9107TIP3   OH248811   6.544   5.084  15.396  0.4171  0.1689 -0.2020
 9107TIP3    H148812   6.625   5.130  15.372 -1.1767  2.7197 -1.0478
 9107TIP3    H248813   6.511   5.050  15.313  0.0084  0.1961 -0.0497
 9108TIP3   OH248814   3.917   0.697  16.430  0.0329 -0.0791 -0.3099
 9108TIP3    H148815   3.907   0.779  16.382 -0.4281  0.5897  0.9009
 9108TIP3    H248816   3.955   0.723  16.514 -0.9121 -0.9837  0.4212
 9109TIP3   OH248817   6.460   1.280  12.832 -0.2363  0.6519 -0.3015
 9109TIP3    H148818   6.520   1.210  12.856  0.1329  1.5659  1.6274
 9109TIP3    H248819   6.507   1.329  12.764  0.3666  0.2321 -0.1953
 9110TIP3   OH248820   2.527   0.880  14.122 -0.3532 -0.3015 -0.0884
 9110TIP3    H148821   2.584   0.848  14.052 -0.7310 -1.1114 -0.0297
 9110TIP3    H248822   2.448   0.827  14.114 -0.0720 -0.9933  1.4961
 9111TIP3   OH248823   5.764   5.946   5.755  0.2761 -0.1900  0.2817
 9111TIP3    H148824   5.741   5.876   5.817  0.0965 -0.2873  0.1055
 9111TIP3    H248825   5.687   5.954   5.699  1.2647 -1.6511 -1.3863
 9112TIP3   OH248826   0.743   1.698   5.326 -0.5305  0.3496 -0.0161
 9112TIP3    H148827   0.766   1.684   5.418  0.9835 -1.7947 -0.6476
 9112TIP3    H248828   0.801   1.770   5.299 -0.0766  0.1450  0.3853
 9113TIP3   OH248829   1.804   1.121   5.578 -0.0586 -0.1441  0.6588
 9113TIP3    H148830   1.839   1.037   5.606  0.1865 -1.0803 -2.1107
 9113TIP3    H248831   1.710   1.108   5.573  0.0121 -0.4159 -0.1419
 9114TIP3   OH248832   2.033   6.242  15.409  0.9388  0.0796  0.2443
 9114TIP3    H148833   1.997   6.301  15.343  1.8009  0.7510  0.3395
 9114TIP3    H248834   1.957   6.206  15.454  0.3767  0.9703  0.0402
 9115TIP3   OH248835   1.495   3.741   3.946  0.5510 -0.0109 -0.0682
 9115TIP3    H148836   1.510   3.648   3.959  0.0703 -0.1486 -0.4430
 9115TIP3    H248837   1.473   3.749   3.853 -1.4244  0.1656  0.3540
 9116TIP3   OH248838   3.304   6.013  11.607  0.1048  0.4230 -0.2024
 9116TIP3    H148839   3.316   6.082  11.672 -0.4895  0.7031 -0.3940
 9116TIP3    H248840   3.338   5.934  11.650 -0.2537  0.6128  0.4343
 9117TIP3   OH248841   1.651   3.531  14.057  0.6612 -0.0874 -0.3107
 9117TIP3    H148842   1.558   3.509  14.061  0.7965 -0.6345  3.5524
 9117TIP3    H248843   1.691   3.458  14.011 -0.4117 -2.0551  1.6903
 9118TIP3   OH248844   0.457   5.492  10.328 -0.0932  0.0399 -0.0048
 9118TIP3    H148845   0.368   5.494  10.364 -0.7134  1.3239 -1.4618
 9118TIP3    H248846   0.507   5.553  10.383 -0.5225  0.4774 -0.0877
 9119TIP3   OH248847   2.190   3.463   5.796 -0.2448  0.4405 -0.4930
 9119TIP3    H148848   2.116   3.405   5.812 -0.9361  1.4784  0.1469
 9119TIP3    H248849   2.204   3.508   5.879  1.2706  0.1036 -0.5206
 9120TIP3   OH248850   1.621   4.284  13.372  0.0673 -0.4326  0.2553
 9120TIP3    H148851   1.660   4.302  13.286 -0.2089  0.8053  0.3830
 9120TIP3    H248852   1.676   4.332  13.434  1.3776 -2.7394  1.0213
 9121TIP3   OH248853   3.326   3.420  12.240  0.1183 -1.0393  0.4025
 9121TIP3    H148854   3.295   3.330  12.228  1.1714 -1.2174 -1.4262
 9121TIP3    H248855   3.246   3.471  12.253 -0.6467 -1.9970 -0.3848
 9122TIP3   OH248856   0.912   2.952  14.084  0.0370  0.3551  0.0909
 9122TIP3    H148857   0.971   3.028  14.090  0.4799  0.0480 -0.2984
 9122TIP3    H248858   0.876   2.943  14.172  1.2225  0.0430  0.5600
 9123TIP3   OH248859   1.394   1.255   0.411  0.2897  0.2989 -0.4500
 9123TIP3    H148860   1.348   1.237   0.329  0.7002 -1.2700 -0.3686
 9123TIP3    H248861   1.330   1.237   0.479 -0.0052  1.4556 -0.4130
 9124TIP3   OH248862   0.374   3.088  11.770  0.8484 -0.4836  0.2733
 9124TIP3    H148863   0.349   3.003  11.734 -1.7205  1.2668 -2.5534
 9124TIP3    H248864   0.300   3.115  11.824  0.1678  1.1625 -1.3435
 9125TIP3   OH248865   3.541   1.062   1.095  0.4341  0.0047 -1.1411
 9125TIP3    H148866   3.539   0.968   1.077  0.0639 -0.0429 -0.8658
 9125TIP3    H248867   3.456   1.081   1.133  0.8555  0.2789 -0.3169
 9126TIP3   OH248868   0.248   0.956  15.994  0.3524 -0.7081 -0.0458
 9126TIP3    H148869   0.336   0.919  15.982  0.7393  0.2876 -0.3993
 9126TIP3    H248870   0.203   0.938  15.912  0.3255 -0.9612  0.0243
 9127TIP3   OH248871   4.417   1.021  16.286  0.1510  0.1161  0.1224
 9127TIP3    H148872   4.322   1.006  16.286 -0.1755  1.6133 -2.4014
 9127TIP3    H248873   4.438   1.039  16.377 -1.2745 -3.8345  1.4710
 9128TIP3   OH248874   0.410   3.500   2.971  0.3559  0.3759  0.1532
 9128TIP3    H148875   0.396   3.423   3.026 -0.5064  1.2927  1.2882
 9128TIP3    H248876   0.444   3.566   3.032  0.0388  1.2163 -0.5593
 9129TIP3   OH248877   2.270   0.981   1.699  0.1382  0.4053 -0.5995
 9129TIP3    H148878   2.215   0.947   1.771 -2.9271  2.8009 -1.5698
 9129TIP3    H248879   2.356   0.944   1.715 -1.0726 -1.4074  2.7112
 9130TIP3   OH248880   6.696   6.810   4.449 -0.6730  0.3384  0.2218
 9130TIP3    H148881   6.727   6.756   4.522 -2.2017  1.0403  1.4354
 9130TIP3    H248882   6.620   6.762   4.414  0.9567 -0.8297 -2.0467
 9131TIP3   OH248883   0.148   6.015   0.245 -0.1600 -0.2271  0.2430
 9131TIP3    H148884   0.110   6.050   0.326 -0.2001  0.3055  0.0019
 9131TIP3    H248885   0.202   5.942   0.273  1.7237  1.3790  1.0447
 9132TIP3   OH248886   3.478   6.538  12.111  0.5544  0.2854 -0.2662
 9132TIP3    H148887   3.536   6.608  12.080  1.0698  0.4608  1.0394
 9132TIP3    H248888   3.532   6.459  12.111  0.3535  0.1463 -0.4911
 9133TIP3   OH248889   2.315   1.900  13.278 -0.3956 -0.2082  0.5372
 9133TIP3    H148890   2.276   1.955  13.346 -1.0407  0.5995 -0.4426
 9133TIP3    H248891   2.272   1.929  13.197  0.8775 -0.6244 -0.3155
 9134TIP3   OH248892   1.281   5.871  15.546 -0.5388  0.4710 -0.3154
 9134TIP3    H148893   1.232   5.953  15.547  0.6722  1.2189 -0.4394
 9134TIP3    H248894   1.294   5.849  15.638 -2.0533 -0.3568 -0.2541
 9135TIP3   OH248895   1.069   5.402   1.382 -0.2481 -0.1033  0.1114
 9135TIP3    H148896   1.017   5.418   1.461 -1.8767 -0.9725 -0.7396
 9135TIP3    H248897   1.102   5.488   1.357  2.9757 -0.0971  3.4040
 9136TIP3   OH248898   1.523   4.315   5.299  0.3038  0.1401  0.0505
 9136TIP3    H148899   1.573   4.280   5.373  1.0441  1.1482  0.0588
 9136TIP3    H248900   1.528   4.247   5.232 -0.7855 -0.9958  1.0712
 9137TIP3   OH248901   5.459   6.003   3.632  0.8135  0.5052  0.1506
 9137TIP3    H148902   5.398   6.055   3.685 -0.7837 -0.4087 -0.7100
 9137TIP3    H248903   5.545   6.023   3.669  0.1849  2.9194  0.5307
 9138TIP3   OH248904   2.422   2.382   5.754 -0.6075  0.9720  0.0419
 9138TIP3    H148905   2.373   2.463   5.738  0.9930  2.1803  0.9453
 9138TIP3    H248906   2.495   2.385   5.692 -1.9349 -1.1414 -1.7772
 9139TIP3   OH248907   4.178   1.813   0.694  0.0322  0.0810 -0.2664
 9139TIP3    H148908   4.210   1.727   0.720 -0.5072 -0.0322  0.0494
 9139TIP3    H248909   4.160   1.858   0.777  0.1350  0.4317 -0.4296
 9140TIP3   OH248910   4.593   0.718   1.465  0.2611  0.4770 -0.2509
 9140TIP3    H148911   4.538   0.750   1.394 -0.5287  1.2882  0.6869
 9140TIP3    H248912   4.638   0.795   1.498  0.8908  0.0494 -0.1045
 9141TIP3   OH248913   0.572   0.125  15.323 -0.0826  0.1103 -0.0253
 9141TIP3    H148914   0.608   0.141  15.236 -1.6334  1.6716 -0.4356
 9141TIP3    H248915   0.558   0.030  15.326  1.4967 -0.1757 -0.8316
 9142TIP3   OH248916   1.697   0.349   2.743  0.7676  0.0528  0.0212
 9142TIP3    H148917   1.791   0.361   2.745  0.9792 -1.4763  1.7362
 9142TIP3    H248918   1.679   0.317   2.654  1.5854  1.8899 -0.8609
 9143TIP3   OH248919   5.206   5.446  14.067 -0.0646 -0.1307  0.4860
 9143TIP3    H148920   5.196   5.417  14.158 -2.0593  2.9821  1.4492
 9143TIP3    H248921   5.300   5.453  14.054  0.3717 -3.0846  1.3720
 9144TIP3   OH248922   3.218   4.111  11.621  0.0563 -0.2861  0.0105
 9144TIP3    H148923   3.311   4.129  11.637 -0.3791  1.4110  0.9387
 9144TIP3    H248924   3.186   4.190  11.577 -1.2121 -0.2892  0.8722
 9145TIP3   OH248925   1.443   0.211  16.720  0.5738  0.0898  0.3061
 9145TIP3    H148926   1.425   0.119  16.704  0.7693  0.2028 -0.6394
 9145TIP3    H248927   1.515   0.232  16.660 -1.8360  1.7545 -2.2674
 9146TIP3   OH248928   1.323   5.488   6.739 -0.0445 -0.1382 -0.6678
 9146TIP3    H148929   1.276   5.410   6.710 -3.1210  0.9090  1.0709
 9146TIP3    H248930   1.383   5.508   6.667  0.0639 -3.3976 -1.6409
 9147TIP3   OH248931   5.183   0.176   4.104 -0.2106  0.2319 -0.5253
 9147TIP3    H148932   5.123   0.134   4.042  1.7644 -2.1350 -0.9826
 9147TIP3    H248933   5.269   0.138   4.084  0.8446  0.7755  2.4327
 9148TIP3   OH248934   6.538   3.174   5.962 -0.5818  0.8833 -0.3406
 9148TIP3    H148935   6.563   3.152   6.052 -0.7889 -0.3909 -0.5673
 9148TIP3    H248936   6.494   3.258   5.969  1.5076  1.9760  0.4101
 9149TIP3   OH248937   4.197   2.204   2.796  0.0091 -0.4183  0.1427
 9149TIP3    H148938   4.189   2.271   2.728  1.6520  0.2852  0.5886
 9149TIP3    H248939   4.265   2.237   2.855  0.7992 -2.4244  0.4497
 9150TIP3   OH248940   6.568   3.780   5.294  0.0362  0.0753 -0.2477
 9150TIP3    H148941   6.644   3.768   5.351  0.2263  0.5704 -0.3962
 9150TIP3    H248942   6.559   3.695   5.250  0.8236  0.1660 -0.6121
 9151TIP3   OH248943   4.842   5.392  15.326  0.0045  0.5383  0.4833
 9151TIP3    H148944   4.857   5.370  15.417 -0.8263  1.3024  0.8249
 9151TIP3    H248945   4.910   5.455  15.304  0.3011  0.2319  0.5300
 9152TIP3   OH248946   5.997   1.800   1.870  0.1644 -0.3632  0.4544
 9152TIP3    H148947   5.936   1.755   1.812 -1.5313  0.9355  1.1411
 9152TIP3    H248948   6.073   1.819   1.814 -1.5342  1.1430 -1.5123
 9153TIP3   OH248949   6.536   6.177   4.890 -0.0782 -0.0534  0.0637
 9153TIP3    H148950   6.522   6.131   4.973 -0.2846 -0.0472  0.0322
 9153TIP3    H248951   6.449   6.204   4.863  0.0842  0.8305  0.3591
 9154TIP3   OH248952   1.903   1.498  12.254  0.0245  0.3694 -0.2430
 9154TIP3    H148953   1.886   1.430  12.319  0.2641  0.9102  0.4029
 9154TIP3    H248954   1.982   1.468  12.208  0.9441  0.8577  0.9680
 9155TIP3   OH248955   6.118   2.383   1.083  0.0118  0.7022  0.1700
 9155TIP3    H148956   6.089   2.303   1.038  2.0573 -0.1323  0.2349
 9155TIP3    H248957   6.112   2.361   1.176  0.4401  0.6608  0.1902
 9156TIP3   OH248958   4.057   4.729  12.517  0.1567  0.0231 -0.6325
 9156TIP3    H148959   4.135   4.780  12.536  0.4876 -0.8452  0.4239
 9156TIP3    H248960   4.014   4.776  12.445  1.1951  0.9705 -0.6495
 9157TIP3   OH248961   3.463   0.761   1.319  0.4299 -0.1130  0.3759
 9157TIP3    H148962   3.512   0.691   1.364 -0.7400 -1.9372 -1.0371
 9157TIP3    H248963   3.518   0.784   1.244 -0.6322 -1.9387 -1.0327
 9158TIP3   OH248964   4.646   3.356   0.421 -0.3468  0.0085 -0.0181
 9158TIP3    H148965   4.695   3.429   0.385  3.8229 -3.4662 -2.3426
 9158TIP3    H248966   4.680   3.345   0.510  0.7165 -0.4192 -0.4688
 9159TIP3   OH248967   0.078   1.034  10.818  0.4049 -0.3936  0.2975
 9159TIP3    H148968   0.010   0.970  10.839 -1.6182  1.2811 -0.7608
 9159TIP3    H248969   0.066   1.053  10.725  1.7119  0.6871  0.3116
 9160TIP3   OH248970   0.432   4.143  14.356  0.1026  0.0081 -0.5727
 9160TIP3    H148971   0.422   4.064  14.409 -0.0604 -0.1120 -0.7827
 9160TIP3    H248972   0.489   4.117  14.284 -0.9422 -0.2577 -1.3279
 9161TIP3   OH248973   3.849   3.567   5.113 -0.4610 -0.2611 -0.2142
 9161TIP3    H148974   3.803   3.539   5.192 -0.8068 -1.3751 -0.7813
 9161TIP3    H248975   3.936   3.529   5.122  0.2623  1.5030  0.6645
 9162TIP3   OH248976   0.379   4.899   2.228  0.1213 -0.7262 -0.1021
 9162TIP3    H148977   0.431   4.969   2.269 -0.3952 -0.2722 -0.2096
 9162TIP3    H248978   0.408   4.819   2.271 -0.3204 -0.2761  1.0785
 9163TIP3   OH248979   0.943   4.987   1.788 -0.1515 -0.6460 -0.0623
 9163TIP3    H148980   0.990   4.917   1.743  1.2297  1.6343 -2.4377
 9163TIP3    H248981   0.902   5.037   1.717 -2.5427  0.0177  1.6571
 9164TIP3   OH248982   0.499   6.764  12.671 -0.4089 -0.6999 -0.1632
 9164TIP3    H148983   0.574   6.805  12.628 -1.1603 -0.6922 -1.5062
 9164TIP3    H248984   0.532   6.740  12.758  0.3866  1.7480  0.3001
 9165TIP3   OH248985   1.186   0.799  14.688  0.5817  0.3164 -0.0316
 9165TIP3    H148986   1.267   0.749  14.691 -1.1976 -2.9606 -1.7882
 9165TIP3    H248987   1.163   0.814  14.780  2.5703  0.4280  0.4967
 9166TIP3   OH248988   1.799   3.011  14.067 -0.0589  0.3258 -0.0356
 9166TIP3    H148989   1.719   2.959  14.059 -0.1897  0.5627 -0.2587
 9166TIP3    H248990   1.845   2.998  13.984 -0.4983  1.2386 -0.4355
 9167TIP3   OH248991   0.751   0.841   3.289 -0.3589 -0.0167 -0.3156
 9167TIP3    H148992   0.690   0.863   3.360 -0.9777 -0.7653 -0.5970
 9167TIP3    H248993   0.701   0.782   3.232  0.7031 -0.8445 -0.4332
 9168TIP3   OH248994   0.771   6.359   3.248  0.5357  0.3417 -0.0440
 9168TIP3    H148995   0.700   6.321   3.197  0.8662 -1.3291  0.6731
 9168TIP3    H248996   0.733   6.435   3.291 -0.3912  0.3501 -0.8517
 9169TIP3   OH248997   3.560   1.773  16.121  0.3130  0.1886 -0.2163
 9169TIP3    H148998   3.572   1.704  16.055 -0.6465  1.3420 -1.6609
 9169TIP3    H248999   3.469   1.800  16.112  0.2336  0.5880  1.4322
 9170TIP3   OH249000   6.623   3.265   4.401  0.5301  0.3378 -0.1299
 9170TIP3    H149001   6.679   3.316   4.458 -1.0779  3.3084 -0.9931
 9170TIP3    H249002   6.654   3.284   4.312 -1.2960  1.4690 -0.5828
 9171TIP3   OH249003   1.401   0.330  14.967  0.4354  0.1013 -0.0682
 9171TIP3    H149004   1.382   0.238  14.984  0.8663 -0.2068 -1.1622
 9171TIP3    H249005   1.459   0.356  15.038  3.5064 -1.5715 -1.7426
 9172TIP3   OH249006   5.518   3.679   1.881  0.3915  0.8005  0.5524
 9172TIP3    H149007   5.519   3.585   1.896 -0.1751  0.7664  0.3715
 9172TIP3    H249008   5.611   3.703   1.875  0.6350  0.5942  2.6620
 9173TIP3   OH249009   1.282   5.542  14.393 -0.4220  0.4406 -0.2769
 9173TIP3    H149010   1.346   5.517  14.327 -1.0011  0.0759 -0.7129
 9173TIP3    H249011   1.255   5.459  14.433 -1.6052  0.4416 -1.0292
 9174TIP3   OH249012   0.837   5.713   4.988  0.0011 -0.1484 -0.5395
 9174TIP3    H149013   0.877   5.801   4.989  1.6158 -0.8405  0.4925
 9174TIP3    H249014   0.758   5.723   4.935 -0.0108  1.9949 -0.2077
 9175TIP3   OH249015   0.326   6.031   0.967 -0.4445  0.3493  0.3849
 9175TIP3    H149016   0.319   6.080   0.884  1.7221  0.8415  0.4363
 9175TIP3    H249017   0.364   6.094   1.029  0.0032 -0.6446  1.1476
 9176TIP3   OH249018   3.362   5.014   2.772 -0.5864 -0.7465 -0.1660
 9176TIP3    H149019   3.295   5.012   2.840 -1.7243  0.0146 -1.2284
 9176TIP3    H249020   3.348   4.933   2.722 -2.1772  0.4154 -1.7047
 9177TIP3   OH249021   1.738   2.979  15.445 -0.1184 -0.1847  0.3730
 9177TIP3    H149022   1.777   2.987  15.358  1.1544 -4.1729  0.3732
 9177TIP3    H249023   1.811   2.959  15.503 -1.1713  0.5990  2.0406
 9178TIP3   OH249024   0.843   0.498  11.907  0.2347  0.4921  0.1704
 9178TIP3    H149025   0.873   0.412  11.937 -0.4028  0.1145 -0.2544
 9178TIP3    H249026   0.766   0.479  11.853  0.2680  1.3051 -0.1768
 9179TIP3   OH249027   6.241   3.284   5.804  0.3097  0.2932  0.7844
 9179TIP3    H149028   6.269   3.333   5.727 -1.7157  0.5981  0.1794
 9179TIP3    H249029   6.191   3.347   5.856 -1.4664 -0.8052  0.4970
 9180TIP3   OH249030   1.230   3.334  11.520  0.0858  0.2039  0.0376
 9180TIP3    H149031   1.154   3.289  11.558 -0.8504  0.3840 -1.5328
 9180TIP3    H249032   1.298   3.266  11.517 -0.3831 -0.2947  0.3542
 9181TIP3   OH249033   4.920   1.728  13.589  0.0111  0.0435  0.3974
 9181TIP3    H149034   4.889   1.637  13.595 -0.1219  0.0444 -0.1954
 9181TIP3    H249035   4.846   1.776  13.552  0.1753  0.3470  0.4621
 9182TIP3   OH249036   3.137   3.690  12.950  0.2246 -0.8372 -0.1291
 9182TIP3    H149037   3.222   3.714  12.987 -0.4855 -1.0340  1.7853
 9182TIP3    H249038   3.135   3.731  12.864  2.0720 -0.4585 -0.0283
 9183TIP3   OH249039   2.399   2.021   3.435 -0.1853  0.2548 -0.1438
 9183TIP3    H149040   2.479   2.066   3.462 -0.5613  0.4554  0.6878
 9183TIP3    H249041   2.398   1.941   3.487 -0.5890  0.3154 -0.0581
 9184TIP3   OH249042   3.062   5.082   1.710  0.9048  0.2186  0.6607
 9184TIP3    H149043   3.065   4.987   1.717  0.5220  0.1086 -0.4305
 9184TIP3    H249044   3.008   5.110   1.785 -1.9831 -0.7415 -0.9186
 9185TIP3   OH249045   2.370   5.009  13.394 -0.2050 -0.1140 -0.1290
 9185TIP3    H149046   2.421   5.002  13.313 -3.1546  0.6346 -2.2262
 9185TIP3    H249047   2.356   5.103  13.405  0.3952 -0.1833  1.4818
 9186TIP3   OH249048   1.330   1.984   5.231  0.3130  0.4683  0.0722
 9186TIP3    H149049   1.239   1.984   5.203  0.7148  1.3370 -1.3328
 9186TIP3    H249050   1.375   1.929   5.167  0.9066  0.6952  0.2834
 9187TIP3   OH249051   3.019   5.181  12.730  0.2008 -0.2624 -0.0265
 9187TIP3    H149052   3.087   5.125  12.768 -0.3285 -0.5936  0.4443
 9187TIP3    H249053   3.045   5.270  12.753  0.5571 -0.3763  0.0155
 9188TIP3   OH249054   3.391   1.837   4.628 -0.1538 -0.0877  0.0315
 9188TIP3    H149055   3.352   1.755   4.658 -1.8045  0.5663 -0.2036
 9188TIP3    H249056   3.340   1.906   4.671  1.1853  0.8403  0.2133
 9189TIP3   OH249057   0.377   0.870  12.222 -0.5714  0.4620  0.3724
 9189TIP3    H149058   0.292   0.888  12.181 -0.3592  0.3825 -0.1055
 9189TIP3    H249059   0.432   0.943  12.194 -0.2665  0.1111  0.0519
 9190TIP3   OH249060   1.236   4.135   4.347 -0.5817 -0.0392  0.0286
 9190TIP3    H149061   1.293   4.163   4.418 -0.5499 -0.1170  0.0338
 9190TIP3    H249062   1.237   4.039   4.351 -0.9301 -0.0403  0.2070
 9191TIP3   OH249063   2.961   0.560  12.100  0.2226 -0.0802 -0.0431
 9191TIP3    H149064   2.933   0.498  12.032  0.8232  0.0424 -0.4035
 9191TIP3    H249065   3.029   0.514  12.149  0.1677  0.0318  0.1392
 9192TIP3   OH249066   4.904   0.465   1.241 -0.3749 -0.1684 -0.3547
 9192TIP3    H149067   4.824   0.495   1.282 -0.6401  0.6593 -1.4396
 9192TIP3    H249068   4.877   0.389   1.188  0.1444 -1.8974  1.7104
 9193TIP3   OH249069   2.031   1.176   6.186  0.0249 -0.3547 -0.0263
 9193TIP3    H149070   2.106   1.156   6.242  0.3711  1.2891  0.1702
 9193TIP3    H249071   1.955   1.160   6.242  0.2620 -1.1237  0.0832
 9194TIP3   OH249072   3.250   3.026  16.155 -0.6619  0.4581  0.0535
 9194TIP3    H149073   3.277   3.090  16.090 -1.3024  0.6320 -0.0487
 9194TIP3    H249074   3.154   3.022  16.147 -1.0166  2.0076  2.3608
 9195TIP3   OH249075   2.133   2.795  12.830 -0.0765 -0.4705 -0.0127
 9195TIP3    H149076   2.129   2.741  12.751  0.9365  0.5167 -0.7815
 9195TIP3    H249077   2.213   2.847  12.819 -0.3490  0.2689  1.2891
 9196TIP3   OH249078   2.324   4.631   4.378  0.1765  0.1258  0.6540
 9196TIP3    H149079   2.367   4.678   4.450  0.3002  0.7878  0.1648
 9196TIP3    H249080   2.315   4.541   4.410  0.8534  0.2479  1.2276
 9197TIP3   OH249081   6.481   2.595  16.521 -0.3408  0.3375 -0.1742
 9197TIP3    H149082   6.398   2.605  16.567  0.1023 -1.0137  0.9707
 9197TIP3    H249083   6.466   2.525  16.458  0.2799 -0.8418  0.9561
 9198TIP3   OH249084   1.995   6.683  14.753  0.1879  0.8310 -0.2301
 9198TIP3    H149085   2.076   6.640  14.782  0.4684 -0.6677 -2.8570
 9198TIP3    H249086   2.020   6.774  14.738  0.5533  1.1283  1.9084
 9199TIP3   OH249087   3.907   2.672  12.903  0.4974 -0.1941  0.2389
 9199TIP3    H149088   3.953   2.615  12.965  1.6000  1.1986  0.7453
 9199TIP3    H249089   3.975   2.729  12.868 -0.2603 -0.3930 -1.6452
 9200TIP3   OH249090   4.383   2.659   0.844 -0.2180 -0.5725  0.0841
 9200TIP3    H149091   4.371   2.648   0.938 -0.8718 -2.1389 -0.1405
 9200TIP3    H249092   4.474   2.632   0.829 -0.3847 -1.2260  0.1748
 9201TIP3   OH249093   6.711   0.247   2.367 -0.6422 -0.7859  0.2109
 9201TIP3    H149094   6.767   0.324   2.353 -1.9054  0.4002  1.2641
 9201TIP3    H249095   6.720   0.196   2.287  1.8867 -0.6545  0.3115
 9202TIP3   OH249096   1.088   0.768   0.264 -0.2129 -0.4944 -0.2906
 9202TIP3    H149097   1.138   0.757   0.183 -1.2941  0.2552 -1.0995
 9202TIP3    H249098   1.128   0.844   0.306  0.8803 -1.3814  0.3115
 9203TIP3   OH249099   2.423   5.871  15.777  0.1764 -0.7028 -0.2933
 9203TIP3    H149100   2.463   5.942  15.827 -0.8726 -0.5095  0.2761
 9203TIP3    H249101   2.414   5.906  15.689 -2.0542  0.6049  0.3759
 9204TIP3   OH249102   3.570   1.463  13.710 -0.2223  0.4011 -0.0371
 9204TIP3    H149103   3.546   1.374  13.685  1.7014  0.2580 -1.5259
 9204TIP3    H249104   3.623   1.452  13.789 -1.2085  0.3852  0.6500
 9205TIP3   OH249105   6.613   0.459   6.085 -0.4340 -0.5006 -0.2080
 9205TIP3    H149106   6.526   0.493   6.066 -0.5168 -0.8221 -0.4105
 9205TIP3    H249107   6.598   0.387   6.146 -0.3424 -0.7827 -0.5142
 9206TIP3   OH249108   6.375   3.255  14.396 -0.2216  0.0153 -0.2532
 9206TIP3    H149109   6.414   3.217  14.318  1.1830  2.7943 -1.0423
 9206TIP3    H249110   6.287   3.280  14.369  0.0882  0.5212 -0.8139
 9207TIP3   OH249111   5.672   2.709   1.562  0.0644  0.0576 -0.4211
 9207TIP3    H149112   5.610   2.755   1.618  0.1679 -1.9074  1.4611
 9207TIP3    H249113   5.648   2.616   1.571  2.5827 -0.6739 -0.4636
 9208TIP3   OH249114   2.648   2.947   1.973  0.0518  0.1590 -0.2523
 9208TIP3    H149115   2.590   2.873   1.955 -0.6807  0.7118 -0.2026
 9208TIP3    H249116   2.648   2.998   1.892  4.3502 -2.3059 -2.1477
 9209TIP3   OH249117   0.342   4.523   0.701  0.2184  0.0252  0.2038
 9209TIP3    H149118   0.393   4.456   0.746  0.1445 -0.9797 -1.1710
 9209TIP3    H249119   0.328   4.489   0.613 -1.0369  1.2192 -0.1025
 9210TIP3   OH249120   6.549   6.287  15.083  0.2720  0.5736  0.6030
 9210TIP3    H149121   6.504   6.317  15.162 -1.8736  1.5910 -0.9075
 9210TIP3    H249122   6.572   6.367  15.036 -1.1023  0.0377 -1.1286
 9211TIP3   OH249123   6.382   4.539  10.848  0.4330 -0.0496 -0.4035
 9211TIP3    H149124   6.288   4.558  10.855  0.3361 -0.4568 -0.5902
 9211TIP3    H249125   6.400   4.544  10.754  0.7718  0.8455 -0.3006
 9212TIP3   OH249126   5.959   3.465   2.866  0.0809 -0.0019  0.0826
 9212TIP3    H149127   5.866   3.485   2.882 -0.0223 -1.1133  0.9730
 9212TIP3    H249128   5.958   3.376   2.832  0.8479 -0.0923  0.3004
 9213TIP3   OH249129   1.826   0.738   3.066  0.3357  0.6271  0.2359
 9213TIP3    H149130   1.779   0.777   3.139  0.0012  2.2613 -0.8060
 9213TIP3    H249131   1.851   0.812   3.011  0.4609 -0.5467 -1.3668
 9214TIP3   OH249132   5.440   6.222   3.413  0.3294  0.1582  0.1315
 9214TIP3    H149133   5.432   6.251   3.322  1.3825 -0.7100 -0.2565
 9214TIP3    H249134   5.439   6.127   3.407 -1.8009  0.0414  1.2560
 9215TIP3   OH249135   4.786   3.729   1.584  0.3816 -0.6866 -0.3388
 9215TIP3    H149136   4.748   3.798   1.639 -0.7518 -1.7088  0.2091
 9215TIP3    H249137   4.852   3.687   1.640  0.3630 -0.6911 -0.3203
 9216TIP3   OH249138   2.074   1.290  12.085 -0.1416 -0.3743  0.2170
 9216TIP3    H149139   2.047   1.224  12.147 -0.5660 -1.0431 -0.6613
 9216TIP3    H249140   2.104   1.241  12.008  4.7555  0.1710  1.4494
 9217TIP3   OH249141   4.922   3.845   1.286  0.1959  0.0016  0.3356
 9217TIP3    H149142   4.884   3.758   1.287 -1.0035  0.5107  0.8215
 9217TIP3    H249143   4.946   3.860   1.195 -4.2871  1.1038 -0.9108
 9218TIP3   OH249144   1.846   2.426  13.349  0.2447 -0.2584  0.0057
 9218TIP3    H149145   1.915   2.446  13.413 -1.2483 -0.0187  1.6288
 9218TIP3    H249146   1.868   2.478  13.272  1.7691 -0.0603  0.5455
 9219TIP3   OH249147   5.208   2.607  11.375  0.0221  0.1717 -0.5348
 9219TIP3    H149148   5.148   2.534  11.360  0.1429 -0.0054 -0.1604
 9219TIP3    H249149   5.215   2.650  11.290 -1.8238  1.1163 -0.2573
 9220TIP3   OH249150   4.164   3.203  12.321 -0.3523 -0.1277  0.2005
 9220TIP3    H149151   4.171   3.197  12.416 -0.6751  0.6240  0.2790
 9220TIP3    H249152   4.239   3.154  12.288 -0.7864 -1.2469  0.8185
 9221TIP3   OH249153   3.275   5.243   4.247  0.1218  0.2427 -0.7564
 9221TIP3    H149154   3.328   5.317   4.276  1.2127 -0.3019 -1.3125
 9221TIP3    H249155   3.292   5.174   4.311  2.5090 -0.9515 -2.4977
 9222TIP3   OH249156   0.241   5.192  15.467  0.1700  0.7317 -0.2787
 9222TIP3    H149157   0.327   5.151  15.457  0.7273  1.9150 -0.4849
 9222TIP3    H249158   0.251   5.251  15.542  0.0389  2.0617 -1.2685
 9223TIP3   OH249159   1.471   3.687  17.035  0.4305  0.3209  0.4622
 9223TIP3    H149160   1.514   3.707  16.952 -1.0962  0.5304 -0.3286
 9223TIP3    H249161   1.492   3.595  17.051 -0.1398 -0.0461 -0.7538
 9224TIP3   OH249162   5.393   3.763   0.766 -0.9485 -0.8649  0.0670
 9224TIP3    H149163   5.477   3.721   0.751 -0.3714 -0.0502  0.9456
 9224TIP3    H249164   5.409   3.826   0.836 -1.5028  1.5979 -1.8820
 9225TIP3   OH249165   5.059   0.593  14.566  0.2627  0.2122  0.1503
 9225TIP3    H149166   5.102   0.678  14.573  2.1482 -0.7344  0.5146
 9225TIP3    H249167   5.046   0.564  14.656  1.3612 -0.7086  0.0307
 9226TIP3   OH249168   3.198   4.646  15.468 -0.3657  0.5260 -0.6481
 9226TIP3    H149169   3.177   4.727  15.422 -0.6045 -0.2458 -1.9695
 9226TIP3    H249170   3.124   4.587  15.448  0.4290 -0.4389 -0.8351
 9227TIP3   OH249171   5.152   4.598  16.507 -0.0199 -0.9176 -0.4752
 9227TIP3    H149172   5.230   4.647  16.482  1.1863 -1.3639  2.0963
 9227TIP3    H249173   5.177   4.551  16.586 -2.4494 -2.3100 -0.4306
 9228TIP3   OH249174   5.140   4.732   4.334 -0.0395  0.2658  0.1092
 9228TIP3    H149175   5.198   4.796   4.292  0.7428  0.4364  1.3890
 9228TIP3    H249176   5.058   4.780   4.348 -0.2014  0.3037 -0.8937
 9229TIP3   OH249177   6.021   1.428   5.548 -0.1398  0.0404 -0.0076
 9229TIP3    H149178   6.043   1.391   5.462  1.3315 -0.7724  0.6868
 9229TIP3    H249179   5.948   1.375   5.579  0.4163 -0.7717 -0.0495
 9230TIP3   OH249180   3.091   3.347  15.937  0.0771  0.2740 -0.1211
 9230TIP3    H149181   3.026   3.303  15.881  0.7353 -1.9277  0.7365
 9230TIP3    H249182   3.170   3.350  15.884  0.5670 -1.3809  0.4679
 9231TIP3   OH249183   1.843   0.529   2.244 -0.1637 -0.0396 -0.5042
 9231TIP3    H149184   1.803   0.612   2.220  0.6139  0.8479  1.1144
 9231TIP3    H249185   1.889   0.501   2.165  2.1924  2.6872 -0.2644
 9232TIP3   OH249186   0.923   4.712   5.910 -0.1714 -0.0748 -0.3116
 9232TIP3    H149187   1.006   4.693   5.867  0.1605  0.3338  0.1420
 9232TIP3    H249188   0.944   4.777   5.977 -0.3293 -2.1189  1.8234
 9233TIP3   OH249189   0.630   6.128   0.740  0.2654  0.1265 -0.3944
 9233TIP3    H149190   0.607   6.134   0.647  1.6418 -0.5511 -0.7879
 9233TIP3    H249191   0.603   6.213   0.776 -0.2463  0.4121 -1.4129
 9234TIP3   OH249192   0.175   1.854  12.436 -0.6619 -0.1846 -0.0265
 9234TIP3    H149193   0.231   1.844  12.359  0.1415 -0.0690  0.5364
 9234TIP3    H249194   0.133   1.768  12.447 -0.4001 -0.3478 -0.2969
 9235TIP3   OH249195   0.867   1.706  10.428 -0.4350  0.4526 -0.1186
 9235TIP3    H149196   0.904   1.626  10.390 -1.0633  0.2391 -0.2874
 9235TIP3    H249197   0.868   1.690  10.523 -0.9238  0.0878 -0.1751
 9236TIP3   OH249198   0.487   4.665  14.550  0.2159 -0.0249  0.4392
 9236TIP3    H149199   0.578   4.685  14.570  0.3564  0.6427 -0.7371
 9236TIP3    H249200   0.440   4.746  14.569  0.4782  0.9317 -2.4696
 9237TIP3   OH249201   3.159   3.782  15.141 -0.2406 -0.2009  0.2517
 9237TIP3    H149202   3.193   3.852  15.197 -1.9650  1.3063 -0.4773
 9237TIP3    H249203   3.185   3.807  15.053  0.5085 -1.3596  0.1222
 9238TIP3   OH249204   3.561   6.045  16.323 -0.0567 -0.1311 -0.0165
 9238TIP3    H149205   3.573   5.998  16.241  1.7374 -4.0455  2.2537
 9238TIP3    H249206   3.641   6.097  16.334 -1.0750  1.9006 -1.4338
 9239TIP3   OH249207   0.302   4.762  16.936 -0.6256 -0.5510  0.2560
 9239TIP3    H149208   0.345   4.833  16.984  1.5338 -1.1910 -0.5891
 9239TIP3    H249209   0.276   4.802  16.853  0.0326 -0.5774  0.0292
 9240TIP3   OH249210   6.565   1.005   1.745 -0.0867 -0.3259 -0.0505
 9240TIP3    H149211   6.480   0.970   1.720  0.9799 -0.9393 -3.2814
 9240TIP3    H249212   6.609   0.932   1.788  0.0338 -1.2242 -1.6021
 9241TIP3   OH249213   3.187   3.715   2.765 -0.0876 -0.2816 -0.1573
 9241TIP3    H149214   3.242   3.790   2.742 -0.3875  0.3262  1.0345
 9241TIP3    H249215   3.099   3.741   2.741 -0.5401  0.7051  2.2482
 9242TIP3   OH249216   0.159   0.102   2.812  0.3000  0.2083 -0.2372
 9242TIP3    H149217   0.169   0.015   2.852 -0.9101  0.4161  0.5643
 9242TIP3    H249218   0.236   0.111   2.756  0.5155 -1.3349 -0.2445
 9243TIP3   OH249219   5.959   2.807   1.541 -0.0202  0.3390 -0.5100
 9243TIP3    H149220   5.924   2.896   1.543 -0.3143  0.2237 -0.4440
 9243TIP3    H249221   5.889   2.755   1.502  0.2709  0.1878 -0.8382
 9244TIP3   OH249222   2.086   2.760   5.200 -0.3219 -0.2817 -0.3706
 9244TIP3    H149223   2.171   2.717   5.209  0.1300  0.7838  0.7226
 9244TIP3    H249224   2.103   2.837   5.146 -0.2094  0.8541  1.2229
 9245TIP3   OH249225   4.008   2.463  13.895 -0.0412 -0.5827 -0.1657
 9245TIP3    H149226   4.048   2.377  13.883  0.1535 -0.6218  0.7422
 9245TIP3    H249227   4.036   2.492  13.981 -1.5328 -0.3681  0.2795
 9246TIP3   OH249228   4.331   2.106  15.359 -0.4971  0.0487 -0.4121
 9246TIP3    H149229   4.343   2.199  15.380  1.0915 -0.0605 -0.6952
 9246TIP3    H249230   4.411   2.064  15.392 -0.9069 -1.1237 -0.8685
 9247TIP3   OH249231   4.045   5.088  16.930  0.1380  0.3751  0.2056
 9247TIP3    H149232   4.057   5.104  16.837  0.9339 -0.3701  0.1636
 9247TIP3    H249233   3.951   5.101  16.945 -0.4237 -1.6422 -1.1654
 9248TIP3   OH249234   4.189   1.567  17.166  0.0091 -0.5015 -0.2332
 9248TIP3    H149235   4.160   1.647  17.124  1.4917 -0.2613 -0.8574
 9248TIP3    H249236   4.127   1.500  17.136  0.4101 -0.1323 -2.0067
 9249TIP3   OH249237   6.516   4.591  15.583 -0.0906  0.2392  0.1513
 9249TIP3    H149238   6.593   4.556  15.540  0.3323 -0.8378  1.7013
 9249TIP3    H249239   6.489   4.665  15.528 -0.5189 -1.9477 -2.7731
 9250TIP3   OH249240   3.996   2.927  12.531 -0.1412  0.1710 -0.1623
 9250TIP3    H149241   3.957   3.004  12.572  0.5139  0.2878  0.2463
 9250TIP3    H249242   4.079   2.958  12.495  0.1517 -0.3527  0.0522
 9251TIP3   OH249243   2.786   5.059  13.748  0.4554  0.5924 -0.2987
 9251TIP3    H149244   2.713   5.053  13.686  0.5050  2.0788 -0.5232
 9251TIP3    H249245   2.793   5.152  13.768  3.1466  0.6885 -1.3362
 9252TIP3   OH249246   1.579   1.859   5.716 -0.1093 -0.8700  0.1164
 9252TIP3    H149247   1.605   1.813   5.636  0.0683 -1.6370  0.6011
 9252TIP3    H249248   1.626   1.814   5.786 -0.8553 -0.7079  0.7423
 9253TIP3   OH249249   0.049   6.605   1.621  0.2357  0.3569 -0.2014
 9253TIP3    H149250   0.037   6.683   1.675  1.0368  0.1585  0.2892
 9253TIP3    H249251  -0.038   6.565   1.616  0.1968  0.2311  1.1794
 9254TIP3   OH249252   5.761   6.596  12.166 -0.0023 -0.1122  0.2913
 9254TIP3    H149253   5.749   6.513  12.213 -2.7854 -0.3012 -0.5533
 9254TIP3    H249254   5.740   6.575  12.075  1.2617  1.1320 -0.3331
 9255TIP3   OH249255   2.941   1.698   0.019 -0.6413 -0.6783 -0.3787
 9255TIP3    H149256   3.007   1.764  -0.001 -1.9790  0.2216 -2.0581
 9255TIP3    H249257   2.991   1.617   0.033  0.8372  0.0404 -1.2740
 9256TIP3   OH249258   1.102   4.712  16.745  0.0484 -0.4044  0.4860
 9256TIP3    H149259   1.081   4.806  16.745 -1.1330 -0.6465  0.7686
 9256TIP3    H249260   1.123   4.692  16.654 -0.7853 -0.0782  0.2083
 9257TIP3   OH249261   3.219   6.451   2.636 -0.0094 -0.4241 -0.3547
 9257TIP3    H149262   3.179   6.516   2.694  0.9513  0.6956 -0.9116
 9257TIP3    H249263   3.223   6.494   2.551 -1.2329 -1.9760 -1.2592
 9258TIP3   OH249264   3.862   3.735   1.366  0.3875  0.0858  0.3451
 9258TIP3    H149265   3.899   3.714   1.452 -0.3081 -1.7672  0.2511
 9258TIP3    H249266   3.799   3.665   1.350  0.9933 -0.0206 -1.9836
 9259TIP3   OH249267   4.362   4.198  17.161 -0.2658 -0.3010  0.2379
 9259TIP3    H149268   4.267   4.214  17.166 -0.0561  0.8758  0.9893
 9259TIP3    H249269   4.383   4.210  17.068 -0.7673  0.0361  0.1597
 9260TIP3   OH249270   4.485   1.699   5.037  0.2758  0.1409  0.7074
 9260TIP3    H149271   4.515   1.636   5.102  0.5142  0.8909  1.3506
 9260TIP3    H249272   4.561   1.712   4.980  1.0062  1.4770  1.8940
 9261TIP3   OH249273   4.474   2.195   3.525  0.4151 -0.2673 -0.7841
 9261TIP3    H149274   4.560   2.210   3.486  0.1328  0.5062 -1.1252
 9261TIP3    H249275   4.476   2.103   3.552  1.1914 -0.3743 -1.1691
 9262TIP3   OH249276   3.824   3.059  10.638  0.2371 -0.4922  0.2450
 9262TIP3    H149277   3.875   3.118  10.693 -2.0436 -0.0984  2.0910
 9262TIP3    H249278   3.854   3.077  10.549  1.3488  1.6750  0.9920
 9263TIP3   OH249279   5.316   3.324  13.042  0.0549  0.2609  0.9176
 9263TIP3    H149280   5.310   3.404  12.988 -2.1875  0.0661  0.7810
 9263TIP3    H249281   5.226   3.308  13.070  0.6723 -1.5407  1.9891
 9264TIP3   OH249282   2.031   1.891  16.020  0.6692  0.1013 -0.1653
 9264TIP3    H149283   1.958   1.932  15.975 -0.0002  0.7291  1.4117
 9264TIP3    H249284   2.040   1.940  16.102  0.6070 -2.1054  1.2656
 9265TIP3   OH249285   6.373   3.857   1.027 -0.1471 -0.1792  0.1134
 9265TIP3    H149286   6.428   3.843   1.104  2.4442  0.4781 -1.4933
 9265TIP3    H249287   6.364   3.771   0.987 -0.8409 -0.3878  0.6932
 9266TIP3   OH249288   3.573   5.648  12.995 -0.5960  0.2348 -0.1419
 9266TIP3    H149289   3.551   5.561  12.963  3.9959 -1.1509 -0.2694
 9266TIP3    H249290   3.629   5.686  12.927 -1.3162  2.7613  0.5503
 9267TIP3   OH249291   2.608   5.551   1.227  0.3443  0.1874  0.3299
 9267TIP3    H149292   2.694   5.589   1.247  0.3973  0.6167 -0.6565
 9267TIP3    H249293   2.546   5.614   1.263  0.3989  2.2271 -2.8248
 9268TIP3   OH249294   2.188   1.168   1.522  0.0192  0.1533 -0.2508
 9268TIP3    H149295   2.159   1.119   1.445  0.4820  0.9485 -0.9612
 9268TIP3    H249296   2.214   1.102   1.585 -1.8907 -0.5593 -0.1531
 9269TIP3   OH249297   3.995   0.360  11.684 -0.0046  0.4635  0.4967
 9269TIP3    H149298   3.913   0.327  11.648  0.6611 -1.4360  0.6246
 9269TIP3    H249299   4.017   0.435  11.628 -0.2013 -0.9660 -1.6272
 9270TIP3   OH249300   6.220   2.483   4.420 -0.6789 -0.0553 -0.0651
 9270TIP3    H149301   6.177   2.552   4.472 -2.6278 -0.8578 -0.5036
 9270TIP3    H249302   6.236   2.412   4.482  1.0681  0.6266  0.3245
 9271TIP3   OH249303   6.825   3.067   0.480 -0.5711 -0.4147  0.3204
 9271TIP3    H149304   6.790   3.091   0.394 -1.7537 -2.2171  0.2674
 9271TIP3    H249305   6.916   3.045   0.463 -0.0230  1.7923  0.0259
 9272TIP3   OH249306   5.788   1.832  16.385 -0.1628 -0.4316 -0.9003
 9272TIP3    H149307   5.748   1.766  16.329 -0.7549 -0.0831 -0.8943
 9272TIP3    H249308   5.716   1.888  16.412  0.0463 -0.7966  0.4914
 9273TIP3   OH249309   2.295   4.715   6.722 -0.1180 -0.8912 -0.0182
 9273TIP3    H149310   2.346   4.760   6.789  0.6242 -0.7601 -0.6556
 9273TIP3    H249311   2.217   4.683   6.768 -0.7910  1.2058  0.4323
 9274TIP3   OH249312   0.452   4.250   3.816  0.1619 -0.3953 -0.1156
 9274TIP3    H149313   0.402   4.185   3.767 -1.0364 -1.2373  2.0949
 9274TIP3    H249314   0.389   4.289   3.876  1.3940  1.1265  0.2543
 9275TIP3   OH249315   5.923   2.990  16.333  0.6130 -0.0917 -0.0753
 9275TIP3    H149316   5.908   3.077  16.296  1.1179 -0.5385 -1.4053
 9275TIP3    H249317   5.855   2.936  16.294  0.5827 -0.3934  0.3899
 9276TIP3   OH249318   3.576   2.997   4.122  0.2540  0.3387  0.0379
 9276TIP3    H149319   3.528   3.025   4.044  0.3758  2.1571  0.5639
 9276TIP3    H249320   3.665   2.979   4.091 -0.2893 -1.4087 -0.6442
 9277TIP3   OH249321   4.312   3.438  14.782  0.3634  0.1138  0.2078
 9277TIP3    H149322   4.240   3.376  14.769 -0.4397  1.4320 -2.1087
 9277TIP3    H249323   4.302   3.467  14.872 -0.1060 -2.0121  0.9066
 9278TIP3   OH249324   0.248   5.711   2.970 -0.0815  0.4738 -0.2048
 9278TIP3    H149325   0.261   5.619   2.990 -1.1564  0.2682 -0.3936
 9278TIP3    H249326   0.249   5.755   3.055 -0.3990  0.1785 -0.0475
 9279TIP3   OH249327   3.206   3.743   1.985 -0.0866  0.5212  0.0480
 9279TIP3    H149328   3.253   3.664   1.957  0.4140  0.8654 -0.1013
 9279TIP3    H249329   3.275   3.803   2.012 -0.5601  0.0300  2.5431
 9280TIP3   OH249330   3.508   2.950  15.595  0.2915 -0.0416 -0.1961
 9280TIP3    H149331   3.568   3.013  15.555 -0.3089  0.5197 -0.2263
 9280TIP3    H249332   3.437   2.941  15.531  0.7578 -1.3763 -0.5630
 9281TIP3   OH249333   6.506   1.364   5.329  0.0239 -0.4804  0.3174
 9281TIP3    H149334   6.497   1.274   5.361 -0.1311 -0.3536  0.6285
 9281TIP3    H249335   6.417   1.394   5.315  0.0785 -0.4086  0.1076
 9282TIP3   OH249336   2.790   5.569  15.268  0.2145 -0.1506  0.6357
 9282TIP3    H149337   2.785   5.661  15.294 -2.2387 -0.0742  0.1140
 9282TIP3    H249338   2.874   5.561  15.223  0.3603  1.9014  0.4643
 9283TIP3   OH249339   2.024   1.351  15.695 -0.1869  0.5004  0.1121
 9283TIP3    H149340   2.058   1.363  15.784 -0.0551  0.1768  0.1052
 9283TIP3    H249341   2.042   1.260  15.674 -0.4194  0.5159 -0.1638
 9284TIP3   OH249342   3.799   2.798   6.066 -0.0844 -0.5684 -0.4490
 9284TIP3    H149343   3.740   2.812   5.992 -0.0083 -0.9587 -0.5832
 9284TIP3    H249344   3.740   2.776   6.139 -0.1336 -0.5250 -0.4755
 9285TIP3   OH249345   2.889   2.767   3.739  0.2996 -0.0692  0.2594
 9285TIP3    H149346   2.909   2.852   3.700 -0.3419  0.3525  0.8174
 9285TIP3    H249347   2.793   2.767   3.748  0.3391 -0.6311  0.7616
 9286TIP3   OH249348   3.079   4.401   0.841 -0.6615 -0.0726 -0.0914
 9286TIP3    H149349   3.049   4.349   0.916 -0.6119  0.2362  0.1466
 9286TIP3    H249350   3.158   4.446   0.873 -2.0192  2.0578  0.5360
 9287TIP3   OH249351   4.681   5.396   2.401  0.1832  0.7037  0.6743
 9287TIP3    H149352   4.689   5.380   2.307  1.7546 -2.4602  1.1952
 9287TIP3    H249353   4.593   5.366   2.423  1.0878 -2.2845  0.6688
 9288TIP3   OH249354   6.234   1.377  12.715  0.4155 -0.3305 -0.4815
 9288TIP3    H149355   6.298   1.343  12.778  0.8561  0.1689 -0.6506
 9288TIP3    H249356   6.152   1.381  12.763  0.5694 -0.7330 -0.1830
 9289TIP3   OH249357   2.329   2.329  12.058  0.1248  0.2197 -0.3426
 9289TIP3    H149358   2.362   2.339  11.968  1.1858  2.0526  0.1963
 9289TIP3    H249359   2.266   2.400  12.069 -0.8405 -0.6608  0.0449
 9290TIP3   OH249360   5.701   6.178   0.148  0.1074 -0.2574 -0.4862
 9290TIP3    H149361   5.757   6.223   0.212  0.4323 -2.2376  0.7136
 9290TIP3    H249362   5.665   6.103   0.197 -1.7097 -0.3707 -1.9181
 9291TIP3   OH249363   2.002   1.422  14.990  0.2492 -0.2943  0.4661
 9291TIP3    H149364   2.078   1.420  15.048  0.0672 -0.8285  0.6895
 9291TIP3    H249365   2.038   1.444  14.905  0.7963 -1.5111  0.3607
 9292TIP3   OH249366   1.319   6.210   2.176  0.3179 -0.2352 -0.1962
 9292TIP3    H149367   1.386   6.210   2.108 -0.0548 -0.6556 -0.5771
 9292TIP3    H249368   1.344   6.140   2.236 -0.2098 -0.9477 -0.7880
 9293TIP3   OH249369   6.269   2.740  15.338  0.2155  0.6622  0.2308
 9293TIP3    H149370   6.362   2.719  15.349  0.0185 -1.2241 -1.3427
 9293TIP3    H249371   6.269   2.831  15.307  1.3022  1.8957  3.4367
 9294TIP3   OH249372   0.819   2.798  11.422 -0.7001  0.0027 -0.2814
 9294TIP3    H149373   0.751   2.857  11.454  0.7365  1.1699  0.7974
 9294TIP3    H249374   0.820   2.812  11.327 -1.6720  0.2647 -0.2610
 9295TIP3   OH249375   3.160   4.102   3.663  0.1854  0.1025  0.3750
 9295TIP3    H149376   3.188   4.015   3.691  2.7563  0.6872 -0.0784
 9295TIP3    H249377   3.102   4.086   3.589  1.1433 -1.2480 -0.1225
 9296TIP3   OH249378   4.173   5.199  11.793  0.2031  0.0992 -0.4663
 9296TIP3    H149379   4.232   5.219  11.866  2.0113 -2.3836 -1.1061
 9296TIP3    H249380   4.093   5.167  11.834  0.4825  0.5107  0.4238
 9297TIP3   OH249381   0.076   1.042   3.383 -0.3479 -0.3875  0.0245
 9297TIP3    H149382   0.105   1.054   3.293 -0.3167  0.1742  0.1109
 9297TIP3    H249383   0.120   1.111   3.433 -1.2619  0.0279  0.2761
 9298TIP3   OH249384   5.430   5.612  11.938  0.2830 -0.0432 -0.5779
 9298TIP3    H149385   5.378   5.684  11.903  1.3959  0.6641 -0.8642
 9298TIP3    H249386   5.407   5.537  11.884 -1.3849 -0.0834  0.1488
 9299TIP3   OH249387   5.468   1.227   3.669  0.2493 -0.1599  0.1269
 9299TIP3    H149388   5.542   1.270   3.627 -0.2702 -0.9621 -1.6766
 9299TIP3    H249389   5.464   1.140   3.629 -2.5487  0.3598 -0.9368
 9300TIP3   OH249390   5.694   0.296   4.307 -0.0214  0.0273 -0.4524
 9300TIP3    H149391   5.634   0.242   4.358  0.0983  0.5946  0.3209
 9300TIP3    H249392   5.781   0.268   4.336  0.1479 -1.4422 -2.2430
 9301TIP3   OH249393   4.842   1.509  15.054 -0.0069 -0.0193  0.0382
 9301TIP3    H149394   4.779   1.547  14.992  1.0385  0.1113 -0.9660
 9301TIP3    H249395   4.793   1.502  15.136 -1.3566  0.0082 -0.7342
 9302TIP3   OH249396   2.206   2.565  16.099 -0.1148 -0.2058  0.1993
 9302TIP3    H149397   2.247   2.523  16.175  0.5253 -0.5208 -0.3064
 9302TIP3    H249398   2.235   2.513  16.024  0.9676  1.2877 -0.4937
 9303TIP3   OH249399   5.758   2.988   1.896  0.1198 -0.5250  0.5116
 9303TIP3    H149400   5.802   2.991   1.811 -0.9423 -2.4620 -0.1687
 9303TIP3    H249401   5.826   2.960   1.957  0.7712  0.4250  0.2585
 9304TIP3   OH249402   6.286   1.486  15.512  0.3130  0.3642 -0.6877
 9304TIP3    H149403   6.350   1.444  15.455 -0.2982  0.0529 -1.1572
 9304TIP3    H249404   6.234   1.414  15.548 -0.2134  0.6593 -0.8501
 9305TIP3   OH249405   2.309   1.331   6.450 -0.1489  0.3435 -0.3189
 9305TIP3    H149406   2.222   1.344   6.488 -0.4952  1.7540 -1.4956
 9305TIP3    H249407   2.300   1.254   6.394 -0.3138 -0.2194  0.4780
 9306TIP3   OH249408   5.299   3.706   6.213  0.4105 -0.3673  0.1058
 9306TIP3    H149409   5.375   3.722   6.269  1.6668 -0.7765 -1.4139
 9306TIP3    H249410   5.288   3.611   6.215  0.1857 -0.3426  0.0049
 9307TIP3   OH249411   0.683   4.747  13.494 -0.3774 -0.0090  0.0260
 9307TIP3    H149412   0.757   4.802  13.469  1.1549 -2.0159 -0.1058
 9307TIP3    H249413   0.624   4.805  13.542 -0.0283  2.2760 -2.1507
 9308TIP3   OH249414   5.002   0.852   6.028  0.1472  0.3220  0.2326
 9308TIP3    H149415   4.997   0.813   5.941  0.4996  1.9405 -0.5419
 9308TIP3    H249416   4.999   0.777   6.088  0.5173 -0.8602 -1.1800
 9309TIP3   OH249417   4.637   3.252   5.351 -0.3624  0.8052 -0.1202
 9309TIP3    H149418   4.689   3.296   5.418 -1.8117 -0.1454  1.7155
 9309TIP3    H249419   4.698   3.192   5.309  0.3521  0.5913  1.1597
 9310TIP3   OH249420   3.955   1.440  11.756  0.1735  0.2848 -0.4148
 9310TIP3    H149421   3.933   1.389  11.834  2.4550  1.6199  1.2330
 9310TIP3    H249422   3.871   1.455  11.713 -1.0511 -1.3316  1.2362
 9311TIP3   OH249423   1.710   5.713  14.634 -0.0892 -0.2173  0.0602
 9311TIP3    H149424   1.629   5.753  14.604  0.4047  0.4491 -0.4253
 9311TIP3    H249425   1.778   5.777  14.612  1.1392 -2.3662 -3.1653
 9312TIP3   OH249426   6.257   5.329   1.191 -0.3915 -0.0364  0.0540
 9312TIP3    H149427   6.265   5.424   1.184  0.3743  0.1663  2.7441
 9312TIP3    H249428   6.167   5.311   1.165 -0.1683  1.1958 -1.8488
 9313TIP3   OH249429   3.407   4.110   0.133 -0.1013  0.4991  0.1183
 9313TIP3    H149430   3.422   4.022   0.099  0.7475  0.7539 -0.2115
 9313TIP3    H249431   3.378   4.096   0.224 -0.3836 -0.1254 -0.0616
 9314TIP3   OH249432   4.319   3.339   5.660  0.3670  0.0630  0.0945
 9314TIP3    H149433   4.319   3.434   5.651  0.7948  0.0241 -0.4023
 9314TIP3    H249434   4.332   3.323   5.753 -2.4033  0.5040  0.6211
 9315TIP3   OH249435   1.647   2.239   1.522 -0.4812 -0.1811 -0.2647
 9315TIP3    H149436   1.710   2.176   1.556 -0.7419  0.7329  2.1189
 9315TIP3    H249437   1.562   2.208   1.553 -0.6926  0.8696  0.2649
 9316TIP3   OH249438   1.064   0.611   3.288 -0.3636 -0.7750  0.0387
 9316TIP3    H149439   1.084   0.632   3.197  1.0300 -1.5438  0.1332
 9316TIP3    H249440   1.076   0.693   3.335 -1.6668 -0.2292 -0.5193
 9317TIP3   OH249441   1.254   0.491  11.695 -0.1013 -0.4226 -0.0009
 9317TIP3    H149442   1.198   0.435  11.748  1.5996  0.1702  2.6203
 9317TIP3    H249443   1.195   0.556  11.657 -1.3119 -0.2253  2.0959
 9318TIP3   OH249444   2.411   0.724  12.826 -0.1578 -0.5083  0.0372
 9318TIP3    H149445   2.366   0.683  12.752 -0.3514 -0.3793  0.0858
 9318TIP3    H249446   2.353   0.794  12.855 -0.0597 -0.5265  0.2812
 9319TIP3   OH249447   1.040   3.798  13.277  0.3090  0.2429 -0.1823
 9319TIP3    H149448   1.041   3.707  13.246 -1.3318 -0.5587  1.8875
 9319TIP3    H249449   0.951   3.829  13.257  0.3748  0.8808  0.4691
 9320TIP3   OH249450   2.316   0.012  11.844  0.6276 -0.0840 -0.1597
 9320TIP3    H149451   2.314   0.101  11.809  0.6634  0.4392  1.0929
 9320TIP3    H249452   2.252  -0.036  11.791 -0.9069  1.2115  0.4122
 9321TIP3   OH249453   0.416   4.063  16.876 -0.0343  0.1754 -0.2840
 9321TIP3    H149454   0.322   4.048  16.893 -0.1956  2.2831  1.1243
 9321TIP3    H249455   0.446   3.981  16.837 -2.7775 -0.0405 -2.2483
 9322TIP3   OH249456   0.516   5.139  17.043 -0.2025  0.1768  0.3608
 9322TIP3    H149457   0.468   5.173  17.119  0.0403  0.8839  0.1939
 9322TIP3    H249458   0.603   5.119  17.076 -0.4148 -0.5215  0.5140
 9323TIP3   OH249459   5.359   3.301  15.508 -0.7930  0.1340  0.5914
 9323TIP3    H149460   5.324   3.334  15.590 -1.2619  2.1475 -0.3573
 9323TIP3    H249461   5.448   3.336  15.503 -0.6881 -0.1592  0.3504
 9324TIP3   OH249462   5.459   5.863   1.063  0.1899 -0.2145  0.0451
 9324TIP3    H149463   5.391   5.929   1.045  1.4138  1.2255  0.4733
 9324TIP3    H249464   5.428   5.817   1.141 -1.4746 -1.3132 -1.1970
 9325TIP3   OH249465   4.128   0.394  11.920  0.4979  0.0223 -0.1163
 9325TIP3    H149466   4.073   0.466  11.949  0.1703 -0.2659 -0.0188
 9325TIP3    H249467   4.108   0.382  11.828  0.3974 -0.0827 -0.0809
 9326TIP3   OH249468   3.263   1.823   1.954 -0.1219 -0.5994 -0.2798
 9326TIP3    H149469   3.328   1.880   1.994 -0.4245  0.2400 -0.9535
 9326TIP3    H249470   3.233   1.767   2.025 -1.0924  1.2381  0.8458
 9327TIP3   OH249471   0.627   1.163  12.335 -0.1842 -0.1022 -0.1184
 9327TIP3    H149472   0.627   1.259  12.329  0.8959 -0.1249 -0.7195
 9327TIP3    H249473   0.559   1.135  12.273 -1.3241  0.2886  0.9006
 9328TIP3   OH249474   6.569   1.212  14.368 -0.7081  0.4517  0.1350
 9328TIP3    H149475   6.609   1.166  14.294  2.1225 -0.7533  2.2592
 9328TIP3    H249476   6.625   1.288  14.383 -0.9044  0.3819  1.3496
 9329TIP3   OH249477   3.310   0.943  16.601  0.2654  0.0800  0.2200
 9329TIP3    H149478   3.243   0.988  16.653  0.5743 -0.1805  0.8594
 9329TIP3    H249479   3.372   1.012  16.577 -0.7725  0.5236 -1.2837
 9330TIP3   OH249480   6.013   5.709  15.384 -0.4320 -0.1792  0.0391
 9330TIP3    H149481   5.960   5.637  15.349 -0.8923  0.1077  0.1314
 9330TIP3    H249482   5.949   5.775  15.411  0.0322  1.3110 -2.2418
 9331TIP3   OH249483   6.262   5.692   0.034  0.6268 -0.2230 -0.5195
 9331TIP3    H149484   6.334   5.714   0.092  0.4523  1.3743 -0.8849
 9331TIP3    H249485   6.186   5.683   0.092  0.6336  0.5003 -0.3905
 9332TIP3   OH249486   5.529   3.037   4.661 -0.7131 -0.0399 -0.2603
 9332TIP3    H149487   5.552   2.983   4.736 -2.5740 -0.1907  0.2409
 9332TIP3    H249488   5.526   3.126   4.696 -0.8929 -0.0239 -0.3149
 9333TIP3   OH249489   6.324   4.600   1.684  0.0706  0.1967  0.6211
 9333TIP3    H149490   6.261   4.559   1.625 -0.9190 -0.1643  1.8923
 9333TIP3    H249491   6.307   4.694   1.676 -0.7262  0.0971  1.0361
 9334TIP3   OH249492   2.202   4.755  16.105  0.2737  0.2713  0.4525
 9334TIP3    H149493   2.271   4.794  16.051 -0.8434  1.8683  0.0891
 9334TIP3    H249494   2.249   4.713  16.177  1.6248  1.9399  0.6321
 9335TIP3   OH249495   1.705   1.080  12.726 -0.1836  0.0145  0.6992
 9335TIP3    H149496   1.674   1.012  12.786  1.5089 -1.9218 -0.4783
 9335TIP3    H249497   1.630   1.099  12.670 -0.9893 -0.0683  1.7130
 9336TIP3   OH249498   0.256   6.621   5.976  0.0423  0.0989 -0.3507
 9336TIP3    H149499   0.189   6.644   5.912  2.2600  2.6045 -2.0189
 9336TIP3    H249500   0.250   6.688   6.043 -0.5469 -0.9770  0.6906
 9337TIP3   OH249501   3.616   4.877  15.184 -0.2088 -0.6475 -0.0829
 9337TIP3    H149502   3.597   4.832  15.102 -1.5511  0.9414 -0.6903
 9337TIP3    H249503   3.708   4.855  15.203  0.0330 -1.2747 -1.8514
 9338TIP3   OH249504   6.572   5.199   5.444  0.3396  0.2620 -0.6443
 9338TIP3    H149505   6.588   5.244   5.527  0.0650 -1.0038  0.1237
 9338TIP3    H249506   6.656   5.156   5.424 -0.2795 -1.4902  0.3085
 9339TIP3   OH249507   2.669   4.762   6.616  0.3002  0.1368  0.4304
 9339TIP3    H149508   2.694   4.743   6.707  0.2397  2.8257  1.0898
 9339TIP3    H249509   2.633   4.851   6.619  1.5653  0.8674 -2.4513
 9340TIP3   OH249510   0.999   6.250   5.348  0.5683  0.0084 -0.0901
 9340TIP3    H149511   0.955   6.235   5.432  0.6702 -1.0948 -0.2181
 9340TIP3    H249512   1.059   6.177   5.338  0.9299  0.3926 -0.8962
 9341TIP3   OH249513   2.988   2.201   2.684 -0.5696 -0.3535 -0.0048
 9341TIP3    H149514   2.959   2.121   2.727  0.9861 -0.9564 -0.0022
 9341TIP3    H249515   2.935   2.270   2.724 -0.0640 -1.0508  2.0224
 9342TIP3   OH249516   2.776   5.898   6.668 -0.4736 -0.1820  0.1698
 9342TIP3    H149517   2.765   5.901   6.573 -0.0059  1.5214  0.1304
 9342TIP3    H249518   2.689   5.916   6.703 -0.3743  0.6415  0.0232
 9343TIP3   OH249519   3.815   6.272   4.088 -0.0744  0.2997 -0.0078
 9343TIP3    H149520   3.861   6.227   4.159 -0.4544  0.5878  0.4253
 9343TIP3    H249521   3.740   6.215   4.069  1.4530 -1.1624 -2.0176
 9344TIP3   OH249522   2.452   3.398   5.728  0.7228 -0.3814  0.0445
 9344TIP3    H149523   2.510   3.467   5.760  0.3622  0.1460 -0.3985
 9344TIP3    H249524   2.367   3.418   5.769  0.3740  0.0246 -0.8413
 9345TIP3   OH249525   1.915   6.488  11.675  0.0713  0.1531 -0.2379
 9345TIP3    H149526   1.883   6.430  11.606  0.6691  1.9602 -2.1162
 9345TIP3    H249527   2.010   6.482  11.670  0.1383  1.2468 -0.4249
 9346TIP3   OH249528   4.646   0.745  12.427  0.2132  0.2404  0.5188
 9346TIP3    H149529   4.675   0.696  12.503  0.0763 -0.9887 -0.1890
 9346TIP3    H249530   4.670   0.836  12.446  2.3156 -0.3657  1.0167
 9347TIP3   OH249531   3.444   0.330   1.373 -0.1348 -0.6244  1.0572
 9347TIP3    H149532   3.510   0.262   1.380  1.2794  0.6765  0.8826
 9347TIP3    H249533   3.467   0.394   1.440 -1.9075 -0.6616  1.7736
 9348TIP3   OH249534   3.042   5.718   1.988  0.0136  0.3779 -0.0767
 9348TIP3    H149535   2.976   5.787   1.990 -0.1508  0.2197  1.0844
 9348TIP3    H249536   2.997   5.642   1.953 -0.2873  0.4137  0.2246
 9349TIP3   OH249537   4.079   3.438   5.094 -0.3929  0.5549  0.3168
 9349TIP3    H149538   4.026   3.371   5.050  1.0456  0.1159 -0.8467
 9349TIP3    H249539   4.122   3.390   5.166  2.1454 -0.3680 -1.6665
 9350TIP3   OH249540   0.994   4.130  14.292 -0.4189 -0.1501  0.6078
 9350TIP3    H149541   1.030   4.096  14.374  0.4449  0.2950  0.4239
 9350TIP3    H249542   1.070   4.166  14.245 -1.2459  1.8972  0.7215
 9351TIP3   OH249543   5.455   4.269   3.435 -0.1918 -0.1125 -0.2139
 9351TIP3    H149544   5.419   4.298   3.352  0.0503 -1.7943 -0.9402
 9351TIP3    H249545   5.546   4.246   3.415  0.1205  0.2436  0.7147
 9352TIP3   OH249546   6.514   1.628  12.917  0.6343  0.2561  0.7510
 9352TIP3    H149547   6.583   1.613  12.853  0.4527  0.7572  0.4350
 9352TIP3    H249548   6.558   1.618  13.002  0.4835 -2.3428  0.6154
 9353TIP3   OH249549   4.908   0.293   4.129 -0.1279  0.1473  0.3355
 9353TIP3    H149550   4.873   0.372   4.169  0.9860  1.5096 -1.2700
 9353TIP3    H249551   5.002   0.309   4.121  0.3125 -1.7972  0.9318
 9354TIP3   OH249552   2.732   5.446   4.955 -0.2414  0.0107  0.0634
 9354TIP3    H149553   2.725   5.481   5.044 -0.7968  0.9333 -0.3312
 9354TIP3    H249554   2.797   5.501   4.912 -0.8523  0.3483 -0.4519
 9355TIP3   OH249555   5.831   0.092  12.651 -0.5386  0.0657  0.1726
 9355TIP3    H149556   5.905   0.084  12.590  0.2932  1.3112  0.9752
 9355TIP3    H249557   5.852   0.031  12.721  0.1699  0.9858  0.7927
 9356TIP3   OH249558   1.514   3.953  14.346 -0.4438 -0.2067 -0.2892
 9356TIP3    H149559   1.540   3.895  14.274 -1.5981  1.9516 -2.6054
 9356TIP3    H249560   1.443   3.907  14.390 -0.5027 -1.0825 -1.2712
 9357TIP3   OH249561   2.939   0.097   2.730 -0.3090 -0.1965 -0.2605
 9357TIP3    H149562   2.870   0.152   2.767 -1.7863 -0.2142 -2.7595
 9357TIP3    H249563   3.014   0.111   2.787 -2.6475 -1.1508  3.3785
 9358TIP3   OH249564   2.555   5.597   2.548 -0.3111  0.1715 -0.6640
 9358TIP3    H149565   2.579   5.507   2.527 -0.6133 -0.1114  0.1661
 9358TIP3    H249566   2.613   5.621   2.621 -1.0697  0.2069 -0.0565
 9359TIP3   OH249567   0.414   1.274  16.658  0.0659  0.2827 -0.6382
 9359TIP3    H149568   0.360   1.208  16.701 -1.5842  1.1207 -1.3472
 9359TIP3    H249569   0.498   1.230  16.643 -0.4066 -1.0653  0.4618
 9360TIP3   OH249570   6.556   1.376   4.562  0.1764  0.2458  0.3463
 9360TIP3    H149571   6.623   1.427   4.607  0.6502 -2.2818  2.7386
 9360TIP3    H249572   6.605   1.316   4.506 -0.2750  0.8604 -0.7252
 9361TIP3   OH249573   4.555   2.855  14.305 -0.3838 -0.2897 -0.2174
 9361TIP3    H149574   4.548   2.801  14.384  0.1099  0.1316  0.1241
 9361TIP3    H249575   4.478   2.831  14.253 -1.3207  0.1955  0.8754
 9362TIP3   OH249576   0.882   0.325  14.881 -0.0159  0.0571 -0.3895
 9362TIP3    H149577   0.824   0.386  14.927  0.1792 -0.8506  1.1056
 9362TIP3    H249578   0.890   0.362  14.793 -2.0051  0.7794 -0.3174
 9363TIP3   OH249579   5.615   0.569   5.643 -0.0484 -0.2192  0.2771
 9363TIP3    H149580   5.557   0.584   5.568  1.2515 -0.1202 -0.7413
 9363TIP3    H249581   5.654   0.483   5.627  2.3547  0.9508 -0.6843
 9364TIP3   OH249582   4.971   3.568   2.016  0.4747 -0.4019 -0.6286
 9364TIP3    H149583   4.902   3.629   1.989 -0.2256 -1.0309 -0.3083
 9364TIP3    H249584   4.971   3.574   2.111 -0.0029 -1.3305 -0.5673
 9365TIP3   OH249585   0.897   1.179  16.091  0.0900  0.3294 -0.2661
 9365TIP3    H149586   0.936   1.171  16.004  0.0501  0.1047 -0.2619
 9365TIP3    H249587   0.960   1.136  16.149 -0.6931 -1.0464 -0.3958
 9366TIP3   OH249588   0.213   2.900  10.875  0.2063  0.0607 -0.2349
 9366TIP3    H149589   0.177   2.953  10.805 -1.3188  0.0948  0.5466
 9366TIP3    H249590   0.173   2.934  10.955 -0.9889 -2.3595  0.2858
 9367TIP3   OH249591   4.696   2.457  15.939 -0.0585 -0.2806  1.0630
 9367TIP3    H149592   4.648   2.381  15.908  1.2849 -0.4161 -0.9102
 9367TIP3    H249593   4.636   2.531  15.927  0.2395 -0.3815 -1.7307
 9368TIP3   OH249594   2.153   1.493   2.064  0.1310  0.0359  0.0266
 9368TIP3    H149595   2.243   1.490   2.033  0.9127 -0.7215  2.1499
 9368TIP3    H249596   2.135   1.404   2.094 -1.1808  0.2815  0.0487
 9369TIP3   OH249597   0.342   1.313   1.754 -0.3584 -0.1188  0.0380
 9369TIP3    H149598   0.424   1.264   1.763 -0.7973 -0.6747  1.2247
 9369TIP3    H249599   0.293   1.266   1.686  0.2768  0.1816 -0.6342
 9370TIP3   OH249600   3.013   6.241  16.740  0.4305  0.2058 -0.3355
 9370TIP3    H149601   2.980   6.177  16.803 -0.1681 -0.5811 -1.4087
 9370TIP3    H249602   3.105   6.218  16.728  0.1624 -0.6412 -0.8932
 9371TIP3   OH249603   4.569   0.240  14.267 -0.0644 -0.4496 -0.4784
 9371TIP3    H149604   4.601   0.307  14.327  0.1224  0.9831 -2.0963
 9371TIP3    H249605   4.536   0.170  14.324  1.1266  0.3317  1.2563
 9372TIP3   OH249606   5.501   1.790   1.278  0.3406 -0.3554  0.4921
 9372TIP3    H149607   5.549   1.720   1.234 -0.0386 -0.2022 -0.1840
 9372TIP3    H249608   5.479   1.753   1.364  1.5832 -0.4489  0.7818
 9373TIP3   OH249609   1.150   1.942  11.159  0.1021  0.3123  0.2991
 9373TIP3    H149610   1.141   1.917  11.067  0.1332 -1.2063  0.6760
 9373TIP3    H249611   1.204   2.021  11.158 -0.6137  0.8151 -1.0293
 9374TIP3   OH249612   0.277   2.831  11.760  0.2573 -0.7335  0.5150
 9374TIP3    H149613   0.234   2.827  11.846 -1.6582 -1.3817 -0.3990
 9374TIP3    H249614   0.208   2.863  11.702  1.3027 -1.0012 -0.9022
 9375TIP3   OH249615   1.132   2.778   4.359 -0.4499 -0.1799 -0.4958
 9375TIP3    H149616   1.043   2.795   4.328 -1.0140 -0.9467  0.6503
 9375TIP3    H249617   1.126   2.782   4.454  0.9382  0.6286 -0.4074
 9376TIP3   OH249618   6.374   6.030  16.181 -0.1158  0.3532  0.3310
 9376TIP3    H149619   6.428   6.108  16.170  1.2133 -0.6029 -0.2299
 9376TIP3    H249620   6.307   6.055  16.245  0.4531  1.8425  0.3693
 9377TIP3   OH249621   2.101   3.470  14.063  0.7592 -0.1129  0.0598
 9377TIP3    H149622   2.042   3.544  14.045 -1.3390 -1.0039  2.5976
 9377TIP3    H249623   2.186   3.511  14.080  0.0858  1.5642 -0.3951
 9378TIP3   OH249624   6.567   3.385   5.741 -0.0313 -0.0255  0.1208
 9378TIP3    H149625   6.577   3.291   5.731 -1.2770 -0.1102 -0.5767
 9378TIP3    H249626   6.534   3.396   5.830  3.7560  0.1116  1.6764
 9379TIP3   OH249627   3.417   2.627  13.909 -0.2777  0.2968 -0.2675
 9379TIP3    H149628   3.431   2.572  13.832 -1.1810  1.2136 -1.1195
 9379TIP3    H249629   3.381   2.708  13.874  0.6534  1.2966  0.9923
 9380TIP3   OH249630   2.528   4.262  17.143 -0.3742 -0.4241  0.4699
 9380TIP3    H149631   2.590   4.224  17.205  0.0309 -0.2394  0.1877
 9380TIP3    H249632   2.551   4.223  17.059 -1.0674 -0.8431  0.4736
 9381TIP3   OH249633   4.576   1.134   1.024 -0.0532 -0.1309  0.5535
 9381TIP3    H149634   4.491   1.090   1.022 -0.4476  0.6061 -1.6218
 9381TIP3    H249635   4.639   1.064   1.042 -0.8689 -1.2145 -0.6436
 9382TIP3   OH249636   5.663   1.246   4.998 -0.2608  0.3515  0.2401
 9382TIP3    H149637   5.635   1.223   4.910 -0.1463 -0.1096  0.3208
 9382TIP3    H249638   5.758   1.236   4.997  0.0234  2.5157 -0.2078
 9383TIP3   OH249639   4.660   6.007   5.270  0.1336 -0.2056  0.3184
 9383TIP3    H149640   4.692   5.948   5.202  0.9456  0.2706  0.2646
 9383TIP3    H249641   4.697   5.972   5.351  1.3209  0.6754  0.1867
 9384TIP3   OH249642   0.252   0.368   3.296  0.0307 -0.1895 -1.5589
 9384TIP3    H149643   0.185   0.424   3.336 -0.6764 -1.9636 -0.1041
 9384TIP3    H249644   0.225   0.360   3.205 -0.8243  0.4315 -1.3729
 9385TIP3   OH249645   0.729   0.887  15.005 -0.1619 -0.1170  0.1091
 9385TIP3    H149646   0.773   0.802  15.003 -0.3895 -0.2508  0.6187
 9385TIP3    H249647   0.799   0.951  14.999  0.0602 -0.3343  0.3831
 9386TIP3   OH249648   4.758   2.046  16.734  0.2236 -0.2691  0.1563
 9386TIP3    H149649   4.757   2.024  16.827  0.2628 -2.2992 -0.2591
 9386TIP3    H249650   4.835   1.999  16.699 -0.4548 -0.5043 -1.0898
 9387TIP3   OH249651   3.285   6.126  16.647 -0.1635 -0.1123 -0.1525
 9387TIP3    H149652   3.270   6.093  16.735  0.1034 -0.8941 -0.3991
 9387TIP3    H249653   3.343   6.062  16.606 -0.2565  0.2606 -0.8870
 9388TIP3   OH249654   0.174   5.787   1.239 -0.1973 -0.2737  0.2744
 9388TIP3    H149655   0.128   5.713   1.199 -0.8958  1.0725 -1.5212
 9388TIP3    H249656   0.179   5.853   1.170  1.6815  0.8400  1.3798
 9389TIP3   OH249657   0.752   3.214   2.512  0.6019  0.1019 -0.1356
 9389TIP3    H149658   0.747   3.243   2.603  2.7658  1.8816 -0.4849
 9389TIP3    H249659   0.674   3.252   2.471 -1.0080 -1.6549  1.1230
 9390TIP3   OH249660   0.777   2.006   4.476  0.7773 -1.0712 -0.5785
 9390TIP3    H149661   0.693   2.042   4.505  1.1660  0.2968 -1.0250
 9390TIP3    H249662   0.835   2.017   4.551  2.1362  3.6628 -1.9485
 9391TIP3   OH249663   5.271   0.895   4.641  1.1524  0.0996 -0.1977
 9391TIP3    H149664   5.324   0.869   4.566  1.1228 -0.0364 -0.1704
 9391TIP3    H249665   5.203   0.828   4.648  0.7597  0.4675 -0.4483
 9392TIP3   OH249666   3.901   2.074   5.342 -0.0893  0.4412  0.3675
 9392TIP3    H149667   3.972   2.062   5.406  0.2928  1.3981  0.1329
 9392TIP3    H249668   3.901   2.167   5.323 -1.3622  0.4495  0.2882
 9393TIP3   OH249669   5.551   3.201  17.067  0.4797 -0.2801 -0.1261
 9393TIP3    H149670   5.535   3.130  17.005  2.6155 -1.1151  0.1820
 9393TIP3    H249671   5.638   3.183  17.102  0.0326  1.0943  1.8872
 9394TIP3   OH249672   3.979   0.443  16.845  0.7116  0.0488 -0.2497
 9394TIP3    H149673   3.968   0.536  16.823  2.2013  0.0780 -0.9695
 9394TIP3    H249674   3.943   0.435  16.933  1.9622  1.6493  0.4549
 9395TIP3   OH249675   5.244   5.038  11.997 -0.3784  0.3840  0.5028
 9395TIP3    H149676   5.219   4.993  12.077 -1.2788  0.7223  0.4277
 9395TIP3    H249677   5.212   5.128  12.009  1.9735  1.2518  0.9441
 9396TIP3   OH249678   4.493   4.768  15.662 -0.2516 -0.6029  0.1293
 9396TIP3    H149679   4.418   4.754  15.604 -0.3124 -0.2371  0.1161
 9396TIP3    H249680   4.554   4.698  15.641  0.5857  0.6107 -1.7472
 9397TIP3   OH249681   1.231   3.639  13.661 -0.2765  0.4064 -0.5211
 9397TIP3    H149682   1.282   3.596  13.592 -1.3293 -0.5790 -0.7119
 9397TIP3    H249683   1.193   3.716  13.618 -0.5382  0.0595 -0.9228
 9398TIP3   OH249684   4.393   5.514  13.924  0.4416  0.0722 -0.1450
 9398TIP3    H149685   4.360   5.447  13.864 -0.0312 -0.1965  0.3996
 9398TIP3    H249686   4.358   5.489  14.009 -0.5828  1.5631 -0.0856
 9399TIP3   OH249687   0.958   1.630  11.891 -0.3860 -0.1154  0.2208
 9399TIP3    H149688   0.958   1.623  11.987 -0.6828 -1.9608  0.1220
 9399TIP3    H249689   1.048   1.657  11.869 -0.1020 -0.4115  0.9763
 9400TIP3   OH249690   6.815   3.670   0.590  0.2877 -0.0051 -0.4835
 9400TIP3    H149691   6.883   3.606   0.570  0.9772  0.4338  0.3727
 9400TIP3    H249692   6.781   3.697   0.505  2.0381  0.6709 -1.0170
 9401TIP3   OH249693   2.162   5.888   4.865  0.1451  0.5770  0.0771
 9401TIP3    H149694   2.190   5.897   4.774  0.1010  2.0150  0.1850
 9401TIP3    H249695   2.243   5.875   4.914  0.1739 -0.1342 -0.1495
 9402TIP3   OH249696   3.233   4.583   5.987  0.3378 -0.6729 -0.0699
 9402TIP3    H149697   3.178   4.520   6.034  1.2428 -2.1345 -0.9225
 9402TIP3    H249698   3.283   4.627   6.056 -1.8506  0.7222  0.7375
 9403TIP3   OH249699   5.572   0.061  11.824 -0.9484 -0.3862 -0.2613
 9403TIP3    H149700   5.529  -0.007  11.876 -0.5232 -0.7656 -0.4015
 9403TIP3    H249701   5.609   0.015  11.749  0.6687 -0.2610  0.4130
 9404TIP3   OH249702   3.352   2.192  16.625 -0.1281  0.2605 -0.5136
 9404TIP3    H149703   3.402   2.183  16.706  0.4519 -0.9614 -0.9745
 9404TIP3    H249704   3.380   2.277  16.589  1.0878 -0.0632 -0.3886
 9405TIP3   OH249705   3.451   2.544  14.330 -0.1046  0.4785  0.4474
 9405TIP3    H149706   3.440   2.554  14.424 -1.7440  3.3129  0.0655
 9405TIP3    H249707   3.401   2.466  14.308 -1.8536  1.1908  1.6493
 9406TIP3   OH249708   4.390   5.959   0.078  0.0292  0.1412 -0.3260
 9406TIP3    H149709   4.339   5.909   0.014  0.5549 -0.8860  0.0309
 9406TIP3    H249710   4.386   5.907   0.158  1.0035  0.4199 -0.0820
 9407TIP3   OH249711   5.703   3.304   2.604 -0.0003 -0.4512  0.6072
 9407TIP3    H149712   5.611   3.307   2.578  0.1237 -1.5074 -0.0110
 9407TIP3    H249713   5.737   3.391   2.582 -0.1532 -0.9499 -1.9665
 9408TIP3   OH249714   3.147   3.794  16.298  0.3190  0.0027  0.0342
 9408TIP3    H149715   3.062   3.833  16.320  0.1441 -1.1752  1.6684
 9408TIP3    H249716   3.127   3.719  16.242  0.5034  1.0387 -1.4810
 9409TIP3   OH249717   3.937   2.647   4.831  0.0544  0.0857 -0.5381
 9409TIP3    H149718   3.867   2.710   4.847 -0.4208 -0.1215 -1.6799
 9409TIP3    H249719   4.005   2.669   4.895 -0.9451  0.4487  0.4169
 9410TIP3   OH249720   3.064   1.809  11.778  0.4982 -0.1626  0.1923
 9410TIP3    H149721   2.976   1.839  11.753  0.4335 -0.0933  0.4953
 9410TIP3    H249722   3.104   1.782  11.696  0.7265  1.1768 -0.1649
 9411TIP3   OH249723   2.310   6.063  12.436 -0.4706 -0.9928  0.2099
 9411TIP3    H149724   2.259   5.982  12.429 -2.1671  0.1296 -1.1681
 9411TIP3    H249725   2.260   6.117  12.498 -0.6557 -0.1030 -0.6976
 9412TIP3   OH249726   2.606   3.003   5.027  0.8774 -0.5922  0.4928
 9412TIP3    H149727   2.655   3.003   5.109 -0.5961 -0.8882  1.4119
 9412TIP3    H249728   2.572   2.914   5.020 -1.5142  0.2119  1.1411
 9413TIP3   OH249729   3.066   3.924   3.938  0.0894  0.5482 -0.1621
 9413TIP3    H149730   2.998   3.857   3.949 -0.4726  1.0578 -0.4861
 9413TIP3    H249731   3.043   3.969   3.857  1.7027 -0.2973 -1.1537
 9414TIP3   OH249732   3.227   1.415   3.267 -0.2925  0.2956 -0.2353
 9414TIP3    H149733   3.264   1.427   3.354 -1.4369  0.2525  0.2847
 9414TIP3    H249734   3.302   1.403   3.209  0.4645 -0.1404  0.8153
 9415TIP3   OH249735   0.114   6.749  16.447 -0.7512  0.2236 -0.5093
 9415TIP3    H149736   0.091   6.842  16.440  0.8351  0.5959 -1.1661
 9415TIP3    H249737   0.092   6.713  16.361  1.7495  0.7685 -1.4436
 9416TIP3   OH249738   4.287   1.750   2.644 -0.2462  0.1344 -0.2334
 9416TIP3    H149739   4.281   1.689   2.718 -1.9390 -0.5655 -0.8999
 9416TIP3    H249740   4.300   1.836   2.684  2.3694 -0.6150  0.7275
 9417TIP3   OH249741   1.761   4.448   5.661  0.8368 -0.1448  0.4904
 9417TIP3    H149742   1.673   4.483   5.673  0.8429 -0.0306  0.1952
 9417TIP3    H249743   1.756   4.358   5.695 -0.0677 -1.0408 -1.8449
 9418TIP3   OH249744   1.234   6.578   6.107  0.2259  0.0652 -0.0305
 9418TIP3    H149745   1.186   6.518   6.164  0.3031  0.9605  1.0172
 9418TIP3    H249746   1.283   6.521   6.048  0.3412 -0.9010  0.9682
 9419TIP3   OH249747   1.722   1.984   4.035 -0.2617  0.3517 -0.1611
 9419TIP3    H149748   1.629   2.006   4.033 -0.3340  0.0088 -0.7778
 9419TIP3    H249749   1.761   2.040   3.968 -0.0994  0.1557 -0.2318
 9420TIP3   OH249750   2.265   4.991   2.739 -0.2699 -0.3146  0.4740
 9420TIP3    H149751   2.350   5.035   2.735 -0.5887  0.2514 -0.8138
 9420TIP3    H249752   2.258   4.958   2.829  0.8979  0.4394  0.8559
 9421TIP3   OH249753   6.749   2.132   1.739 -0.3365 -0.0497 -0.0518
 9421TIP3    H149754   6.786   2.067   1.679 -1.2291 -0.9525  0.3512
 9421TIP3    H249755   6.704   2.080   1.806  2.0564  0.8293  2.4168
 9422TIP3   OH249756   0.461   3.729  15.771  0.2279 -0.6929 -0.1754
 9422TIP3    H149757   0.482   3.668  15.841  1.9380  0.1209  0.0708
 9422TIP3    H249758   0.509   3.809  15.793 -0.6836  0.2079 -1.3142
 9423TIP3   OH249759   5.565   2.002   3.667 -0.1977 -0.2811  0.1819
 9423TIP3    H149760   5.554   1.911   3.640 -1.1671 -0.2403  0.4192
 9423TIP3    H249761   5.639   2.000   3.728  0.2219 -0.7951 -0.3254
 9424TIP3   OH249762   5.109   4.207  16.774  0.1289 -0.3413  0.6770
 9424TIP3    H149763   5.081   4.189  16.864  0.0665  0.4519  0.8303
 9424TIP3    H249764   5.147   4.295  16.779 -4.0489  1.7929 -0.9248
 9425TIP3   OH249765   2.610   2.439   1.824  0.1671 -0.0910  0.0410
 9425TIP3    H149766   2.541   2.429   1.758  1.0641 -1.5954 -0.7126
 9425TIP3    H249767   2.678   2.491   1.780  0.4722 -0.5156  0.0068
 9426TIP3   OH249768   5.580   5.790   4.260 -0.2804 -0.0916 -0.1008
 9426TIP3    H149769   5.580   5.737   4.339 -0.8213  0.1372  0.0562
 9426TIP3    H249770   5.672   5.815   4.248  0.0888 -1.5429 -0.5148
 9427TIP3   OH249771   5.315   2.912   4.981  0.3931 -0.1800 -0.0820
 9427TIP3    H149772   5.325   2.829   5.026  0.8446 -0.8760 -1.4131
 9427TIP3    H249773   5.286   2.889   4.892 -1.6038  1.1925  0.1393
 9428TIP3   OH249774   0.814   6.359  13.297 -0.2863 -0.7744 -0.1440
 9428TIP3    H149775   0.818   6.299  13.222 -0.6211 -0.1356 -0.6877
 9428TIP3    H249776   0.728   6.401  13.289  0.5785  0.9862 -0.7310
 9429TIP3   OH249777   1.802   4.992  11.113 -0.3647 -0.3169 -0.3076
 9429TIP3    H149778   1.825   5.074  11.070 -0.2086 -0.6916 -0.9644
 9429TIP3    H249779   1.769   4.936  11.042 -1.5723 -0.4318  0.3099
 9430TIP3   OH249780   3.510   0.400   2.258 -0.8727  0.1761  0.0410
 9430TIP3    H149781   3.530   0.493   2.265 -0.5121  0.1147 -0.1400
 9430TIP3    H249782   3.523   0.366   2.346 -1.4969  0.3908  0.2174
 9431TIP3   OH249783   2.430   2.986   4.614 -0.3947  0.2866 -0.0961
 9431TIP3    H149784   2.461   2.900   4.585 -2.8611 -0.6378 -0.2189
 9431TIP3    H249785   2.438   2.984   4.709  1.2459  0.6876 -0.1796
 9432TIP3   OH249786   6.519   0.902   2.557 -0.1977 -0.4064 -0.2112
 9432TIP3    H149787   6.581   0.866   2.621 -0.6206 -1.2044 -0.2465
 9432TIP3    H249788   6.436   0.906   2.604  0.2732  2.7777  0.5929
 9433TIP3   OH249789   6.573   0.535  16.951 -0.9502 -0.2090 -0.2611
 9433TIP3    H149790   6.556   0.498  17.038 -0.8534 -0.4468 -0.3421
 9433TIP3    H249791   6.643   0.481  16.915 -2.6392 -1.7032 -1.4832
 9434TIP3   OH249792   0.515   6.161  16.927 -0.3929 -0.2148 -0.1024
 9434TIP3    H149793   0.561   6.078  16.941 -1.3295 -0.8743 -0.8392
 9434TIP3    H249794   0.576   6.215  16.877  0.4006 -0.2658  0.7697
 9435TIP3   OH249795   4.671   4.631  13.090  0.3198 -0.1860  0.5570
 9435TIP3    H149796   4.732   4.643  13.163  1.4795 -1.5011 -0.1746
 9435TIP3    H249797   4.687   4.705  13.032 -1.0331  1.2168  1.8624
 9436TIP3   OH249798   2.415   0.528   1.973 -0.2199  0.6265 -0.3062
 9436TIP3    H149799   2.393   0.515   2.065 -2.5830  3.0985 -0.3752
 9436TIP3    H249800   2.405   0.442   1.932 -0.6536 -0.2005  1.4678
 9437TIP3   OH249801   3.545   6.666  16.870 -0.7524 -0.0382 -0.4314
 9437TIP3    H149802   3.469   6.609  16.881 -2.0186  1.8685  1.5571
 9437TIP3    H249803   3.511   6.741  16.821 -0.1608  0.8013  0.4167
 9438TIP3   OH249804   0.481   4.787  13.875 -0.7951  0.4308  0.3510
 9438TIP3    H149805   0.400   4.829  13.903 -1.4724  0.2376 -1.1814
 9438TIP3    H249806   0.520   4.849  13.813  0.4103  0.6605  1.3047
 9439TIP3   OH249807   1.801   2.698  11.655  0.1608 -0.6956 -0.0438
 9439TIP3    H149808   1.890   2.722  11.628 -0.0698 -0.7184 -0.8593
 9439TIP3    H249809   1.762   2.781  11.684 -0.2827 -0.2398 -1.8403
 9440TIP3   OH249810   6.193   5.488   2.591  0.2711 -0.2168 -0.1552
 9440TIP3    H149811   6.191   5.547   2.666 -0.1408 -1.2104  0.6233
 9440TIP3    H249812   6.260   5.424   2.613  1.6589  0.6693 -1.5710
 9441TIP3   OH249813   5.436   3.556   5.169 -0.2882  0.5358 -0.3205
 9441TIP3    H149814   5.390   3.523   5.246  0.2625  1.1504  0.2886
 9441TIP3    H249815   5.484   3.633   5.201 -0.7915  1.3571 -1.4951
 9442TIP3   OH249816   0.202   1.602   0.664 -0.1626  0.5379  0.5880
 9442TIP3    H149817   0.201   1.512   0.631  1.8445  0.9370 -0.7553
 9442TIP3    H249818   0.132   1.646   0.617 -0.3558 -0.0411  0.3273
 9443TIP3   OH249819   0.756   1.455  12.487 -0.4022  0.0108  0.3372
 9443TIP3    H149820   0.668   1.479  12.458 -0.2996  0.3183  0.2817
 9443TIP3    H249821   0.747   1.444  12.582 -0.6893 -0.7915  0.2271
 9444TIP3   OH249822   0.133   0.919  15.738 -0.0375  0.0126 -0.0411
 9444TIP3    H149823   0.207   0.858  15.735  0.5005  0.6189  0.6347
 9444TIP3    H249824   0.132   0.960  15.652  1.1623  0.8527  0.3217
 9445TIP3   OH249825   0.163   6.144  13.960 -0.0857  0.2726  0.0817
 9445TIP3    H149826   0.203   6.079  14.017 -0.8440  0.3560  0.7275
 9445TIP3    H249827   0.098   6.095  13.910  0.8579  0.1178 -1.0351
 9446TIP3   OH249828   3.652   0.194  17.107 -0.3991 -0.3478 -0.2045
 9446TIP3    H149829   3.587   0.233  17.049  0.8139  2.1898  0.0004
 9446TIP3    H249830   3.726   0.174  17.051 -0.7205 -1.7829 -0.1689
 9447TIP3   OH249831   2.637   0.904   2.329  0.1093 -0.3151 -0.2776
 9447TIP3    H149832   2.605   0.969   2.392 -2.9371  0.2281 -2.1620
 9447TIP3    H249833   2.688   0.955   2.266 -0.4474 -0.0710 -0.5467
 9448TIP3   OH249834   0.704   6.538  16.533 -0.3452  0.0797  0.5636
 9448TIP3    H149835   0.719   6.625  16.498  0.3745  0.7897  2.5237
 9448TIP3    H249836   0.625   6.507  16.488  0.3988  0.9794 -1.4645
 9449TIP3   OH249837   3.376   1.895   3.282 -0.2246  0.6292  0.0214
 9449TIP3    H149838   3.451   1.876   3.225 -0.4565  2.0304 -0.7895
 9449TIP3    H249839   3.370   1.818   3.338 -0.0080 -0.8540 -1.8526
 9450TIP3   OH249840   5.512   2.277   4.351 -0.7228 -0.4507  0.1224
 9450TIP3    H149841   5.514   2.369   4.325 -2.3786 -0.7143 -1.1586
 9450TIP3    H249842   5.531   2.229   4.270  1.8972 -1.2855  1.1166
 9451TIP3   OH249843   2.972   5.884  15.699  0.4958 -0.0576  0.5641
 9451TIP3    H149844   2.888   5.928  15.715  0.7092  1.4149 -1.8009
 9451TIP3    H249845   2.947   5.801  15.658  0.1444  0.2663  0.0933
 9452TIP3   OH249846   0.876   1.228  11.003  0.5093  0.9698 -0.3287
 9452TIP3    H149847   0.848   1.173  10.929 -1.2606 -1.4126  1.9372
 9452TIP3    H249848   0.970   1.241  10.988  0.5460 -0.7668 -2.1657
 9453TIP3   OH249849   2.158   2.909   2.590 -0.0642  0.3756  0.4594
 9453TIP3    H149850   2.155   2.842   2.522  0.7317  0.7080  0.0793
 9453TIP3    H249851   2.252   2.923   2.606 -0.1307  2.4499 -0.5586
 9454TIP3   OH249852   0.101   0.898   5.663  0.0386 -0.7155 -0.1462
 9454TIP3    H149853   0.178   0.840   5.658 -0.8214 -1.9562  0.3730
 9454TIP3    H249854   0.035   0.854   5.610  0.0260  0.9649 -1.6035
 9455TIP3   OH249855   2.504   1.023   3.583  0.0758 -0.2093 -0.5107
 9455TIP3    H149856   2.444   1.057   3.650  1.2038  0.2281  0.3159
 9455TIP3    H249857   2.450   0.966   3.529 -0.8190 -0.8273  0.9722
 9456TIP3   OH249858   3.212   2.439   1.569  0.5769  0.5097  0.4787
 9456TIP3    H149859   3.267   2.501   1.617 -0.7596  1.8807  0.3160
 9456TIP3    H249860   3.132   2.433   1.621 -0.1928  0.6739 -0.6546
 9457TIP3   OH249861   3.529   1.974   5.704 -0.2949 -0.5138  0.2371
 9457TIP3    H149862   3.493   1.895   5.744 -1.2299 -0.6887 -0.9039
 9457TIP3    H249863   3.452   2.027   5.681  0.2473 -0.0004 -0.4583
 9458TIP3   OH249864   4.837   0.647   4.851  0.0673  0.4881 -0.1416
 9458TIP3    H149865   4.783   0.679   4.779 -0.2154  1.6386  0.5542
 9458TIP3    H249866   4.779   0.588   4.900  0.2577 -0.2891 -0.8295
 9459TIP3   OH249867   1.251   6.799  13.141  0.3062 -0.8950 -0.7599
 9459TIP3    H149868   1.272   6.754  13.223  0.3009  0.2444 -0.1245
 9459TIP3    H249869   1.161   6.828  13.152  0.4312 -0.4057 -1.0209
 9460TIP3   OH249870   5.916   3.400   4.249 -0.4079 -0.1668 -0.5315
 9460TIP3    H149871   5.990   3.460   4.240  0.5850 -1.2934 -0.1419
 9460TIP3    H249872   5.899   3.370   4.160  0.4519 -0.8586 -0.4808
 9461TIP3   OH249873   4.478   6.066   2.617  0.0483 -0.6807  0.5968
 9461TIP3    H149874   4.471   5.979   2.579  0.7226 -0.1847 -0.7221
 9461TIP3    H249875   4.542   6.057   2.687  1.8768 -0.7898 -1.0281
 9462TIP3   OH249876   3.435   0.563   4.572 -0.0854  0.3559  0.0500
 9462TIP3    H149877   3.440   0.633   4.637  2.7975  0.8525 -0.6083
 9462TIP3    H249878   3.350   0.577   4.529 -1.3521  0.9908  2.5148
 9463TIP3   OH249879   1.522   6.400   1.817  0.1792  0.6107 -0.4347
 9463TIP3    H149880   1.600   6.451   1.840  0.8499 -0.3935 -0.4063
 9463TIP3    H249881   1.505   6.345   1.893 -0.3948  0.6227 -0.5484
 9464TIP3   OH249882   4.010   6.451  16.759 -0.2785  0.4525 -0.0582
 9464TIP3    H149883   4.008   6.468  16.665  0.7560 -1.7947 -0.5593
 9464TIP3    H249884   4.045   6.363  16.766 -1.4320  0.1102  2.4073
 9465TIP3   OH249885   4.367   4.054  11.340 -0.1947  0.2694 -0.4110
 9465TIP3    H149886   4.394   4.138  11.376 -0.0758  0.9481 -2.0172
 9465TIP3    H249887   4.420   4.043  11.261 -0.1234 -1.3829 -0.1793
 9466TIP3   OH249888   5.014   0.455   4.359  0.3413 -0.3775 -0.7732
 9466TIP3    H149889   4.927   0.422   4.382  1.4119 -1.5802  1.9214
 9466TIP3    H249890   4.997   0.522   4.293 -2.5642 -0.9366 -0.7293
 9467TIP3   OH249891   3.584   5.829   5.291  0.6043  0.3213  0.5114
 9467TIP3    H149892   3.659   5.794   5.340  1.5104  1.5915  0.0681
 9467TIP3    H249893   3.509   5.809   5.347  0.9352 -2.8507  0.0379
 9468TIP3   OH249894   2.760   0.018  14.564  0.2496 -0.5223 -0.2401
 9468TIP3    H149895   2.794  -0.040  14.495  0.6818  0.3830 -0.8033
 9468TIP3    H249896   2.709   0.084  14.516 -0.2383 -0.4295  0.3991
 9469TIP3   OH249897   0.537   1.220  15.719  0.4179 -0.1404 -0.3661
 9469TIP3    H149898   0.534   1.125  15.732 -0.7321 -0.1546 -0.5909
 9469TIP3    H249899   0.456   1.252  15.760 -0.7375  0.3815 -2.8863
 9470TIP3   OH249900   2.559   1.208   1.754  0.0333 -0.2978  0.3464
 9470TIP3    H149901   2.514   1.279   1.708 -0.3312  0.0303  1.1779
 9470TIP3    H249902   2.615   1.167   1.688 -1.5039 -0.7322 -0.7249
 9471TIP3   OH249903   4.932   4.524  12.903  0.1137 -0.1740 -0.4631
 9471TIP3    H149904   4.839   4.535  12.884  0.0113  0.3330  0.2951
 9471TIP3    H249905   4.947   4.578  12.981  0.4478 -2.4440  1.1264
 9472TIP3   OH249906   6.570   4.749  14.033  0.3431 -0.1488 -0.1250
 9472TIP3    H149907   6.556   4.670  13.982 -0.5006 -0.0719 -0.0337
 9472TIP3    H249908   6.484   4.792  14.034  0.5314  0.2326  0.7092
 9473TIP3   OH249909   2.416   4.392  15.100  1.0236 -0.3307 -0.3350
 9473TIP3    H149910   2.415   4.371  15.006  0.7725  0.2249 -0.4634
 9473TIP3    H249911   2.497   4.441  15.113  0.6358  0.3578 -0.4459
 9474TIP3   OH249912   4.643   6.554  12.155  0.3389 -0.2995  0.3282
 9474TIP3    H149913   4.551   6.571  12.135  1.0074  1.7529 -1.3973
 9474TIP3    H249914   4.649   6.458  12.159 -1.3260 -0.6740 -2.7664
 9475TIP3   OH249915   5.196   4.258   0.399 -0.2744  0.4134 -0.1666
 9475TIP3    H149916   5.182   4.345   0.362 -0.9369  0.1042 -0.6543
 9475TIP3    H249917   5.237   4.275   0.484  0.2891  1.1673 -0.5738
 9476TIP3   OH249918   2.062   4.047   5.239 -0.2250  0.2439 -0.1734
 9476TIP3    H149919   2.017   3.968   5.266  0.1588 -0.5687 -1.7565
 9476TIP3    H249920   1.994   4.114   5.233 -0.1883  0.8010  3.6413
 9477TIP3   OH249921   1.535   1.143  16.099  0.1287  0.1285 -0.3864
 9477TIP3    H149922   1.442   1.125  16.083 -0.0580  0.6037  0.1241
 9477TIP3    H249923   1.536   1.230  16.139  0.6666 -0.5215  1.0821
 9478TIP3   OH249924   6.236   6.462   0.707 -0.2877 -0.0221  0.2129
 9478TIP3    H149925   6.203   6.426   0.625  0.2951  2.1909 -1.0626
 9478TIP3    H249926   6.323   6.495   0.686  0.4183 -0.5718  2.0766
 9479TIP3   OH249927   1.209   3.203  13.785  0.1323 -0.4888  0.0200
 9479TIP3    H149928   1.304   3.197  13.796  0.5780  2.1402 -1.5512
 9479TIP3    H249929   1.194   3.187  13.692 -1.1985 -2.3790  0.4994
 9480TIP3   OH249930   2.307   3.377  10.897 -0.3098  0.3124  0.5499
 9480TIP3    H149931   2.233   3.329  10.862 -0.3779  0.2199  0.8153
 9480TIP3    H249932   2.363   3.310  10.937  0.6454  0.1988 -0.9016
 9481TIP3   OH249933   4.308   5.077   2.604 -0.9669  0.7641 -0.2838
 9481TIP3    H149934   4.338   4.990   2.577  0.9860  0.5462  2.1470
 9481TIP3    H249935   4.278   5.065   2.694  1.0882  2.8447  0.7959
 9482TIP3   OH249936   2.791   2.152   5.954  0.3634  0.2422 -0.0232
 9482TIP3    H149937   2.852   2.169   6.025  0.3723  4.9159 -0.8691
 9482TIP3    H249938   2.846   2.138   5.877  0.2950 -1.2743  0.1597
 9483TIP3   OH249939   4.437   3.467   5.343 -0.0067  0.2360 -0.4424
 9483TIP3    H149940   4.456   3.431   5.256  0.9373  0.6602 -0.4298
 9483TIP3    H249941   4.509   3.435   5.398  1.5582  3.0054 -0.6864
 9484TIP3   OH249942   6.723   2.610   2.934 -0.2175 -0.4805  0.2285
 9484TIP3    H149943   6.701   2.601   2.841  0.6868 -0.4603  0.0002
 9484TIP3    H249944   6.709   2.703   2.954  0.6051 -0.2688 -0.1649
 9485TIP3   OH249945   2.056   6.652  15.108 -0.5958 -0.4404 -0.2632
 9485TIP3    H149946   2.071   6.735  15.062 -0.8404  0.1096  0.6032
 9485TIP3    H249947   2.061   6.585  15.041  0.5472  0.1976 -0.8475
 9486TIP3   OH249948   6.675   6.760  11.362  0.1582  0.6243  0.0115
 9486TIP3    H149949   6.657   6.755  11.269  0.3083 -1.2249  0.0590
 9486TIP3    H249950   6.769   6.741  11.370  0.0075  0.0729  0.5771
 9487TIP3   OH249951   0.520   5.427   4.464  0.1972  0.4628  0.1388
 9487TIP3    H149952   0.542   5.336   4.483 -0.1152  0.0077 -1.4808
 9487TIP3    H249953   0.582   5.478   4.515 -1.1476 -0.5435  3.0082
 9488TIP3   OH249954   3.462   5.392  12.892  0.6801  0.2803  0.0826
 9488TIP3    H149955   3.389   5.448  12.919 -0.0325  0.5630 -2.2134
 9488TIP3    H249956   3.442   5.307  12.930 -2.2322 -0.3172 -2.3949
 9489TIP3   OH249957   3.212   2.284   4.505  0.9794 -0.1359  0.5167
 9489TIP3    H149958   3.296   2.308   4.465  0.2940  3.4456  0.9910
 9489TIP3    H249959   3.233   2.268   4.597  0.9111  3.4343  1.2849
 9490TIP3   OH249960   4.230   5.816   4.400  0.5239  0.0296  0.3310
 9490TIP3    H149961   4.148   5.865   4.396  1.0995  0.9523 -0.8211
 9490TIP3    H249962   4.241   5.780   4.312  0.7811 -1.0843  0.8057
 9491TIP3   OH249963   3.889   0.813   0.129 -0.4646 -0.7877  0.0604
 9491TIP3    H149964   3.901   0.905   0.106 -2.3355 -0.0871  1.5995
 9491TIP3    H249965   3.975   0.773   0.115  0.2066  1.0023 -1.3354
 9492TIP3   OH249966   5.895   5.923   5.450 -0.1502 -0.6891 -0.2385
 9492TIP3    H149967   5.940   5.894   5.371  0.7786  0.8251 -0.3038
 9492TIP3    H249968   5.948   5.890   5.522 -0.3640 -1.0893 -0.2612
 9493TIP3   OH249969   1.731   6.442  12.631 -0.1532 -0.7686 -0.8485
 9493TIP3    H149970   1.722   6.463  12.724  0.7851 -0.3645 -0.8348
 9493TIP3    H249971   1.721   6.347  12.626 -0.0108 -0.8145 -0.3085
 9494TIP3   OH249972   5.986   6.809   3.121 -0.2503  1.0244  0.2220
 9494TIP3    H149973   6.004   6.733   3.065  1.3357  0.3389  1.5756
 9494TIP3    H249974   6.021   6.884   3.072 -0.3008  0.6636 -0.3747
 9495TIP3   OH249975   1.431   0.058   2.863  0.1260  0.7486  0.3502
 9495TIP3    H149976   1.522   0.086   2.874  0.5246  0.1959 -1.2782
 9495TIP3    H249977   1.432   0.006   2.783 -0.9841 -2.0696  2.0185
 9496TIP3   OH249978   3.056   4.824  16.732 -0.0059 -0.1660  0.5752
 9496TIP3    H149979   3.066   4.761  16.660  0.6797 -0.6743  1.1063
 9496TIP3    H249980   3.005   4.777  16.798 -2.2065  0.8881 -0.2558
 9497TIP3   OH249981   3.547   5.547   0.139 -0.3602  0.2801 -0.2732
 9497TIP3    H149982   3.582   5.499   0.214 -1.4140 -0.5048 -0.2570
 9497TIP3    H249983   3.560   5.488   0.065 -0.3230  0.5931 -0.5190
 9498TIP3   OH249984   2.168   6.078   2.509 -0.4578  0.4391 -0.0937
 9498TIP3    H149985   2.122   6.053   2.430 -1.6685  0.8094  0.4624
 9498TIP3    H249986   2.259   6.054   2.493 -1.1998 -2.5693 -0.2960
 9499TIP3   OH249987   6.076   5.034  15.512 -0.3070  0.2122  0.1270
 9499TIP3    H149988   6.022   5.111  15.490 -1.3013 -0.4479  0.1681
 9499TIP3    H249989   6.161   5.070  15.535 -0.0280  1.1636 -2.1338
 9500TIP3   OH249990   3.966   2.014   3.915  0.2772 -0.0679  0.3862
 9500TIP3    H149991   4.025   2.078   3.875  0.6079 -0.4608  0.2288
 9500TIP3    H249992   3.880   2.034   3.878  0.5122 -0.1903 -0.2453
 9501TIP3   OH249993   0.666   5.842  12.211  0.3983 -0.3177 -0.1403
 9501TIP3    H149994   0.728   5.772  12.191  1.7721  0.9589 -0.5186
 9501TIP3    H249995   0.595   5.831  12.147  0.4037 -1.5538  0.0376
 9502TIP3   OH249996   1.482   2.757   2.065  0.4707  0.3265 -0.3276
 9502TIP3    H149997   1.402   2.809   2.063  0.7810  0.7894 -1.1218
 9502TIP3    H249998   1.452   2.668   2.083 -0.3090  0.3657 -1.3151
 9503TIP3   OH249999   6.671   2.897   5.712 -0.0710 -0.2034 -0.3256
 9503TIP3    H150000   6.589   2.861   5.677 -0.9027  0.6769  0.6500
 9503TIP3    H250001   6.714   2.823   5.755 -1.3505 -0.2587  0.9304
 9504TIP3   OH250002   2.703   0.549  15.362  0.2303 -0.5354  0.1966
 9504TIP3    H150003   2.718   0.531  15.269 -1.2178 -0.4185 -0.0801
 9504TIP3    H250004   2.790   0.566  15.397  0.9917 -2.1098 -0.8049
 9505TIP3   OH250005   4.995   2.729  10.609  0.4566  0.2906 -0.2634
 9505TIP3    H150006   4.944   2.659  10.567  1.2273  0.2414 -1.1627
 9505TIP3    H250007   5.042   2.771  10.536  1.6652  0.3628  0.5275
 9506TIP3   OH250008   3.796   0.181   5.402  0.0550 -0.0295  0.7422
 9506TIP3    H150009   3.742   0.126   5.345 -0.0844  0.4716  0.3853
 9506TIP3    H250010   3.853   0.119   5.448 -1.2906 -0.6274  1.6478
 9507TIP3   OH250011   3.833   5.391  13.250  0.6862  0.1312 -0.3081
 9507TIP3    H150012   3.783   5.319  13.288 -0.0899  0.1727 -1.1907
 9507TIP3    H250013   3.904   5.348  13.202  0.7096 -0.0049 -0.1516
 9508TIP3   OH250014   6.300   6.326   3.558  0.1312  0.1209 -0.0657
 9508TIP3    H150015   6.231   6.392   3.555  2.2071  2.4658  0.2054
 9508TIP3    H250016   6.364   6.355   3.493  1.5548 -1.1055  0.7136
 9509TIP3   OH250017   6.038   0.489  11.045  0.0671 -0.8704 -0.2162
 9509TIP3    H150018   6.056   0.462  11.135 -0.9116  1.1046  0.6346
 9509TIP3    H250019   5.961   0.437  11.020 -0.5532 -0.3959  0.6405
 9510TIP3   OH250020   5.936   3.687  13.968 -0.0722  0.5142 -0.1092
 9510TIP3    H150021   6.030   3.709  13.967 -0.0210  0.2883 -0.3179
 9510TIP3    H250022   5.922   3.638  13.887 -0.4706  0.9543 -0.3087
 9511TIP3   OH250023   2.675   0.091  12.044  0.3995  0.5247 -0.3253
 9511TIP3    H150024   2.697   0.183  12.029  1.7229  0.2834  0.0331
 9511TIP3    H250025   2.587   0.093  12.082  0.3156  1.6237 -0.5576
 9512TIP3   OH250026   3.751   3.132  12.311  0.2682 -0.3402  0.4449
 9512TIP3    H150027   3.823   3.194  12.296  1.0892 -0.8953  1.8887
 9512TIP3    H250028   3.723   3.149  12.401 -0.1572 -1.3991  0.5220
 9513TIP3   OH250029   0.166   3.414   3.869  0.2476 -0.3570  0.4951
 9513TIP3    H150030   0.124   3.407   3.783  0.7395  0.9014  0.1235
 9513TIP3    H250031   0.235   3.349   3.868  0.2749 -0.3243 -0.0844
 9514TIP3   OH250032   2.317   4.010   3.681 -0.0722 -0.0491 -0.1967
 9514TIP3    H150033   2.407   4.013   3.648  0.3136 -2.2198  0.4752
 9514TIP3    H250034   2.281   4.096   3.660  1.8405  0.5412 -1.3607
 9515TIP3   OH250035   0.355   2.861   5.478 -0.0620 -0.0576 -0.1305
 9515TIP3    H150036   0.299   2.929   5.515 -0.0137 -0.8545  1.4776
 9515TIP3    H250037   0.297   2.787   5.461  0.0380  0.0623 -1.0877
 9516TIP3   OH250038   0.231   2.972  16.636 -0.4743  0.3599  0.5486
 9516TIP3    H150039   0.227   3.060  16.673 -0.9311  0.7038 -0.2899
 9516TIP3    H250040   0.153   2.965  16.581 -0.5674 -0.6581  0.7858
 9517TIP3   OH250041   3.064   1.529   2.034 -0.1814 -0.2617 -0.0566
 9517TIP3    H150042   2.995   1.529   2.101 -1.5417 -0.4173 -1.4062
 9517TIP3    H250043   3.145   1.520   2.084 -1.0141  1.1808  1.7006
 9518TIP3   OH250044   6.269   6.438   2.010  0.0086 -0.1524  0.1006
 9518TIP3    H150045   6.353   6.483   2.018  0.2736 -0.5852 -0.2092
 9518TIP3    H250046   6.287   6.349   2.038 -0.0986 -0.5178 -0.9708
 9519TIP3   OH250047   2.562   1.421   2.387 -0.2280 -0.4633 -0.3140
 9519TIP3    H150048   2.502   1.492   2.361 -2.9229 -2.1839  0.7055
 9519TIP3    H250049   2.542   1.350   2.326  0.8861 -1.0685  0.0054
 9520TIP3   OH250050   3.066   2.478  11.884  0.3426 -0.1047 -0.2723
 9520TIP3    H150051   3.129   2.406  11.893 -0.4302 -1.0172 -1.7199
 9520TIP3    H250052   2.992   2.452  11.940 -0.2911 -0.8912 -1.4334
 9521TIP3   OH250053   4.965   5.940  14.904  0.0288 -0.5338  0.0064
 9521TIP3    H150054   4.971   5.938  14.999 -0.5104  0.3447  0.0673
 9521TIP3    H250055   4.976   6.032  14.881 -0.1765 -0.6921 -0.7639
 9522TIP3   OH250056   0.470   2.736   5.818 -0.2330  0.0039  0.7609
 9522TIP3    H150057   0.384   2.745   5.777  0.3898 -0.3119 -0.6786
 9522TIP3    H250058   0.500   2.827   5.828  0.4214  0.0626 -1.3470
 9523TIP3   OH250059   0.304   2.154  14.798  0.2485  0.4781  0.3612
 9523TIP3    H150060   0.278   2.234  14.845  1.5826  2.3138 -1.8073
 9523TIP3    H250061   0.358   2.186  14.725 -0.6643 -2.2904 -1.6753
 9524TIP3   OH250062   3.778   2.592  12.252  0.2395  0.1856 -0.6870
 9524TIP3    H150063   3.820   2.521  12.204  0.4625  0.7998 -1.4042
 9524TIP3    H250064   3.798   2.671  12.203  2.6661  1.2284  1.7426
 9525TIP3   OH250065   3.764   1.579  12.485 -0.2771 -0.2256  0.2032
 9525TIP3    H150066   3.697   1.512  12.500 -0.2451  0.1263  2.2856
 9525TIP3    H250067   3.716   1.662  12.482 -0.0811 -0.1119  0.1311
 9526TIP3   OH250068   5.224   2.796   1.490  0.4969 -0.3196  0.4532
 9526TIP3    H150069   5.303   2.849   1.487  0.4988 -0.3372  0.0266
 9526TIP3    H250070   5.165   2.843   1.548  0.3919  0.3095 -0.1475
 9527TIP3   OH250071   4.392   3.053  12.228  0.1350  0.0808  1.0940
 9527TIP3    H150072   4.417   3.134  12.184  1.3281 -1.1218 -0.5491
 9527TIP3    H250073   4.423   3.065  12.318 -0.5799  1.8080  1.1478
 9528TIP3   OH250074   4.970   3.794   1.019 -0.3188  0.1485 -0.4140
 9528TIP3    H150075   4.978   3.871   0.962  1.9884 -1.0157 -1.8180
 9528TIP3    H250076   4.962   3.720   0.958 -0.7565 -0.8903  0.8620
 9529TIP3   OH250077   1.060   2.191   5.810 -0.7024 -0.4209 -0.1698
 9529TIP3    H150078   1.094   2.240   5.885 -2.2207  1.7416 -0.7909
 9529TIP3    H250079   0.965   2.192   5.822 -1.0639  0.7880 -2.5102
 9530TIP3   OH250080   3.350   5.260  15.946  0.0803  0.0969 -0.1534
 9530TIP3    H150081   3.364   5.270  15.851  2.1981 -0.1895  0.0648
 9530TIP3    H250082   3.292   5.185  15.954  1.4506 -1.1550 -1.2256
 9531TIP3   OH250083   6.290   3.452  11.467  0.2877 -0.0023  0.0176
 9531TIP3    H150084   6.254   3.473  11.381  0.9477 -0.3618 -0.3572
 9531TIP3    H250085   6.274   3.358  11.478  0.4980 -0.0255  0.1407
 9532TIP3   OH250086   2.362   3.749  12.811  0.1188 -0.4320 -0.0970
 9532TIP3    H150087   2.274   3.728  12.844  0.2454 -0.8084  0.0047
 9532TIP3    H250088   2.349   3.828  12.758 -0.4574 -1.0679 -0.9258
 9533TIP3   OH250089   4.216   4.557   5.428 -0.3987  0.1380  0.1652
 9533TIP3    H150090   4.301   4.514   5.420 -0.7680 -0.6817  0.4877
 9533TIP3    H250091   4.171   4.537   5.346 -0.3943  0.3010  0.1236
 9534TIP3   OH250092   0.124   3.488  11.846  0.0577  0.0504 -0.3100
 9534TIP3    H150093   0.031   3.490  11.869 -0.0081  0.9181 -0.6131
 9534TIP3    H250094   0.155   3.402  11.877 -1.2660 -1.0645 -1.9562
 9535TIP3   OH250095   5.090   2.788  11.559 -0.7914  0.4893 -1.1368
 9535TIP3    H150096   5.004   2.758  11.528 -0.7146 -2.0510  0.7763
 9535TIP3    H250097   5.153   2.733  11.511 -0.3838  0.6737 -0.8200
 9536TIP3   OH250098   4.843   0.818  14.451  0.0275  0.2022  0.8104
 9536TIP3    H150099   4.926   0.794  14.491 -0.4412  0.1500  1.7781
 9536TIP3    H250100   4.821   0.903  14.489 -0.6650 -0.0739  1.0343
 9537TIP3   OH250101   0.689   4.844   3.508 -0.3104 -0.2639 -0.1590
 9537TIP3    H150102   0.640   4.797   3.440 -1.4333  1.8683 -0.9278
 9537TIP3    H250103   0.622   4.879   3.567  0.1526  2.5999 -1.1538
 9538TIP3   OH250104   3.437   5.147   5.980  0.2467  0.0682  0.5866
 9538TIP3    H150105   3.419   5.239   5.960 -1.1596 -0.4662 -0.8026
 9538TIP3    H250106   3.436   5.143   6.075 -2.0611  1.0932  0.6714
 9539TIP3   OH250107   3.269   3.299  12.563  0.7438  0.1587 -0.2240
 9539TIP3    H150108   3.284   3.266  12.474  0.8025 -1.0332  0.2050
 9539TIP3    H250109   3.324   3.243  12.618 -1.8275 -1.3713  0.9259
 9540TIP3   OH250110   2.261   2.154   2.639  0.1669 -0.5978  0.0546
 9540TIP3    H150111   2.275   2.068   2.679 -1.7473 -1.0518 -0.1207
 9540TIP3    H250112   2.227   2.208   2.711  0.2192 -0.3466 -0.1083
 9541TIP3   OH250113   2.588   3.184   1.406 -0.0847 -0.4437 -0.3220
 9541TIP3    H150114   2.664   3.202   1.351  0.8384 -0.9432  0.7413
 9541TIP3    H250115   2.563   3.094   1.384 -0.5096 -0.2160 -0.8077
 9542TIP3   OH250116   5.388   5.235  14.499 -0.5779 -0.0615  0.2689
 9542TIP3    H150117   5.394   5.222  14.593 -0.0632 -1.3092  0.0940
 9542TIP3    H250118   5.417   5.151  14.462 -1.3527  0.1982 -0.9834
 9543TIP3   OH250119   1.275   3.460  12.464 -0.3746  0.4568  0.0007
 9543TIP3    H150120   1.268   3.375  12.507  2.2227  0.3613  0.4231
 9543TIP3    H250121   1.218   3.518  12.514  0.0397 -0.4100  1.5287
 9544TIP3   OH250122   2.373   2.786  16.269  0.6725 -0.0286 -0.5925
 9544TIP3    H150123   2.284   2.805  16.237  0.0858 -0.6775  0.6096
 9544TIP3    H250124   2.390   2.697  16.240  0.4413 -0.3422  0.2144
 9545TIP3   OH250125   6.450   5.629   0.841 -0.2149  0.1614  0.1704
 9545TIP3    H150126   6.409   5.556   0.795  0.8796 -1.4345  1.6216
 9545TIP3    H250127   6.514   5.665   0.778 -0.6393 -0.2249 -0.4886
 9546TIP3   OH250128   6.207   2.636   2.368 -0.1229  0.5570  0.4313
 9546TIP3    H150129   6.209   2.724   2.330  0.5042 -0.2792 -1.5599
 9546TIP3    H250130   6.166   2.582   2.302  0.8066 -0.9276  1.0240
 9547TIP3   OH250131   1.827   6.275  14.941  0.2338  0.2817 -0.1070
 9547TIP3    H150132   1.823   6.267  15.036 -0.5892  1.3156 -0.0339
 9547TIP3    H250133   1.849   6.187  14.910  1.4391  0.1322  1.0758
 9548TIP3   OH250134   6.056   3.944   3.338  0.1927 -0.2472 -0.1434
 9548TIP3    H150135   5.987   3.886   3.371 -1.4090  0.0703 -2.6408
 9548TIP3    H250136   6.017   4.031   3.338  2.1644  0.7578  2.4161
 9549TIP3   OH250137   3.602   2.700  12.434  0.4731 -0.6522 -0.4512
 9549TIP3    H150138   3.669   2.659  12.380  1.2468 -2.0716  1.4819
 9549TIP3    H250139   3.569   2.630  12.490 -1.4138  0.4033 -0.1375
 9550TIP3   OH250140   6.079   2.586   5.263  0.3454  0.2416  0.1998
 9550TIP3    H150141   6.055   2.671   5.302  1.9140  0.6144  0.4165
 9550TIP3    H250142   6.087   2.605   5.170  0.0239  0.1627  0.1542
 9551TIP3   OH250143   4.218   2.758   1.519 -0.4558 -0.6033  0.8804
 9551TIP3    H150144   4.149   2.820   1.541 -0.8990 -0.4389 -0.7888
 9551TIP3    H250145   4.174   2.692   1.465  0.4656 -1.1139  0.7379
 9552TIP3   OH250146   4.754   5.313   4.197  0.1509 -0.3591 -0.0194
 9552TIP3    H150147   4.679   5.273   4.241  0.5445 -1.2644 -0.1291
 9552TIP3    H250148   4.791   5.373   4.261 -0.2687 -0.4168  0.2792
 9553TIP3   OH250149   2.878   2.190  17.093 -0.2680  0.7258 -0.2805
 9553TIP3    H150150   2.868   2.185  17.188  1.4272  1.4835 -0.0138
 9553TIP3    H250151   2.826   2.266  17.067 -3.4968 -1.3748 -0.5014
 9554TIP3   OH250152   1.100   5.256  14.247  0.0463  0.0379  0.0926
 9554TIP3    H150153   1.099   5.169  14.285 -0.2598  0.0775  0.1741
 9554TIP3    H250154   1.151   5.246  14.167  1.4189  0.1305  0.9216
 9555TIP3   OH250155   5.276   0.644  14.761  0.6486 -0.0214  0.0221
 9555TIP3    H150156   5.278   0.739  14.748 -1.2777  0.1240  0.3959
 9555TIP3    H250157   5.315   0.630  14.847 -0.9688  0.7125  0.9340
 9556TIP3   OH250158   1.413   3.854  14.664 -0.3722  0.1969  0.6123
 9556TIP3    H150159   1.353   3.896  14.603 -0.3236  1.1384  1.1966
 9556TIP3    H250160   1.432   3.769  14.624 -0.7543  0.5750 -0.4091
 9557TIP3   OH250161   1.572   0.283   1.695 -0.6513  0.3331 -0.6734
 9557TIP3    H150162   1.654   0.304   1.739 -1.2145  0.9151  0.1400
 9557TIP3    H250163   1.573   0.335   1.615  1.1075 -1.9331 -2.2478
 9558TIP3   OH250164   1.456   5.371  11.330 -0.3542 -0.1118 -0.2406
 9558TIP3    H150165   1.430   5.416  11.250 -0.9865  1.8078  0.9755
 9558TIP3    H250166   1.551   5.358  11.321  0.1358  2.8000 -0.0757
 9559TIP3   OH250167   1.597   3.810  15.118 -0.1298  0.5556  0.1406
 9559TIP3    H150168   1.680   3.762  15.108 -0.4536 -0.1263  0.6572
 9559TIP3    H250169   1.595   3.835  15.210  0.7138  2.8509 -0.4130
 9560TIP3   OH250170   6.691   4.653   3.007 -0.1877  0.1712 -0.4665
 9560TIP3    H150171   6.696   4.747   3.023  1.3559  0.3727 -1.8510
 9560TIP3    H250172   6.603   4.640   2.973 -0.8505  0.8932  0.8901
 9561TIP3   OH250173   1.885   2.803   2.454  0.1812  0.4145 -0.1825
 9561TIP3    H150174   1.863   2.848   2.373 -0.5373 -0.0967 -0.2775
 9561TIP3    H250175   1.980   2.814   2.463  0.4720 -0.5513 -1.7404
 9562TIP3   OH250176   2.188   5.803  16.426  0.1867  0.3451  0.0067
 9562TIP3    H150177   2.236   5.764  16.499 -0.1100  1.3912  0.7868
 9562TIP3    H250178   2.108   5.837  16.465  0.0344  0.9519 -0.7969
 9563TIP3   OH250179   0.327   5.274  16.253 -0.0760 -0.0850  0.0882
 9563TIP3    H150180   0.360   5.184  16.247  2.3757  0.8048 -1.3381
 9563TIP3    H250181   0.250   5.275  16.196 -0.1932 -1.2894  0.1984
 9564TIP3   OH250182   0.258   2.452   6.581  0.7710  0.1946  0.1340
 9564TIP3    H150183   0.288   2.514   6.647  2.2207 -0.4652  0.1272
 9564TIP3    H250184   0.259   2.367   6.626 -0.9506  0.0964  0.0712
 9565TIP3   OH250185   3.667   5.753   6.359  0.1936 -0.0341  0.0872
 9565TIP3    H150186   3.695   5.804   6.434  1.7074  3.1828 -2.3932
 9565TIP3    H250187   3.582   5.790   6.334  0.8363  0.6983 -1.1421
 9566TIP3   OH250188   1.466   6.012   2.317 -0.2341  1.0709  0.5239
 9566TIP3    H150189   1.448   5.923   2.288 -2.0986  1.3720  0.5866
 9566TIP3    H250190   1.557   6.028   2.293 -0.2267 -0.4225 -0.5737
 9567TIP3   OH250191   4.715   1.943   0.760  0.2170  1.0322  0.3455
 9567TIP3    H150192   4.645   1.908   0.816  0.7863  0.3393  0.6449
 9567TIP3    H250193   4.749   2.018   0.809  1.3996 -0.1752  1.4707
 9568TIP3   OH250194   1.925   6.590   6.511 -0.1165  0.0030  0.5136
 9568TIP3    H150195   2.015   6.575   6.538  0.3655  0.5830 -0.7065
 9568TIP3    H250196   1.923   6.682   6.483 -1.1436  0.0646  0.7209
 9569TIP3   OH250197   2.422   2.639   1.296 -0.1035 -0.2391  0.0768
 9569TIP3    H150198   2.440   2.562   1.242 -0.7275 -0.3659  0.0412
 9569TIP3    H250199   2.329   2.656   1.284 -0.1871 -0.0743  0.8607
 9570TIP3   OH250200   4.591   1.309  16.697  0.0354 -0.2262 -0.4038
 9570TIP3    H150201   4.579   1.262  16.779 -0.4221  1.1192  0.3264
 9570TIP3    H250202   4.673   1.274  16.661 -0.8435 -2.3786 -0.4869
 9571TIP3   OH250203   2.519   2.227  14.226  0.0370 -0.6014  0.0664
 9571TIP3    H150204   2.465   2.266  14.157 -0.3058 -0.4671  0.4084
 9571TIP3    H250205   2.457   2.184  14.284  0.2339  0.0432  0.7773
 9572TIP3   OH250206   0.930   6.209   4.534 -0.8601  0.2578  0.0046
 9572TIP3    H150207   0.872   6.256   4.474  1.5233  0.2968 -2.4502
 9572TIP3    H250208   0.916   6.253   4.619 -1.6494  2.7466 -1.2892
 9573TIP3   OH250209   5.914   4.771  11.403  0.1165 -0.4431  0.2262
 9573TIP3    H150210   5.951   4.733  11.482  0.7351 -0.5632 -0.1167
 9573TIP3    H250211   5.928   4.866  11.413  0.5040 -0.4860  0.1059
 9574TIP3   OH250212   3.189   0.092   3.179 -0.2946  0.3530  0.0963
 9574TIP3    H150213   3.270   0.081   3.130 -1.2220  0.8661 -1.6134
 9574TIP3    H250214   3.217   0.128   3.263  1.1860  1.3384 -0.7749
 9575TIP3   OH250215   1.422   4.056  11.618 -0.7045  0.0343  0.4479
 9575TIP3    H150216   1.387   4.018  11.538  0.0257  1.4522 -0.5693
 9575TIP3    H250217   1.507   4.013  11.630 -0.9261 -0.3628  0.6151
 9576TIP3   OH250218   6.245   3.650   1.907 -0.6408 -0.5540 -0.7862
 9576TIP3    H150219   6.212   3.613   1.824 -2.5744  0.8254 -0.6932
 9576TIP3    H250220   6.167   3.686   1.949  0.4649 -0.4165  1.2404
 9577TIP3   OH250221   4.462   4.903   5.025  0.1301  0.5702  0.4603
 9577TIP3    H150222   4.397   4.909   4.955  2.0752 -0.6622 -1.5935
 9577TIP3    H250223   4.412   4.913   5.105 -2.6886 -0.8368 -0.9651
 9578TIP3   OH250224   4.562   4.495  15.275  0.2611 -0.0477 -0.0371
 9578TIP3    H150225   4.585   4.584  15.251  1.5748 -0.5496 -0.7524
 9578TIP3    H250226   4.633   4.466  15.331  0.1179 -0.8235 -0.2412
 9579TIP3   OH250227   3.313   5.311  17.044 -0.3049 -0.0046  0.3325
 9579TIP3    H150228   3.347   5.396  17.017 -2.3090  0.2667 -1.5352
 9579TIP3    H250229   3.267   5.330  17.126  0.1746  0.4712  0.5057
 9580TIP3   OH250230   5.865   6.501   1.480 -0.9313 -0.0694  0.2305
 9580TIP3    H150231   5.837   6.423   1.527  0.6635 -0.2924  0.8638
 9580TIP3    H250232   5.839   6.485   1.389 -1.9130 -0.6848  0.6061
 9581TIP3   OH250233   5.317   4.346  15.561  0.3636 -0.1767  0.0156
 9581TIP3    H150234   5.314   4.267  15.508 -1.2208  1.0868 -1.9369
 9581TIP3    H250235   5.350   4.413  15.501 -1.2724  1.2601  0.6413
 9582TIP3   OH250236   3.629   3.879   5.744 -0.2948 -0.4698 -0.0695
 9582TIP3    H150237   3.575   3.937   5.798 -1.4380 -1.6206  0.0862
 9582TIP3    H250238   3.615   3.792   5.781  1.2672 -0.8759 -0.3830
 9583TIP3   OH250239   3.327   3.073  14.468  0.0736 -0.1489  0.0539
 9583TIP3    H150240   3.365   3.055  14.554 -0.0209  0.2706  0.1870
 9583TIP3    H250241   3.385   3.138  14.429 -0.8944  1.0681  0.5669
 9584TIP3   OH250242   3.615   6.108  11.858 -0.3832 -0.1543  0.2580
 9584TIP3    H150243   3.693   6.058  11.836  1.0281  1.8164  0.4889
 9584TIP3    H250244   3.559   6.047  11.906  0.5527 -1.8998 -0.7822
 9585TIP3   OH250245   1.244   4.653  13.443 -0.8271 -0.3784 -0.1022
 9585TIP3    H150246   1.317   4.632  13.500 -0.7289 -0.0689 -0.1137
 9585TIP3    H250247   1.214   4.739  13.472  1.0018  1.1008 -2.3007
 9586TIP3   OH250248   6.420   4.566   1.046 -0.2101 -0.0477 -0.1071
 9586TIP3    H150249   6.508   4.587   1.014 -0.2356 -0.5742 -0.5237
 9586TIP3    H250250   6.426   4.576   1.141  0.0811  0.7287 -0.1976
 9587TIP3   OH250251   1.549   3.392   3.400 -0.2408  0.0442  0.2065
 9587TIP3    H150252   1.613   3.362   3.335 -1.8507  0.2222 -1.5737
 9587TIP3    H250253   1.585   3.474   3.433  0.5499  0.0402 -0.5898
 9588TIP3   OH250254   2.978   2.618   2.367 -0.0254  0.0209 -0.2858
 9588TIP3    H150255   2.932   2.534   2.363 -1.1875  0.5428  1.1448
 9588TIP3    H250256   2.909   2.684   2.364  0.9431  1.0845 -3.3388
 9589TIP3   OH250257   4.191   5.786  14.821 -0.5568  0.3322  0.1511
 9589TIP3    H150258   4.111   5.836  14.831 -1.3251 -1.1892  2.4264
 9589TIP3    H250259   4.221   5.770  14.911  1.4054 -0.5474 -0.5907
 9590TIP3   OH250260   0.108   0.995  14.534  0.0089 -0.0756  0.3489
 9590TIP3    H150261   0.179   0.930  14.537 -2.0275 -2.4345  0.9882
 9590TIP3    H250262   0.150   1.078  14.559  2.3816 -1.5107  1.4966
 9591TIP3   OH250263   5.033   4.230  11.596  0.2284  0.1779 -0.0336
 9591TIP3    H150264   5.005   4.147  11.635 -1.3540  0.3926 -0.6593
 9591TIP3    H250265   5.017   4.295  11.665  0.2367  0.1455 -0.0007
 9592TIP3   OH250266   2.537   6.100  14.374 -0.2107  0.0875 -0.4085
 9592TIP3    H150267   2.453   6.111  14.418 -0.4615  0.8592 -1.0505
 9592TIP3    H250268   2.602   6.127  14.438 -0.5259  0.5051 -0.2596
 9593TIP3   OH250269   6.046   6.016  14.028  0.1866 -0.5148 -0.5057
 9593TIP3    H150270   6.010   6.009  14.117  0.0358  1.9601 -0.3178
 9593TIP3    H250271   5.969   6.014  13.971 -0.2841  3.1158 -0.1981
 9594TIP3   OH250272   6.537   6.011  12.397  0.5324 -0.5861  0.2949
 9594TIP3    H150273   6.620   6.006  12.350  0.5800  0.0943  0.2949
 9594TIP3    H250274   6.477   6.054  12.336  0.2593 -0.8107  0.4031
 9595TIP3   OH250275   2.150   5.022  14.653  0.3871 -0.1042  0.2549
 9595TIP3    H150276   2.114   5.098  14.607  1.6169  0.1847 -0.2840
 9595TIP3    H250277   2.075   4.981  14.695 -0.5137  0.6097 -0.6156
 9596TIP3   OH250278   3.856   4.947   3.538  0.1113  0.2674  0.8684
 9596TIP3    H150279   3.794   5.013   3.507 -0.4502  0.1031  1.6238
 9596TIP3    H250280   3.941   4.990   3.534 -0.0994  0.6538  0.2754
 9597TIP3   OH250281   5.107   5.929   2.295  0.1670  0.1493  0.2805
 9597TIP3    H150282   5.179   5.977   2.337  0.1097 -0.3055  0.9118
 9597TIP3    H250283   5.070   5.875   2.365 -1.9569  1.6841  0.4549
 9598TIP3   OH250284   4.419   2.412   3.727  0.2226  0.3265 -0.5124
 9598TIP3    H150285   4.367   2.346   3.681 -1.7093  1.4420 -0.0516
 9598TIP3    H250286   4.421   2.487   3.667 -0.8915  1.1956  0.5029
 9599TIP3   OH250287   0.653   3.195  11.760 -0.2772  0.0935  0.7272
 9599TIP3    H150288   0.564   3.161  11.744 -1.0878  2.3486  0.0114
 9599TIP3    H250289   0.675   3.164  11.848 -1.1640 -1.7022  0.3692
 9600TIP3   OH250290   5.779   5.043   4.040 -0.0230  0.5031 -0.1668
 9600TIP3    H150291   5.850   5.087   3.993 -1.5125  2.3297 -0.8454
 9600TIP3    H250292   5.798   5.058   4.132  1.1867 -0.2418 -0.2777
 9601TIP3   OH250293   5.057   6.177  10.904  0.4755  0.0976 -0.0460
 9601TIP3    H150294   5.101   6.257  10.931 -1.6554  1.3506 -0.1018
 9601TIP3    H250295   5.022   6.197  10.817 -0.1336 -0.8665 -0.0398
 9602TIP3   OH250296   0.684   6.599   0.314 -0.1169 -0.1140 -0.3751
 9602TIP3    H150297   0.633   6.556   0.383  0.8016  1.0552  1.0810
 9602TIP3    H250298   0.727   6.527   0.269  2.3613 -0.8183  2.7782
 9603TIP3   OH250299   2.554   4.680  11.040 -0.4492 -0.1104 -0.2905
 9603TIP3    H150300   2.612   4.652  10.969 -2.0919  0.5750 -1.9798
 9603TIP3    H250301   2.479   4.620  11.034 -0.4340 -0.3169  1.1806
 9604TIP3   OH250302   6.726   4.609   2.557 -0.2036  0.6911  0.5160
 9604TIP3    H150303   6.771   4.659   2.489 -0.0027  0.4454  0.4633
 9604TIP3    H250304   6.767   4.637   2.639  0.2261  0.2856  0.4458
 9605TIP3   OH250305   6.224   2.620   1.284 -0.2003  0.0561  1.1997
 9605TIP3    H150306   6.143   2.572   1.302 -1.0736  0.8957 -0.2824
 9605TIP3    H250307   6.195   2.700   1.241  1.4506  0.0785  0.0529
 9606TIP3   OH250308   1.566   1.243   2.138 -0.0942  0.2243  0.6087
 9606TIP3    H150309   1.519   1.325   2.155  1.5055  1.2609  0.1590
 9606TIP3    H250310   1.568   1.236   2.043  0.4659  0.0838  0.6290
 9607TIP3   OH250311   4.748   4.374  11.603  0.9829 -0.5257 -0.0589
 9607TIP3    H150312   4.738   4.452  11.659 -1.6276 -0.3662 -0.6029
 9607TIP3    H250313   4.769   4.410  11.517 -2.5220 -0.0897 -0.8840
 9608TIP3   OH250314   6.020   0.517  16.034  0.0109  0.0273 -0.3531
 9608TIP3    H150315   6.083   0.492  16.102 -1.4822  1.6380  1.7715
 9608TIP3    H250316   6.036   0.610  16.020 -1.7073  0.4315  0.1074
 9609TIP3   OH250317   5.776   1.160   4.475  0.6064  0.0540  0.3277
 9609TIP3    H150318   5.738   1.194   4.394  1.8657  1.4322  0.2763
 9609TIP3    H250319   5.712   1.096   4.506 -0.4464  0.3334 -1.1455
 9610TIP3   OH250320   6.769   3.246   3.337 -0.3206 -0.1794  0.3823
 9610TIP3    H150321   6.689   3.206   3.302 -0.5642  0.1251  0.5836
 9610TIP3    H250322   6.804   3.298   3.265 -1.4119  1.3325  0.8956
 9611TIP3   OH250323   1.211   4.203   0.744 -0.7378 -0.3185 -0.2177
 9611TIP3    H150324   1.185   4.123   0.791  0.1583 -0.4667  0.0397
 9611TIP3    H250325   1.246   4.260   0.812 -0.1222 -0.2368 -0.5979
 9612TIP3   OH250326   1.075   5.564  13.013 -0.0186 -0.4889 -0.1689
 9612TIP3    H150327   1.060   5.548  12.920 -1.4000  0.5150 -0.1418
 9612TIP3    H250328   1.040   5.486  13.056 -1.1630 -0.1175 -0.3936
 9613TIP3   OH250329   4.043   6.180   0.160 -0.1333  1.0132  0.5107
 9613TIP3    H150330   4.109   6.183   0.091 -0.6851  0.3230 -0.0678
 9613TIP3    H250331   3.989   6.258   0.145  0.1490  1.2215  0.5743
 9614TIP3   OH250332   4.254   3.717  12.783  0.2428  0.0480 -0.7858
 9614TIP3    H150333   4.193   3.724  12.709 -1.2259  1.6160  0.5100
 9614TIP3    H250334   4.333   3.763  12.753 -0.6954  1.5484 -1.0565
 9615TIP3   OH250335   6.497   0.456  16.120 -0.0464 -0.0510  0.1583
 9615TIP3    H150336   6.549   0.524  16.078  0.7157 -1.0295 -0.5061
 9615TIP3    H250337   6.551   0.378  16.116 -0.9170 -0.7123  0.8981
 9616TIP3   OH250338   3.692   3.400   5.306 -0.4837 -0.7081 -0.9520
 9616TIP3    H150339   3.605   3.438   5.315 -1.0901 -2.1955 -0.0653
 9616TIP3    H250340   3.739   3.428   5.384 -0.8685 -1.5870 -0.3923
 9617TIP3   OH250341   1.028   3.514  16.874 -0.2139 -0.5166  0.4899
 9617TIP3    H150342   1.112   3.480  16.843 -0.3357 -1.2148  0.8951
 9617TIP3    H250343   0.992   3.561  16.799  0.7443  0.1882  0.4565
 9618TIP3   OH250344   5.286   0.009  12.347 -0.2602  0.8472 -0.8455
 9618TIP3    H150345   5.202  -0.015  12.307 -0.2892  0.1749 -0.3934
 9618TIP3    H250346   5.319  -0.073  12.384 -0.4401  1.5231  0.8947
 9619TIP3   OH250347   3.631   2.889  13.108 -0.7795  0.2224  0.1547
 9619TIP3    H150348   3.594   2.822  13.051 -0.1455 -0.1509  0.1744
 9619TIP3    H250349   3.610   2.971  13.065  0.5077 -0.0809 -1.1489
 9620TIP3   OH250350   4.284   1.967   5.837 -1.0225  0.1720 -0.0896
 9620TIP3    H150351   4.311   1.959   5.746  1.0102  2.5045  0.2001
 9620TIP3    H250352   4.317   1.887   5.879 -0.5665 -0.1786 -1.0907
 9621TIP3   OH250353   2.053   3.503   3.021 -0.2217  0.5690  0.5777
 9621TIP3    H150354   2.126   3.442   3.036  1.1115  1.3323 -2.1598
 9621TIP3    H250355   2.077   3.582   3.070  0.9896  0.9253 -0.5519
 9622TIP3   OH250356   5.892   2.405  15.184 -0.0195 -0.1718 -0.3930
 9622TIP3    H150357   5.859   2.460  15.114  0.9269 -0.3598 -1.0035
 9622TIP3    H250358   5.834   2.328  15.184 -0.8966  0.4681 -0.0074
 9623TIP3   OH250359   0.873   4.350   5.181  0.3800  0.6348 -0.3823
 9623TIP3    H150360   0.939   4.282   5.171 -0.7084 -0.4559 -0.4123
 9623TIP3    H250361   0.922   4.432   5.180  1.6171 -0.0907 -1.4463
 9624TIP3   OH250362   1.565   6.261  11.676 -0.0906 -0.0567  0.0244
 9624TIP3    H150363   1.588   6.306  11.595  0.4753  0.3765  0.4157
 9624TIP3    H250364   1.489   6.208  11.653 -0.0084  0.1463 -0.7598
 9625TIP3   OH250365   6.100   5.640  13.339 -0.2421  0.4899  0.1316
 9625TIP3    H150366   6.142   5.723  13.361  0.6987  0.4239 -1.3353
 9625TIP3    H250367   6.054   5.657  13.257 -3.1186  0.5406  1.6065
 9626TIP3   OH250368   2.876   3.508   6.423  0.0767  0.4780 -0.9171
 9626TIP3    H150369   2.835   3.455   6.491 -0.2517  0.2847 -1.2639
 9626TIP3    H250370   2.969   3.486   6.429  0.1225  0.8382 -0.2039
 9627TIP3   OH250371   3.100   4.028  13.837 -0.2594  0.2724  0.2000
 9627TIP3    H150372   3.068   4.080  13.910  0.6512  1.7258 -0.3868
 9627TIP3    H250373   3.184   3.993  13.867  0.5574  1.6219 -0.4315
 9628TIP3   OH250374   6.362   5.383  14.761 -0.5613 -0.2236 -0.1401
 9628TIP3    H150375   6.370   5.317  14.692 -1.9531 -0.1407 -0.4118
 9628TIP3    H250376   6.440   5.370  14.815 -0.2238 -1.3172 -0.8452
 9629TIP3   OH250377   1.672   2.749  14.110  0.3478 -0.3921 -0.2057
 9629TIP3    H150378   1.591   2.796  14.131  0.3004  0.0731 -1.3516
 9629TIP3    H250379   1.707   2.723  14.195 -0.2918  0.5977  0.3846
 9630TIP3   OH250380   2.040   2.864  15.464  0.1764 -0.1029  0.2192
 9630TIP3    H150381   2.121   2.839  15.509  0.2630 -0.3405 -0.0694
 9630TIP3    H250382   1.988   2.784  15.461  0.0880 -0.0404  0.0691
 9631TIP3   OH250383   4.836   2.971  14.954 -0.5632  0.8445  0.2385
 9631TIP3    H150384   4.829   3.057  14.912  0.6871  0.3038 -1.1806
 9631TIP3    H250385   4.805   2.909  14.889 -0.3480  0.1200  0.8086
 9632TIP3   OH250386   1.461   2.522  12.225 -0.1097 -0.3349  0.5606
 9632TIP3    H150387   1.491   2.439  12.188  1.2116  0.8979 -1.3528
 9632TIP3    H250388   1.423   2.569  12.150 -1.5805  0.4838  1.7719
 9633TIP3   OH250389   5.550   2.902   3.977  0.1846 -0.0951 -0.1372
 9633TIP3    H150390   5.600   2.854   3.911  0.7966  0.1982  0.1101
 9633TIP3    H250391   5.615   2.956   4.022  0.4474 -2.6469  2.9055
 9634TIP3   OH250392   5.463   2.552  16.122  0.3415  0.2052 -0.1407
 9634TIP3    H150393   5.489   2.511  16.204  0.1188 -1.2764 -0.7747
 9634TIP3    H250394   5.545   2.580  16.082  0.4546  0.8957  0.5572
 9635TIP3   OH250395   1.245   0.744   3.498 -0.7536  0.6007  0.0377
 9635TIP3    H150396   1.263   0.664   3.548  1.6481  1.4438  0.6508
 9635TIP3    H250397   1.161   0.775   3.532 -0.6323 -0.4731  1.3929
 9636TIP3   OH250398   3.388   2.657  13.475 -0.8436 -0.0401 -0.0331
 9636TIP3    H150399   3.412   2.616  13.558 -1.6912 -1.6965 -0.5644
 9636TIP3    H250400   3.416   2.748  13.484  0.5962 -0.5887  1.4174
 9637TIP3   OH250401   2.283   4.962   2.324  0.1617 -0.1425  1.0173
 9637TIP3    H150402   2.314   4.972   2.234 -2.3714  0.6679  0.1453
 9637TIP3    H250403   2.310   4.873   2.348  0.4231 -0.5941 -0.7487
 9638TIP3   OH250404   1.761   6.298  14.271  0.5233  0.2796 -0.0916
 9638TIP3    H150405   1.785   6.249  14.350 -0.1905 -0.6234 -0.4244
 9638TIP3    H250406   1.846   6.322  14.232  0.9312 -1.5467 -0.4375
 9639TIP3   OH250407   0.974   0.496  11.388 -0.1642  0.3233 -0.0761
 9639TIP3    H150408   0.921   0.488  11.309  1.4877 -1.3785 -1.1172
 9639TIP3    H250409   1.059   0.459  11.363  1.1124  1.7694  1.8748
 9640TIP3   OH250410   0.863   2.257   4.261  0.0786 -0.0185  0.3523
 9640TIP3    H150411   0.957   2.253   4.243  0.1758  0.2008  0.8103
 9640TIP3    H250412   0.847   2.186   4.322 -0.2592 -0.7744 -0.5914
 9641TIP3   OH250413   2.955   1.037   3.839 -1.1023  0.8953  0.8197
 9641TIP3    H150414   2.883   1.089   3.803 -0.6151  0.0395 -1.5470
 9641TIP3    H250415   2.945   0.951   3.799  0.6462  0.4636  1.2181
 9642TIP3   OH250416   6.695   1.036   5.570 -0.4142  0.3053 -0.2782
 9642TIP3    H150417   6.720   1.064   5.658 -0.5444 -0.5121  0.0262
 9642TIP3    H250418   6.694   0.940   5.574  1.1013  0.1948 -1.5917
 9643TIP3   OH250419   4.632   4.344  13.046 -0.1251 -0.3006  0.2612
 9643TIP3    H150420   4.573   4.337  12.970  0.2137 -0.9394  0.0505
 9643TIP3    H250421   4.643   4.438  13.058  2.6608 -0.0740 -2.7493
 9644TIP3   OH250422   3.323   6.665   0.212 -0.6159 -0.3629  0.3272
 9644TIP3    H150423   3.278   6.621   0.284 -2.6006  0.8912 -0.0775
 9644TIP3    H250424   3.333   6.756   0.242  1.4079 -0.5158  0.2567
 9645TIP3   OH250425   1.961   1.733  10.578 -0.2641 -0.0334 -0.2058
 9645TIP3    H150426   1.946   1.643  10.549  1.8844 -0.1871 -1.0637
 9645TIP3    H250427   2.017   1.724  10.655  1.4387  0.5500 -1.3137
 9646TIP3   OH250428   5.572   1.232  15.179 -0.2783 -0.0807  0.1286
 9646TIP3    H150429   5.542   1.156  15.129 -0.4721 -0.1445  0.3413
 9646TIP3    H250430   5.597   1.197  15.264  3.2482 -0.5400 -0.9287
 9647TIP3   OH250431   3.143   2.861  14.823  0.0428  0.1486  0.3721
 9647TIP3    H150432   3.128   2.907  14.740 -1.8578 -0.5035  0.3108
 9647TIP3    H250433   3.190   2.925  14.877  2.1748  0.2603 -1.4735
 9648TIP3   OH250434   1.488   5.125   3.362  0.3701 -0.1196  0.2534
 9648TIP3    H150435   1.527   5.039   3.376  1.1150  0.2214  0.3251
 9648TIP3    H250436   1.487   5.167   3.448  0.1804  0.0182  0.1874
 9649TIP3   OH250437   4.489   0.470  14.699  0.4458  0.4756  0.2418
 9649TIP3    H150438   4.554   0.431  14.641  0.1335  2.2524 -1.4197
 9649TIP3    H250439   4.526   0.555  14.723  0.0221  0.2796  1.6796
 9650TIP3   OH250440   3.571   5.083   1.971  0.2579  0.5555  0.1132
 9650TIP3    H150441   3.497   5.104   2.028  0.2787  1.7647 -0.2739
 9650TIP3    H250442   3.534   5.083   1.882  0.2369 -1.2499  0.0891
 9651TIP3   OH250443   5.482   2.878  11.334  0.1347  0.7731 -0.2069
 9651TIP3    H150444   5.401   2.854  11.289 -0.2040  1.4973  0.0001
 9651TIP3    H250445   5.549   2.877  11.266  0.1498 -0.7856 -0.1952
 9652TIP3   OH250446   6.269   4.234   5.587  0.2790 -0.1948 -0.0085
 9652TIP3    H150447   6.363   4.251   5.586  0.4744 -1.0517 -2.1645
 9652TIP3    H250448   6.262   4.140   5.567 -1.0016 -0.7518  2.5716
 9653TIP3   OH250449   2.983   1.026   1.739  0.1613 -0.1232  0.1130
 9653TIP3    H150450   2.895   1.047   1.772  0.9472  0.6725  1.7677
 9653TIP3    H250451   3.025   1.111   1.728  2.0450 -0.5546  3.1093
 9654TIP3   OH250452   3.010   4.167  13.328  0.1092  0.0840 -0.2530
 9654TIP3    H150453   3.074   4.121  13.383  0.8407 -1.8966 -2.5486
 9654TIP3    H250454   2.929   4.117  13.339 -0.1782  0.6448  0.2081
 9655TIP3   OH250455   4.183   6.469  16.268  0.0463  0.7005  0.8907
 9655TIP3    H150456   4.213   6.524  16.196 -1.2265 -0.9274 -1.0080
 9655TIP3    H250457   4.093   6.446  16.245  0.0436 -0.9855  2.3218
 9656TIP3   OH250458   1.121   3.310  16.650  0.3113  0.0876 -0.5566
 9656TIP3    H150459   1.089   3.221  16.637 -1.0949  0.6157 -0.8396
 9656TIP3    H250460   1.187   3.302  16.719  0.3451 -1.1923 -0.7151
 9657TIP3   OH250461   6.315   6.792   2.458 -0.5477 -0.0677  0.5068
 9657TIP3    H150462   6.256   6.821   2.527 -0.7120  2.7159 -0.6666
 9657TIP3    H250463   6.401   6.823   2.485 -0.6546  1.2703 -0.5851
 9658TIP3   OH250464   2.656   5.365   0.507  0.1630 -0.4513  0.0131
 9658TIP3    H150465   2.565   5.366   0.538  0.4894 -0.3692  1.0164
 9658TIP3    H250466   2.649   5.352   0.413 -0.8730 -0.9638  0.1425
 9659TIP3   OH250467   2.702   4.717   5.272  0.4359  0.1662 -0.3400
 9659TIP3    H150468   2.766   4.653   5.239  3.5607  2.1188  1.4006
 9659TIP3    H250469   2.665   4.677   5.350 -2.5062 -1.9925 -2.6463
 9660TIP3   OH250470   4.015   5.162   4.878 -0.3066  0.7444 -0.3999
 9660TIP3    H150471   3.996   5.157   4.784  1.1697  1.6240 -0.7888
 9660TIP3    H250472   4.103   5.201   4.882  0.2165 -0.5189  1.3086
 9661TIP3   OH250473   1.782   2.755   1.427 -0.0243 -0.3838 -0.3934
 9661TIP3    H150474   1.785   2.671   1.380 -0.4755  0.0955 -1.3043
 9661TIP3    H250475   1.697   2.792   1.405  0.5803  0.7869 -0.8580
 9662TIP3   OH250476   5.987   1.186   1.610  0.1373  0.4490 -0.4056
 9662TIP3    H150477   5.953   1.104   1.645  1.6360  0.1841  0.5077
 9662TIP3    H250478   5.956   1.253   1.670 -1.3101  0.6108 -1.2992
 9663TIP3   OH250479   2.324   2.279   0.751  0.1140 -0.3322 -0.0679
 9663TIP3    H150480   2.419   2.281   0.761  0.0418 -0.6502  0.7933
 9663TIP3    H250481   2.308   2.319   0.665  1.1319 -2.0263 -1.1009
 9664TIP3   OH250482   3.998   5.013   0.552  0.0571  0.2368  0.3085
 9664TIP3    H150483   3.987   4.943   0.487 -0.6723 -0.5296  1.2241
 9664TIP3    H250484   3.974   5.093   0.505  0.1917 -0.2095 -0.5515
 9665TIP3   OH250485   0.926   6.514  14.791  0.4219 -0.3524  0.2798
 9665TIP3    H150486   0.968   6.517  14.878  1.0561 -0.1369 -0.0275
 9665TIP3    H250487   0.836   6.489  14.809  0.2241  0.9003  1.1081
 9666TIP3   OH250488   0.281   5.078   4.625 -0.3827  0.1112  0.4314
 9666TIP3    H150489   0.253   5.042   4.541  2.5794 -1.0120 -0.1858
 9666TIP3    H250490   0.255   5.171   4.622 -0.8328 -0.0487 -1.4672
 9667TIP3   OH250491   2.155   3.696   3.251 -0.6898 -0.5427 -0.0924
 9667TIP3    H150492   2.196   3.611   3.266  1.3260  0.1350 -1.3342
 9667TIP3    H250493   2.163   3.742   3.334  0.0751 -0.8521  0.0151
 9668TIP3   OH250494   3.546   3.953  14.654 -0.5350  0.5409 -0.8202
 9668TIP3    H150495   3.624   3.964  14.599  0.0444 -0.5131 -0.2506
 9668TIP3    H250496   3.473   3.961  14.594  0.0702 -0.0741 -1.6621
 9669TIP3   OH250497   2.782   0.305   1.994 -0.2959 -0.5417 -0.0526
 9669TIP3    H150498   2.770   0.387   2.043  1.9243  0.6914 -1.3770
 9669TIP3    H250499   2.836   0.251   2.051  0.5230  0.0488 -0.2464
 9670TIP3   OH250500   1.331   5.186  13.264 -0.6564 -0.2738  0.1914
 9670TIP3    H150501   1.306   5.133  13.339 -1.7861  0.8488  0.6466
 9670TIP3    H250502   1.416   5.223  13.286 -0.5009 -0.7963  0.4601
 9671TIP3   OH250503   0.153   5.400   5.522  0.2341  0.1810 -0.2466
 9671TIP3    H150504   0.080   5.411   5.462  1.3978  0.3553 -1.7023
 9671TIP3    H250505   0.113   5.392   5.609 -1.5909 -1.5361 -1.1750
 9672TIP3   OH250506   1.865   6.444   2.181 -0.7471  0.2014  0.4035
 9672TIP3    H150507   1.873   6.410   2.092 -2.6798  0.9015 -0.0802
 9672TIP3    H250508   1.893   6.371   2.237  1.3766  0.0477 -0.7359
 9673TIP3   OH250509   5.229   1.320   5.029  0.4731 -0.4695  0.1174
 9673TIP3    H150510   5.300   1.380   5.052 -0.4491  0.7729 -0.1578
 9673TIP3    H250511   5.150   1.363   5.061 -0.4429 -0.5312 -1.8942
 9674TIP3   OH250512   2.097   3.774  17.188 -0.2041 -0.3770 -0.1033
 9674TIP3    H150513   2.166   3.713  17.161 -0.2346 -0.4518 -0.0119
 9674TIP3    H250514   2.134   3.861  17.171 -0.2618 -0.4234 -0.4832
 9675TIP3   OH250515   2.579   4.721   2.127  0.4097 -0.4654  0.2772
 9675TIP3    H150516   2.646   4.672   2.079 -0.8606 -0.9302 -1.0886
 9675TIP3    H250517   2.518   4.751   2.060  0.1302  1.4170  1.3050
 9676TIP3   OH250518   2.505   5.697   4.043  0.2672 -0.3529  0.4417
 9676TIP3    H150519   2.560   5.626   4.077  0.0879 -0.1117  1.2438
 9676TIP3    H250520   2.550   5.725   3.963 -0.4419 -2.3490 -0.7339
 9677TIP3   OH250521   5.402   5.736   2.749 -0.1748  0.2486  0.0187
 9677TIP3    H150522   5.310   5.748   2.772  0.1697  0.9807  1.1140
 9677TIP3    H250523   5.447   5.807   2.794  1.1544 -1.1625  1.0018
 9678TIP3   OH250524   4.735   0.592   3.233  0.2833 -0.1148  0.1311
 9678TIP3    H150525   4.750   0.665   3.292 -0.9184 -0.8000  1.3370
 9678TIP3    H250526   4.812   0.536   3.244  0.8253  0.5528 -0.1932
 9679TIP3   OH250527   1.041   4.658  12.365 -0.3439 -1.2640 -0.2218
 9679TIP3    H150528   0.990   4.714  12.425 -0.2184 -1.0735 -0.2929
 9679TIP3    H250529   0.986   4.581  12.353 -0.7794 -0.9109 -0.5719
 9680TIP3   OH250530   0.065   0.324   0.541 -0.3966 -0.4713 -0.1005
 9680TIP3    H150531   0.097   0.235   0.553 -1.2360 -1.0196 -1.6357
 9680TIP3    H250532   0.002   0.336   0.612  1.0983 -0.3803  1.2609
 9681TIP3   OH250533   4.586   1.718  11.760  0.1833  0.4309  0.3340
 9681TIP3    H150534   4.643   1.789  11.729 -0.1366  0.4940 -0.1149
 9681TIP3    H250535   4.608   1.709  11.853  0.5782  0.7853  0.2787
 9682TIP3   OH250536   4.042   4.706   5.554  0.3406  0.7261  0.2374
 9682TIP3    H150537   4.107   4.666   5.497 -0.2453  0.5192 -0.2953
 9682TIP3    H250538   3.984   4.634   5.578 -0.3813  1.1379 -0.2522
 9683TIP3   OH250539   5.127   6.349  11.158  0.0915 -0.0301 -0.6555
 9683TIP3    H150540   5.124   6.407  11.082 -0.2114  0.1619 -0.4960
 9683TIP3    H250541   5.037   6.321  11.170  0.0245  0.4730  0.0443
 9684TIP3   OH250542   1.556   0.375   2.122  0.0849  0.0336 -0.4825
 9684TIP3    H150543   1.624   0.311   2.097 -0.7858 -1.0705 -0.1185
 9684TIP3    H250544   1.547   0.364   2.217 -2.7093 -2.1041 -0.8445
 9685TIP3   OH250545   3.457   0.782  14.104 -0.0746 -0.5082  0.4017
 9685TIP3    H150546   3.463   0.864  14.055 -0.1123 -1.2433 -0.8743
 9685TIP3    H250547   3.547   0.763  14.132  0.5573 -1.6857 -2.1573
 9686TIP3   OH250548   3.125   4.417  10.931 -0.0964  0.0883 -0.0895
 9686TIP3    H150549   3.068   4.492  10.917 -0.1281  0.6930  2.7247
 9686TIP3    H250550   3.072   4.354  10.979  0.3948 -1.1302 -1.0787
 9687TIP3   OH250551   3.614   5.235  12.271 -0.3922  0.6204 -0.9969
 9687TIP3    H150552   3.587   5.150  12.237  1.1359  0.0466 -0.8523
 9687TIP3    H250553   3.648   5.216  12.359  0.1826  1.3336 -1.0512
 9688TIP3   OH250554   1.258   1.458   4.974  0.2470  0.0324 -0.0996
 9688TIP3    H150555   1.164   1.444   4.959 -0.3113  3.1552 -0.1045
 9688TIP3    H250556   1.263   1.504   5.058  1.5087  1.9842 -1.1662
 9689TIP3   OH250557   0.774   1.886  12.681 -0.0654 -0.0325  0.3862
 9689TIP3    H150558   0.808   1.836  12.755 -0.8062 -2.8072 -0.9835
 9689TIP3    H250559   0.681   1.864  12.679  0.1049 -0.8292 -1.8555
 9690TIP3   OH250560   2.596   0.852  12.623 -0.2735 -0.3624  0.4375
 9690TIP3    H150561   2.589   0.765  12.585 -0.1774  0.3390 -1.2925
 9690TIP3    H250562   2.505   0.881  12.633 -0.3943  0.8010 -2.7370
 9691TIP3   OH250563   3.023   4.767  12.735  0.1308  0.5310  0.1028
 9691TIP3    H150564   3.004   4.689  12.683  0.6842  0.3249  0.1959
 9691TIP3    H250565   3.093   4.811  12.686  1.9306 -0.5842  1.5112
 9692TIP3   OH250566   4.288   4.311   3.571  0.2277 -0.2757 -0.5039
 9692TIP3    H150567   4.309   4.404   3.578 -0.5182 -0.0299 -1.3739
 9692TIP3    H250568   4.368   4.272   3.534 -0.1329  0.3531 -2.0342
 9693TIP3   OH250569   1.774   5.791  12.519 -1.0059  0.1316 -0.2485
 9693TIP3    H150570   1.728   5.712  12.545 -0.3912  0.1795  1.0898
 9693TIP3    H250571   1.733   5.861  12.571  0.0810  0.2789  0.4494
 9694TIP3   OH250572   2.856   5.943   1.460 -0.0174  0.4038 -1.0361
 9694TIP3    H150573   2.947   5.958   1.435 -0.2769 -0.3099 -2.5647
 9694TIP3    H250574   2.813   6.027   1.445  0.1637  0.4247 -1.4649
 9695TIP3   OH250575   0.215   4.277   3.607 -0.3396 -0.3700  1.0227
 9695TIP3    H150576   0.243   4.352   3.660  3.2200 -0.5109 -0.4083
 9695TIP3    H250577   0.256   4.292   3.522 -0.1272 -3.5733  0.4634
 9696TIP3   OH250578   3.364   3.302   5.203 -0.2591  0.0745 -0.8280
 9696TIP3    H150579   3.381   3.208   5.196  1.0651 -0.0876  2.6211
 9696TIP3    H250580   3.425   3.342   5.141  1.1763 -1.2658 -0.3512
 9697TIP3   OH250581   4.570   5.082  13.177  0.1601  0.4111  0.0492
 9697TIP3    H150582   4.632   5.010  13.191 -0.1579  0.2972  0.8923
 9697TIP3    H250583   4.612   5.158  13.216 -0.4690  0.2133  1.1590
 9698TIP3   OH250584   1.431   5.321   3.558 -0.3641  0.6975  0.3562
 9698TIP3    H150585   1.514   5.365   3.538 -0.4217  0.0971 -1.4291
 9698TIP3    H250586   1.364   5.373   3.513 -0.6316 -0.1774 -0.2981
 9699TIP3   OH250587   0.803   6.511  10.690 -0.0211 -0.0657  0.3453
 9699TIP3    H150588   0.764   6.484  10.607  0.4239  1.0718 -0.2672
 9699TIP3    H250589   0.881   6.457  10.699  0.5223  0.5468 -0.5455
 9700TIP3   OH250590   3.307   1.555   4.355 -0.2821  0.6190  0.2125
 9700TIP3    H150591   3.313   1.642   4.394 -2.2039  0.1589  1.6862
 9700TIP3    H250592   3.268   1.570   4.269 -2.7241  1.1150  1.3073
 9701TIP3   OH250593   1.099   1.713   6.462 -0.1263 -0.2391  0.1304
 9701TIP3    H150594   1.039   1.718   6.388 -1.7295 -0.2455  1.3714
 9701TIP3    H250595   1.168   1.654   6.433  0.4677  1.4151 -2.1184
 9702TIP3   OH250596   6.598   0.687   3.321 -0.7762  0.7655  0.0749
 9702TIP3    H150597   6.620   0.601   3.284 -2.2516 -0.5453  2.0164
 9702TIP3    H250598   6.682   0.731   3.330 -0.2643  1.2507 -4.6340
 9703TIP3   OH250599   5.559   2.298  10.379 -0.2443 -0.0387  0.1878
 9703TIP3    H150600   5.510   2.370  10.419 -0.9452 -1.2509  1.6108
 9703TIP3    H250601   5.495   2.228  10.368  0.1131 -0.0652 -2.3974
 9704TIP3   OH250602   4.390   1.867   0.321 -0.7110  0.1040  0.3684
 9704TIP3    H150603   4.475   1.825   0.336  0.7496  2.3315 -0.9276
 9704TIP3    H250604   4.363   1.836   0.235 -0.5950  0.3092  0.2564
 9705TIP3   OH250605   6.196   4.939  13.437 -0.7560  0.1076  0.8185
 9705TIP3    H150606   6.198   4.848  13.467  0.4795  0.2325  1.1496
 9705TIP3    H250607   6.132   4.982  13.494 -1.0434 -0.4480  0.9268
 9706TIP3   OH250608   3.645   4.059   2.421  0.2733 -0.8096  0.3744
 9706TIP3    H150609   3.610   4.056   2.510 -0.1442 -0.2524  0.2299
 9706TIP3    H250610   3.734   4.093   2.432 -0.2211  0.5065  0.4599
 9707TIP3   OH250611   5.229   6.115  13.170  0.4297  0.1482  0.4339
 9707TIP3    H150612   5.232   6.021  13.151  2.4495  0.0986  0.8037
 9707TIP3    H250613   5.286   6.127  13.246 -0.0946  1.6247  0.6308
 9708TIP3   OH250614   1.281   0.076  15.351 -0.1997 -0.7052  0.1981
 9708TIP3    H150615   1.297  -0.018  15.348  1.6687 -0.4113 -0.5441
 9708TIP3    H250616   1.314   0.103  15.437 -0.1830 -0.6433  0.1725
 9709TIP3   OH250617   2.961   1.366  11.550 -0.0818 -0.3448  0.1616
 9709TIP3    H150618   3.048   1.328  11.541 -0.4901 -1.0164 -1.1476
 9709TIP3    H250619   2.928   1.373  11.460 -1.6074 -0.6502  0.6699
 9710TIP3   OH250620   0.947   1.734   2.891 -0.0329 -0.6645 -0.5962
 9710TIP3    H150621   0.939   1.779   2.975 -1.4829 -2.0838  0.0825
 9710TIP3    H250622   1.031   1.687   2.897  0.6858  0.5665 -0.6541
 9711TIP3   OH250623   5.955   3.044   2.206 -0.4865  0.1419  0.1119
 9711TIP3    H150624   5.960   3.081   2.118  0.1639 -2.0597 -0.8290
 9711TIP3    H250625   5.874   3.080   2.243  0.1216  2.5062 -0.6648
 9712TIP3   OH250626   3.910   6.783  17.162 -0.6466  0.5921  0.4248
 9712TIP3    H150627   3.822   6.767  17.127  0.0227  0.8469 -1.4854
 9712TIP3    H250628   3.963   6.712  17.126  0.0959  0.8974  0.9028
 9713TIP3   OH250629   1.789   1.447   2.660  0.3520 -0.5235 -0.2657
 9713TIP3    H150630   1.877   1.473   2.689  0.0757 -0.5344  0.6102
 9713TIP3    H250631   1.799   1.354   2.637  0.6398 -0.4411 -0.4922
 9714TIP3   OH250632   4.977   4.687  13.147 -0.0726 -0.2265  0.5760
 9714TIP3    H150633   5.035   4.756  13.116 -0.7202  0.8327  1.6463
 9714TIP3    H250634   5.009   4.665  13.234  0.4115 -1.6498  0.0770
 9715TIP3   OH250635   4.851   0.248   2.048 -0.0033  0.4089 -0.0368
 9715TIP3    H150636   4.767   0.204   2.062  0.1555 -0.3697 -1.3991
 9715TIP3    H250637   4.863   0.302   2.127 -1.0217 -0.6715  0.9008
 9716TIP3   OH250638   6.469   3.064   0.875 -0.6494  0.6554 -0.0801
 9716TIP3    H150639   6.493   3.071   0.783 -0.5514  0.9125 -0.0375
 9716TIP3    H250640   6.488   2.973   0.898 -2.0414  0.1854 -0.6809
 9717TIP3   OH250641   2.137   3.362  13.808 -0.2848 -0.3779  0.2861
 9717TIP3    H150642   2.151   3.396  13.896  0.3709 -0.3070  0.1585
 9717TIP3    H250643   2.072   3.421  13.769 -0.7758 -0.5713  0.8098
 9718TIP3   OH250644   5.832   4.611  11.054  0.0718 -0.7046 -0.5578
 9718TIP3    H150645   5.851   4.596  10.961 -0.8760  0.5784 -0.9924
 9718TIP3    H250646   5.833   4.707  11.063 -0.5727 -0.7921  0.6019
 9719TIP3   OH250647   2.843   4.827  14.775  0.3938  0.1598  0.3133
 9719TIP3    H150648   2.905   4.778  14.830  2.1183  0.6431 -1.1126
 9719TIP3    H250649   2.836   4.913  14.816 -0.7785 -0.4610  1.4813
 9720TIP3   OH250650   5.506   6.722  16.077 -0.2660 -0.0878  0.2258
 9720TIP3    H150651   5.591   6.766  16.070 -0.9447  1.7925  2.4037
 9720TIP3    H250652   5.525   6.638  16.119  0.4524  0.6983  1.5245
 9721TIP3   OH250653   4.811   5.932   2.474 -0.0487 -0.8348  0.0992
 9721TIP3    H150654   4.797   5.982   2.394  0.8735  0.8931  0.9628
 9721TIP3    H250655   4.766   5.849   2.459 -0.2285 -0.3902 -2.0342
 9722TIP3   OH250656   3.907   5.433   6.063 -0.5007 -0.3352  0.0548
 9722TIP3    H150657   3.996   5.424   6.098 -1.1684 -0.6976  1.7840
 9722TIP3    H250658   3.871   5.344   6.068 -1.2018 -0.0530  0.1028
 9723TIP3   OH250659   5.983   4.385   1.006  0.6703  0.0894  0.2612
 9723TIP3    H150660   5.992   4.408   1.098  1.5952 -0.4890  0.3326
 9723TIP3    H250661   6.056   4.430   0.963  0.0112  0.6755 -0.2495
 9724TIP3   OH250662   1.745   5.156  15.296  0.1157  0.3843  0.1664
 9724TIP3    H150663   1.812   5.110  15.348  0.2529  0.4463  0.0449
 9724TIP3    H250664   1.729   5.098  15.221  2.5582  1.9059 -1.6838
 9725TIP3   OH250665   3.828   6.252   3.592 -0.6092  0.5138 -0.1606
 9725TIP3    H150666   3.835   6.167   3.549 -0.7146  0.9801 -1.1234
 9725TIP3    H250667   3.903   6.301   3.559 -1.6295  1.4593 -1.1837
 9726TIP3   OH250668   5.716   6.654  10.079 -0.2292  0.3678 -0.0412
 9726TIP3    H150669   5.773   6.705  10.135  1.2327  0.4208 -1.5119
 9726TIP3    H250670   5.663   6.719  10.032 -0.1074  0.4058 -0.1243
 9727TIP3   OH250671   5.717   0.539  13.087 -0.4935 -0.1104  0.6721
 9727TIP3    H150672   5.789   0.477  13.095 -0.6808 -0.7791 -1.8786
 9727TIP3    H250673   5.733   0.605  13.155  0.9480 -1.7194  1.9646
 9728TIP3   OH250674   6.721   5.378   1.219 -0.5502  0.3681 -0.1469
 9728TIP3    H150675   6.654   5.313   1.196 -0.4373 -0.6391  2.1191
 9728TIP3    H250676   6.683   5.426   1.292  1.2448 -0.4126  1.3799
 9729TIP3   OH250677   5.260   5.797  11.824 -0.0783  0.0557  0.2225
 9729TIP3    H150678   5.168   5.771  11.816 -0.4768  1.4124  0.1450
 9729TIP3    H250679   5.257   5.884  11.863  1.2496 -0.4749  1.5981
 9730TIP3   OH250680   5.754   3.456  10.585 -0.2857 -0.0985  0.6529
 9730TIP3    H150681   5.806   3.394  10.636 -0.1510 -0.0998  0.5124
 9730TIP3    H250682   5.675   3.407  10.562  1.0331 -1.1866 -1.8881
 9731TIP3   OH250683   2.223   0.111  11.455 -0.2781 -0.1248 -0.1872
 9731TIP3    H150684   2.128   0.110  11.444 -0.3045 -0.4310  0.0262
 9731TIP3    H250685   2.243   0.199  11.486 -0.3959  0.2009 -1.0184
 9732TIP3   OH250686   6.413   3.498   3.650 -0.6219 -0.4579 -0.2470
 9732TIP3    H150687   6.506   3.505   3.670 -0.5952 -0.6084 -0.3104
 9732TIP3    H250688   6.400   3.404   3.634 -0.7697 -0.4276 -0.3033
 9733TIP3   OH250689   0.614   1.437   4.898 -0.0400  0.0014 -0.2427
 9733TIP3    H150690   0.604   1.513   4.842  0.3952  0.1540 -0.1165
 9733TIP3    H250691   0.629   1.364   4.838 -2.3341 -0.3529 -0.4919
 9734TIP3   OH250692   0.544   1.922  14.603 -0.0792 -0.2728 -0.1206
 9734TIP3    H150693   0.495   1.980  14.662  0.6577 -1.0192  1.3042
 9734TIP3    H250694   0.616   1.976  14.571 -0.1965  0.0076  0.0809
 9735TIP3   OH250695   2.098   6.515  17.062  0.1009 -0.1030 -0.2782
 9735TIP3    H150696   2.027   6.500  16.999 -2.3348  0.7123  2.0530
 9735TIP3    H250697   2.060   6.489  17.147  1.8396  2.3277  1.3756
 9736TIP3   OH250698   2.420   1.914   4.932  0.1288  0.1694 -0.2611
 9736TIP3    H150699   2.392   1.977   4.999 -0.1154 -1.4946  1.2623
 9736TIP3    H250700   2.512   1.898   4.952  0.4930  0.8217 -1.3253
 9737TIP3   OH250701   1.157   2.232   1.514  0.6701  0.3116  0.1184
 9737TIP3    H150702   1.183   2.323   1.496 -2.5732  1.4009  0.2322
 9737TIP3    H250703   1.152   2.191   1.428  1.7033  0.3784  0.0247
 9738TIP3   OH250704   2.049   4.019   6.763  0.5588 -0.1107 -0.2490
 9738TIP3    H150705   1.985   3.971   6.814 -0.5235 -0.1496 -1.5711
 9738TIP3    H250706   2.001   4.048   6.685  2.1615 -0.2027 -1.3276
 9739TIP3   OH250707   5.494   2.552  13.400 -0.1891  0.5218  0.0941
 9739TIP3    H150708   5.423   2.496  13.368 -0.9621  1.8231 -0.5468
 9739TIP3    H250709   5.519   2.514  13.485 -1.4684 -0.1066  0.2026
 9740TIP3   OH250710   4.174   1.722  16.218  0.1582  0.0699 -0.4350
 9740TIP3    H150711   4.089   1.757  16.190 -0.1599 -0.7471 -0.5197
 9740TIP3    H250712   4.161   1.627  16.221  1.1655 -0.0946 -0.7784
 9741TIP3   OH250713   3.690   0.168  16.405  0.4209 -0.6114 -0.2331
 9741TIP3    H150714   3.703   0.261  16.386  1.4567 -0.2295  1.9382
 9741TIP3    H250715   3.596   0.153  16.393  0.1914  0.7929 -0.3300
 9742TIP3   OH250716   1.491   0.039   1.735  0.1833 -0.0429  0.4949
 9742TIP3    H150717   1.416   0.040   1.795 -0.3012  0.9729 -0.0872
 9742TIP3    H250718   1.512   0.132   1.722  3.7182 -0.2861  3.2496
 9743TIP3   OH250719   0.206   5.049  17.067  0.3982 -0.2628 -0.6328
 9743TIP3    H150720   0.139   4.985  17.044  0.9252 -0.8841 -0.4618
 9743TIP3    H250721   0.190   5.123  17.009 -0.3031 -0.4912 -0.7347
 9744TIP3   OH250722   2.778   0.533   0.827 -0.0376 -0.1173  0.1266
 9744TIP3    H150723   2.692   0.500   0.798  0.1049  0.6003 -1.2055
 9744TIP3    H250724   2.784   0.620   0.788  0.7895  0.3440  1.2400
 9745TIP3   OH250725   1.283   4.019   4.943  0.3550  0.2458  0.9550
 9745TIP3    H150726   1.372   4.002   4.912 -0.7767 -1.6107 -1.7416
 9745TIP3    H250727   1.270   3.957   5.014  0.7567 -0.6039  0.3091
 9746TIP3   OH250728   0.330   5.664   2.057 -0.3238 -0.1064 -0.0513
 9746TIP3    H150729   0.314   5.751   2.021 -0.3865  0.1990  0.7000
 9746TIP3    H250730   0.422   5.646   2.036  0.4240  1.1792  1.8869
 9747TIP3   OH250731   0.367   4.956  11.631 -0.0885 -0.3809  0.1826
 9747TIP3    H150732   0.344   4.863  11.627  0.8172 -0.5734 -2.5501
 9747TIP3    H250733   0.328   4.994  11.552  1.3139  1.1154  0.1614
 9748TIP3   OH250734   4.218   2.078  16.185  0.2569 -0.5093  0.1232
 9748TIP3    H150735   4.123   2.064  16.190  0.1292  0.2477 -0.0709
 9748TIP3    H250736   4.253   1.992  16.161 -0.3329 -0.9144  0.6887
 9749TIP3   OH250737   2.740   6.179  16.224  0.2851  0.3267 -0.0116
 9749TIP3    H150738   2.648   6.198  16.243  0.7176  0.5633  2.1718
 9749TIP3    H250739   2.782   6.264  16.217  0.5450  0.2168  0.1865
 9750TIP3   OH250740   5.197   5.653   5.171  0.4373  0.1416  0.3761
 9750TIP3    H150741   5.117   5.660   5.224 -0.4350  2.3907 -1.0720
 9750TIP3    H250742   5.236   5.570   5.197 -2.3394 -1.0211  1.1754
 9751TIP3   OH250743   0.505   5.510  12.971  0.3606 -0.0880  0.4863
 9751TIP3    H150744   0.588   5.465  12.987  1.5050  1.5844 -0.4642
 9751TIP3    H250745   0.500   5.518  12.876 -0.3486  0.8025  0.5881
 9752TIP3   OH250746   5.523   2.081  12.611  0.0743 -0.1216  0.2703
 9752TIP3    H150747   5.617   2.066  12.624  0.2343  0.4654 -0.1957
 9752TIP3    H250748   5.481   2.015  12.666  0.7593 -0.4475  0.4142
 9753TIP3   OH250749   2.456   6.675   5.598 -0.5918 -0.7653 -0.5558
 9753TIP3    H150750   2.490   6.604   5.653  0.0242  0.2106  0.3544
 9753TIP3    H250751   2.529   6.697   5.540 -0.1624  0.3082  0.3698
 9754TIP3   OH250752   4.165   5.021  12.770  0.0362 -0.9261 -0.1752
 9754TIP3    H150753   4.150   5.098  12.825 -0.4095  0.2560 -1.8562
 9754TIP3    H250754   4.126   4.949  12.819 -0.2693  0.0524  1.0854
 9755TIP3   OH250755   1.256   5.929  11.455 -0.2574  0.0478  0.1125
 9755TIP3    H150756   1.187   5.891  11.510 -0.5590 -0.6066 -0.6948
 9755TIP3    H250757   1.212   5.950  11.373  0.1904  1.0057  0.1097
 9756TIP3   OH250758   5.951   5.718  11.997 -0.2447  0.5070 -0.1913
 9756TIP3    H150759   5.870   5.689  12.039  0.8652  1.0819  2.5357
 9756TIP3    H250760   5.975   5.797  12.045  2.4997 -0.2401 -0.2065
 9757TIP3   OH250761   1.910   1.101  13.365 -0.0634 -0.3594  0.0543
 9757TIP3    H150762   1.851   1.062  13.430  1.0377 -1.2652  0.5272
 9757TIP3    H250763   1.950   1.027  13.321  0.7860  0.2465 -0.2103
 9758TIP3   OH250764   1.206   0.037   0.802 -0.1055  0.3573  0.6059
 9758TIP3    H150765   1.227  -0.030   0.867 -3.0255 -0.2444  1.1025
 9758TIP3    H250766   1.283   0.042   0.746  0.3552 -3.3005  0.6655
 9759TIP3   OH250767   1.813   0.462  12.140  0.4082  0.0771  0.6114
 9759TIP3    H150768   1.849   0.446  12.228 -0.6486 -1.4139  0.8218
 9759TIP3    H250769   1.843   0.387  12.088 -0.4899 -0.0225  0.2118
 9760TIP3   OH250770   1.071   0.708   5.311  0.1480  0.4975 -0.5832
 9760TIP3    H150771   0.977   0.704   5.330  0.1876 -1.0005 -0.5943
 9760TIP3    H250772   1.097   0.795   5.341 -0.9383  0.3581  0.9065
 9761TIP3   OH250773   2.059   6.790  15.327 -0.4048 -0.2374 -0.0858
 9761TIP3    H150774   2.148   6.814  15.354 -0.2140 -0.7570 -0.2344
 9761TIP3    H250775   2.072   6.739  15.247 -0.9143  0.7135 -0.7945
 9762TIP3   OH250776   3.681   1.384  11.481 -0.5095 -0.2951 -0.2421
 9762TIP3    H150777   3.588   1.396  11.459 -1.2350 -0.5706  2.3327
 9762TIP3    H250778   3.702   1.459  11.537  1.7046  1.2948 -2.9763
 9763TIP3   OH250779   4.553   6.735  16.406  0.0186  0.7001  0.8657
 9763TIP3    H150780   4.640   6.696  16.412 -0.2907  0.1539  2.0107
 9763TIP3    H250781   4.493   6.662  16.420 -0.6334  1.0766  0.1152
 9764TIP3   OH250782   3.314   0.552  16.718 -0.1866 -0.2189 -0.5346
 9764TIP3    H150783   3.346   0.463  16.703  0.6693 -0.0892  0.4498
 9764TIP3    H250784   3.377   0.609  16.676 -0.4995 -0.0552 -0.7879
 9765TIP3   OH250785   5.170   1.950   1.436 -0.2290  0.2018  0.1726
 9765TIP3    H150786   5.125   1.936   1.353 -0.1231  1.1284 -0.0573
 9765TIP3    H250787   5.104   1.934   1.503 -0.1996 -0.9756 -0.0657
 9766TIP3   OH250788   6.677   5.690   3.258  0.0376 -0.3238 -0.1392
 9766TIP3    H150789   6.730   5.739   3.196 -1.0316  1.3575  0.1896
 9766TIP3    H250790   6.594   5.676   3.213  0.2680 -1.7225 -0.1589
 9767TIP3   OH250791   2.320   4.054   6.846 -0.6789  0.2404 -0.2149
 9767TIP3    H150792   2.232   4.071   6.812 -0.2033  0.9687 -1.1535
 9767TIP3    H250793   2.360   4.141   6.852 -0.4920  0.0638  1.5788
 9768TIP3   OH250794   1.109   0.051  12.552  0.1300 -0.6936  0.1984
 9768TIP3    H150795   1.048   0.089  12.488  0.5475 -0.3754 -0.0187
 9768TIP3    H250796   1.190   0.038  12.503  0.4689 -0.4014  0.6742
 9769TIP3   OH250797   4.593   1.246   3.922  0.5761  0.1579 -0.0880
 9769TIP3    H150798   4.644   1.165   3.918 -2.6698 -1.9963 -1.7515
 9769TIP3    H250799   4.602   1.284   3.835  0.3499  0.4405  0.0123
 9770TIP3   OH250800   0.754   1.385  14.429  0.2844 -0.5985 -0.3974
 9770TIP3    H150801   0.671   1.338  14.429  0.8802 -1.7004 -0.1684
 9770TIP3    H250802   0.771   1.404  14.522  0.4118 -0.6180 -0.4161
 9771TIP3   OH250803   3.267   4.205   0.722 -0.0223  0.1571  0.0056
 9771TIP3    H150804   3.205   4.255   0.774 -0.2676  0.6454 -0.7282
 9771TIP3    H250805   3.246   4.229   0.631  0.8877 -0.0737 -0.2758
 9772TIP3   OH250806   0.288   4.091  15.698 -0.4811  0.8279  0.1935
 9772TIP3    H150807   0.348   4.077  15.772  0.3761  2.0030 -0.2549
 9772TIP3    H250808   0.207   4.122  15.738 -0.3662  0.4785  0.7105
 9773TIP3   OH250809   4.754   5.655   2.223  1.0440 -0.2100 -0.3265
 9773TIP3    H150810   4.670   5.662   2.268  1.1499  2.7525 -0.3775
 9773TIP3    H250811   4.754   5.567   2.185 -1.2567 -0.9200  1.1267
 9774TIP3   OH250812   2.756   4.669  14.566 -0.1598 -0.4220 -0.7363
 9774TIP3    H150813   2.732   4.588  14.611 -0.6376 -0.5150 -1.1536
 9774TIP3    H250814   2.799   4.722  14.633 -0.6983 -0.6326 -0.2156
 9775TIP3   OH250815   1.590   1.665  16.981  0.6770 -0.0198  0.2313
 9775TIP3    H150816   1.651   1.733  16.952  1.4223 -1.1092 -0.8605
 9775TIP3    H250817   1.509   1.712  16.999  1.1526  1.1511 -0.5500
 9776TIP3   OH250818   4.199   5.862  15.824 -0.1784 -0.6230  0.1087
 9776TIP3    H150819   4.198   5.767  15.832  0.9647 -0.7420 -0.8714
 9776TIP3    H250820   4.145   5.880  15.746 -0.6977 -0.4379  0.5077
 9777TIP3   OH250821   2.148   3.273  11.761  0.8637 -0.9741  0.3164
 9777TIP3    H150822   2.240   3.297  11.761  0.9232 -1.1361  1.4945
 9777TIP3    H250823   2.103   3.349  11.799  0.6517 -1.3311  0.7947
 9778TIP3   OH250824   5.509   6.108   2.107  0.2310 -0.1939  0.0559
 9778TIP3    H150825   5.526   6.034   2.166 -1.1136  0.4917  1.3796
 9778TIP3    H250826   5.521   6.186   2.162  2.0227  0.6397 -1.4143
 9779TIP3   OH250827   0.270   1.293   0.712 -0.4518  0.0527  0.5707
 9779TIP3    H150828   0.209   1.311   0.640 -1.3551  0.6229  1.4454
 9779TIP3    H250829   0.218   1.243   0.776  0.9224 -2.3526 -0.0607
 9780TIP3   OH250830   6.340   3.042   5.715 -0.1753  0.0738 -0.2924
 9780TIP3    H150831   6.333   3.116   5.776 -0.2380 -0.8209  0.8013
 9780TIP3    H250832   6.424   3.055   5.672 -0.1484  0.7441 -0.0584
 9781TIP3   OH250833   4.546   0.355  13.990  0.4130  0.4447  0.1512
 9781TIP3    H150834   4.595   0.318  14.064 -2.0045 -1.1276  1.0702
 9781TIP3    H250835   4.479   0.409  14.031 -1.8247 -1.5125 -0.7092
 9782TIP3   OH250836   3.791   3.812  14.271  0.0595  0.8561  0.2754
 9782TIP3    H150837   3.740   3.743  14.313 -0.4454  0.7189 -0.5339
 9782TIP3    H250838   3.881   3.795  14.298  0.1195 -0.8504 -0.8457
 9783TIP3   OH250839   3.311   0.271  16.689  0.2013  0.6236 -0.0870
 9783TIP3    H150840   3.223   0.307  16.698 -0.2404  0.3311 -2.5101
 9783TIP3    H250841   3.313   0.196  16.748 -1.8895 -0.5368 -1.3570
 9784TIP3   OH250842   0.169   5.995   5.588 -0.4274 -0.3323 -0.4095
 9784TIP3    H150843   0.249   6.043   5.610  0.8511 -1.5868 -2.0107
 9784TIP3    H250844   0.164   5.925   5.652 -0.3257 -0.1564 -0.2092
 9785TIP3   OH250845   0.522   5.437  16.037 -0.0905 -0.7418  0.1819
 9785TIP3    H150846   0.504   5.406  16.125 -0.9929 -0.2830  0.1738
 9785TIP3    H250847   0.437   5.466  16.003  0.2238 -0.9839 -0.8680
 9786TIP3   OH250848   3.140   2.799  15.750 -0.0907  0.3480 -0.4695
 9786TIP3    H150849   3.179   2.884  15.770 -0.8108  0.9573 -1.5773
 9786TIP3    H250850   3.215   2.740  15.738  0.5065  1.3274 -1.8126
 9787TIP3   OH250851   1.281   5.486  15.544 -0.0751  0.1480 -0.0035
 9787TIP3    H150852   1.369   5.519  15.526 -0.2392  0.6018  0.0257
 9787TIP3    H250853   1.280   5.468  15.638 -0.4098  1.3551  0.2452
 9788TIP3   OH250854   4.609   1.334  16.346  0.1896 -0.4811  0.5163
 9788TIP3    H150855   4.557   1.357  16.424 -1.9564  0.1023 -0.9929
 9788TIP3    H250856   4.622   1.239  16.354  0.3842 -0.3702  1.7887
 9789TIP3   OH250857   3.815   1.198  12.206 -0.9374  0.2304  0.4910
 9789TIP3    H150858   3.807   1.127  12.269  0.3746 -0.4948 -0.1127
 9789TIP3    H250859   3.725   1.226  12.189 -1.2926  1.9810  4.3188
 9790TIP3   OH250860   5.643   0.249  15.061 -0.0121  0.2046 -0.0589
 9790TIP3    H150861   5.713   0.289  15.009 -0.4964  1.1248 -0.0281
 9790TIP3    H250862   5.653   0.287  15.148 -0.4198  0.1899 -0.0031
 9791TIP3   OH250863   5.652   4.708  17.020 -0.3486 -0.2691  0.6364
 9791TIP3    H150864   5.650   4.699  16.925  1.2783 -0.8960  0.6357
 9791TIP3    H250865   5.743   4.726  17.041 -0.5388 -0.8814  2.1395
 9792TIP3   OH250866   2.165   5.355  13.865  0.7638 -0.1987 -0.2510
 9792TIP3    H150867   2.122   5.270  13.858 -0.0929  0.1787  0.2941
 9792TIP3    H250868   2.188   5.378  13.775 -1.1199  0.0673 -0.6896
 9793TIP3   OH250869   0.234   3.838   2.667  0.3750 -0.0135 -0.0988
 9793TIP3    H150870   0.270   3.817   2.753  0.9574  0.1208 -0.3043
 9793TIP3    H250871   0.156   3.783   2.659  0.1456  0.1882  0.6345
 9794TIP3   OH250872   5.530   2.001  16.247 -0.4758  0.6048  0.0097
 9794TIP3    H150873   5.456   2.062  16.236 -0.1169  1.0710  0.1437
 9794TIP3    H250874   5.522   1.970  16.337 -1.4274 -0.5808 -0.4550
 9795TIP3   OH250875   0.834   6.557  12.903 -0.3345  0.1601  0.3753
 9795TIP3    H150876   0.892   6.549  12.828 -1.8398 -1.5633 -0.6904
 9795TIP3    H250877   0.857   6.483  12.959 -1.9027 -0.9697 -0.4051
 9796TIP3   OH250878   3.462   4.876  16.033 -0.3178 -0.1548 -0.4203
 9796TIP3    H150879   3.391   4.893  16.095  0.3356 -1.0488  0.6014
 9796TIP3    H250880   3.429   4.806  15.978 -0.6327  0.1655 -0.6433
 9797TIP3   OH250881   2.858   2.910   4.488 -0.2508  0.4667 -0.4892
 9797TIP3    H150882   2.836   2.982   4.548 -2.1190  0.0736 -0.6254
 9797TIP3    H250883   2.881   2.837   4.546  0.3273  0.7833 -0.3150
 9798TIP3   OH250884   5.350   0.119   5.433 -0.5309 -0.3046 -0.5571
 9798TIP3    H150885   5.337   0.030   5.464  0.8486 -0.4567 -0.3570
 9798TIP3    H250886   5.396   0.110   5.350 -1.6273  0.1893 -1.2331
 9799TIP3   OH250887   2.724   0.135  16.230  0.1597 -0.1032 -0.4831
 9799TIP3    H150888   2.722   0.177  16.144  1.0187  0.1733 -0.3755
 9799TIP3    H250889   2.795   0.178  16.277  0.8397 -1.4361 -0.2381
 9800TIP3   OH250890   6.402   4.501  16.274 -0.2967  0.0503  0.5249
 9800TIP3    H150891   6.423   4.512  16.367 -0.7895  0.6049  0.5734
 9800TIP3    H250892   6.391   4.406  16.264 -1.1281  0.0524  1.2364
 9801TIP3   OH250893   1.430   0.411  10.937 -0.7725  0.0208 -0.4578
 9801TIP3    H150894   1.498   0.477  10.922  0.4164 -0.6903  1.3981
 9801TIP3    H250895   1.353   0.461  10.962 -0.9516  0.8374 -2.4723
 9802TIP3   OH250896   4.782   5.483  13.047  0.3028  0.4217 -0.3377
 9802TIP3    H150897   4.861   5.485  12.993 -0.4023  0.5255 -1.3786
 9802TIP3    H250898   4.782   5.567  13.093  1.4781 -0.1055  0.7064
 9803TIP3   OH250899   0.654   5.582   4.682  0.8694 -0.0465  0.0222
 9803TIP3    H150900   0.593   5.625   4.741 -0.6883 -0.9756 -0.8373
 9803TIP3    H250901   0.661   5.493   4.716  0.3857 -0.4309 -0.8601
 9804TIP3   OH250902   1.417   4.420   1.857  0.0225 -0.1876 -0.0110
 9804TIP3    H150903   1.375   4.340   1.890 -0.3810  0.6631  1.6719
 9804TIP3    H250904   1.412   4.412   1.762  0.7446 -2.5489  0.0883
 9805TIP3   OH250905   6.192   3.947   5.469  0.1141 -0.4734 -0.4018
 9805TIP3    H150906   6.109   3.986   5.497  0.4607  1.6187 -2.0379
 9805TIP3    H250907   6.175   3.853   5.469 -1.7314 -0.1950  0.8628
 9806TIP3   OH250908   2.003   2.225  12.076  0.6978  0.5887 -0.5587
 9806TIP3    H150909   1.954   2.229  11.994  0.7412  0.0142 -0.6161
 9806TIP3    H250910   2.095   2.228  12.049  0.7320 -0.5848 -0.6024
 9807TIP3   OH250911   2.840   1.136  12.217 -0.1111 -0.2725  0.2481
 9807TIP3    H150912   2.876   1.063  12.167 -2.4116 -0.0527 -1.9359
 9807TIP3    H250913   2.816   1.098  12.302  2.5268 -0.9987  0.7446
 9808TIP3   OH250914   4.272   4.999  12.226 -0.2292  0.0835 -0.1107
 9808TIP3    H150915   4.207   5.059  12.264 -0.4207  0.7158 -1.3888
 9808TIP3    H250916   4.297   5.040  12.143 -0.9479 -1.9604 -1.4175
 9809TIP3   OH250917   1.676   5.348  14.506  0.0005  0.1299 -0.0892
 9809TIP3    H150918   1.711   5.340  14.417  2.5217  3.1590  0.4189
 9809TIP3    H250919   1.622   5.427  14.504  0.3504  0.4287  1.1188
 9810TIP3   OH250920   3.301   4.695  14.098 -0.1650 -0.2572  0.5582
 9810TIP3    H150921   3.286   4.743  14.017  1.7097 -0.4176  0.0644
 9810TIP3    H250922   3.364   4.627  14.074 -1.2195 -1.7038  1.6938
 9811TIP3   OH250923   2.627   2.456   0.099  0.2055 -0.2439 -0.4965
 9811TIP3    H150924   2.654   2.420   0.014  1.0445 -0.8018 -0.0116
 9811TIP3    H250925   2.572   2.387   0.138 -0.1839  0.0133 -0.5854
 9812TIP3   OH250926   0.601   3.271   3.685  0.0848 -0.0857  0.1670
 9812TIP3    H150927   0.627   3.278   3.777  0.2331  2.2442  0.0201
 9812TIP3    H250928   0.543   3.346   3.671 -1.6376 -1.5834 -1.1318
 9813TIP3   OH250929   2.076   3.766  11.703 -0.1942  0.3853 -0.2569
 9813TIP3    H150930   2.126   3.752  11.623  0.6434  1.0517  0.1346
 9813TIP3    H250931   2.031   3.849  11.689  1.6974  1.6572  0.7887
 9814TIP3   OH250932   0.479   6.804   0.675  0.2050  0.2767  0.0292
 9814TIP3    H150933   0.553   6.754   0.710 -0.9149 -0.7978  0.9528
 9814TIP3    H250934   0.519   6.869   0.618  1.9170  0.2065  1.0866
 9815TIP3   OH250935   3.338   1.977   5.429 -0.3728 -0.5665  0.3345
 9815TIP3    H150936   3.329   1.907   5.493 -0.8758 -0.5805  0.2526
 9815TIP3    H250937   3.390   1.939   5.358 -0.5783 -0.8329  0.3254
 9816TIP3   OH250938   6.325   5.536   3.486  0.2120  0.2040  0.5465
 9816TIP3    H150939   6.270   5.521   3.563  0.4355  0.8934  0.8489
 9816TIP3    H250940   6.306   5.626   3.461 -0.4492 -0.2666 -0.6917
 9817TIP3   OH250941   4.711   5.161   2.571 -0.0489 -0.1788  0.5803
 9817TIP3    H150942   4.684   5.077   2.534 -0.3051 -0.0884  0.5562
 9817TIP3    H250943   4.725   5.217   2.494 -1.4359  0.2712  0.6184
 9818TIP3   OH250944   5.734   6.557  11.855  0.3443  0.1959 -0.0530
 9818TIP3    H150945   5.733   6.642  11.812 -0.5237  0.5507  0.6337
 9818TIP3    H250946   5.664   6.508  11.812  0.3068  0.1142  0.0995
 9819TIP3   OH250947   1.813   4.171   3.031 -0.2930 -0.0212  0.2473
 9819TIP3    H150948   1.779   4.223   2.958  2.1008  0.0381 -0.9162
 9819TIP3    H250949   1.812   4.081   2.999 -0.7681 -0.2197  0.7947
 9820TIP3   OH250950   2.958   0.786  11.484 -0.2911 -0.4259  0.1025
 9820TIP3    H150951   3.020   0.811  11.415  0.0573 -0.3277  0.4510
 9820TIP3    H250952   2.877   0.767  11.437  0.5441 -2.5456 -0.5807
 9821TIP3   OH250953   1.272   3.807  14.350 -0.1894  0.4715 -0.5271
 9821TIP3    H150954   1.240   3.805  14.260 -0.0949 -0.6326 -0.5458
 9821TIP3    H250955   1.231   3.884  14.389 -2.1528 -0.3914 -0.8071
 9822TIP3   OH250956   4.631   4.774   0.542  0.6728 -0.5143  0.1675
 9822TIP3    H150957   4.671   4.692   0.570 -0.9076 -1.5406 -0.4738
 9822TIP3    H250958   4.541   4.770   0.575  0.6546  1.1187  0.4109
 9823TIP3   OH250959   4.547   0.038  15.189 -0.2711 -0.0500 -0.0586
 9823TIP3    H150960   4.557  -0.007  15.105  0.4711  1.3774 -0.7663
 9823TIP3    H250961   4.454   0.061  15.193 -0.2731  0.0408 -0.5791
 9824TIP3   OH250962   4.402   4.024   4.060 -0.1681 -0.3476 -0.2513
 9824TIP3    H150963   4.426   3.953   4.002  0.5827  0.5755 -1.0889
 9824TIP3    H250964   4.484   4.053   4.100 -0.3590  0.5061 -0.4508
 9825TIP3   OH250965   4.838   3.678  12.631 -0.2569 -0.0380 -0.0414
 9825TIP3    H150966   4.870   3.657  12.544  0.3235 -0.5948  0.3017
 9825TIP3    H250967   4.784   3.757  12.619  0.0178  0.0270 -0.8566
 9826TIP3   OH250968   0.011   0.050  12.860 -0.5058 -0.1670  0.3840
 9826TIP3    H150969   0.095   0.031  12.819  0.0384 -0.6560  1.6716
 9826TIP3    H250970   0.033   0.087  12.946 -1.6028  1.8218 -0.1330
 9827TIP3   OH250971   3.100   4.381   4.752 -0.0974 -0.0057 -1.0927
 9827TIP3    H150972   3.088   4.372   4.658  0.5457  1.0519 -1.2939
 9827TIP3    H250973   3.020   4.425   4.782  0.3304  1.0185 -1.3961
 9828TIP3   OH250974   5.594   5.651   2.338  0.3904  0.0884  0.4356
 9828TIP3    H150975   5.531   5.594   2.382  0.7315 -0.5556  0.1003
 9828TIP3    H250976   5.670   5.653   2.396  0.1356  0.7226  0.7547
 9829TIP3   OH250977   6.113   4.092   0.292 -0.0860  0.3515  0.0106
 9829TIP3    H150978   6.158   4.176   0.290  2.8227 -1.0825 -0.2629
 9829TIP3    H250979   6.134   4.051   0.209  0.3772 -1.4933  0.9718
 9830TIP3   OH250980   0.363   2.240  13.307  0.0754 -0.3495  0.2876
 9830TIP3    H150981   0.291   2.278  13.358  1.3697  1.1784  1.0659
 9830TIP3    H250982   0.400   2.173  13.364  1.0704  0.8711  1.1315
 9831TIP3   OH250983   5.231   5.200  16.817  0.2325 -0.3201  0.1920
 9831TIP3    H150984   5.191   5.147  16.886  2.4949  0.3484  2.1628
 9831TIP3    H250985   5.284   5.137  16.767 -0.8590 -0.6849 -0.5344
 9832TIP3   OH250986   6.576   1.880   1.366  0.4403 -0.6991 -0.7959
 9832TIP3    H150987   6.574   1.976   1.366  1.1559 -0.6548  0.3716
 9832TIP3    H250988   6.491   1.853   1.332 -1.0360  0.3888  1.7702
 9833TIP3   OH250989   0.055   1.696  14.608 -0.2442 -0.3092 -0.2797
 9833TIP3    H150990   0.055   1.624  14.670  0.6102  1.8302  2.4101
 9833TIP3    H250991  -0.029   1.741  14.624 -0.0881  0.1745 -0.7866
 9834TIP3   OH250992   6.307   3.167  13.727  0.1301 -0.5591  0.2232
 9834TIP3    H150993   6.258   3.211  13.657 -2.0709 -0.4588  1.7294
 9834TIP3    H250994   6.256   3.088  13.746  1.5377 -1.3917  0.6995
 9835TIP3   OH250995   6.823   1.389   0.616  0.2416  0.4115 -0.2919
 9835TIP3    H150996   6.795   1.327   0.548 -1.3856  0.6513  0.1217
 9835TIP3    H250997   6.782   1.472   0.590 -0.3468  0.5205  0.9263
 9836TIP3   OH250998   2.601   1.769  11.559 -0.4335  0.0748 -0.2245
 9836TIP3    H150999   2.510   1.741  11.554 -0.3639 -0.3479  0.7376
 9836TIP3    H251000   2.651   1.688  11.569 -0.0159  0.3600  0.0445
 9837TIP3   OH251001   2.281   4.900  14.306 -0.4370 -0.4132  0.4851
 9837TIP3    H151002   2.261   4.879  14.397 -4.3484  1.7375  0.3627
 9837TIP3    H251003   2.309   4.991  14.308 -0.7675 -0.2781 -0.4802
 9838TIP3   OH251004   5.135   1.012  13.120  0.5799  0.5957  0.2680
 9838TIP3    H151005   5.170   0.976  13.201 -1.7799 -1.7548  0.3689
 9838TIP3    H251006   5.043   1.029  13.138 -0.5858 -1.9991 -2.3942
 9839TIP3   OH251007   6.474   3.707  16.224 -0.1568  0.0754  0.5237
 9839TIP3    H151008   6.506   3.618  16.240  3.8151  1.4071  0.9774
 9839TIP3    H251009   6.524   3.737  16.149 -2.3203  1.6017 -0.3955
 9840TIP3   OH251010   5.517   5.918   2.935  0.1166 -0.3639  0.3339
 9840TIP3    H151011   5.444   5.976   2.958  0.5177  1.3928 -2.4013
 9840TIP3    H251012   5.595   5.966   2.963  0.4438  0.4876 -1.8183
 9841TIP3   OH251013   1.045   2.044   2.112  0.7151 -0.1183 -0.1973
 9841TIP3    H151014   1.042   2.139   2.124 -0.8309 -0.0556 -0.8253
 9841TIP3    H251015   1.102   2.013   2.183 -0.3960  1.1025  1.3152
 9842TIP3   OH251016   6.381   6.047   4.360 -0.1654 -1.2429  0.3297
 9842TIP3    H151017   6.450   5.988   4.329 -0.1793 -3.2164  3.5659
 9842TIP3    H251018   6.301   6.014   4.319  0.2751 -1.3529 -0.4620
 9843TIP3   OH251019   4.410   2.484  10.966 -0.4009  0.6557  0.1546
 9843TIP3    H151020   4.325   2.511  10.931 -0.2109  0.6742 -0.2904
 9843TIP3    H251021   4.426   2.545  11.038 -0.5205  0.9883 -0.0984
 9844TIP3   OH251022   2.804   2.408   0.333 -0.1634 -0.4153  0.0250
 9844TIP3    H151023   2.723   2.446   0.298 -1.2617 -1.2416  1.5568
 9844TIP3    H251024   2.854   2.383   0.255 -1.8738 -0.8695 -0.9828
 9845TIP3   OH251025   3.689   0.966   5.121 -0.1049 -0.3637  0.1874
 9845TIP3    H151026   3.683   0.922   5.205  1.6576 -0.0524  0.5285
 9845TIP3    H251027   3.761   1.029   5.132  0.2300 -0.3809 -1.5669
 9846TIP3   OH251028   0.032   1.189  16.926  0.6079  0.1093  0.6911
 9846TIP3    H151029  -0.013   1.203  17.009 -3.6555 -0.5028 -1.2535
 9846TIP3    H251030  -0.004   1.256  16.868  2.8482  0.0028 -0.9705
 9847TIP3   OH251031   5.464   2.495   0.559  0.0347 -0.1568  0.2025
 9847TIP3    H151032   5.385   2.476   0.508  0.4818  0.2436 -0.6603
 9847TIP3    H251033   5.437   2.565   0.619  0.0581  0.9174 -0.9990
 9848TIP3   OH251034   5.643   2.412  12.546  0.3548 -0.2885 -0.1579
 9848TIP3    H151035   5.716   2.417  12.608  0.4606 -1.5430 -0.1646
 9848TIP3    H251036   5.568   2.443  12.596  1.1716  3.0275 -0.7407
 9849TIP3   OH251037   0.079   2.840   4.561 -0.1284 -0.3937  0.2688
 9849TIP3    H151038   0.051   2.826   4.471  0.2045 -1.1121  0.2667
 9849TIP3    H251039   0.147   2.774   4.575 -1.9036 -2.0015  1.8531
 9850TIP3   OH251040   0.612   0.629  15.827 -0.2075 -0.4623 -0.2385
 9850TIP3    H151041   0.561   0.707  15.851  0.2806  0.2950 -1.6005
 9850TIP3    H251042   0.665   0.612  15.904 -1.7833 -0.6876  0.8561
 9851TIP3   OH251043   4.038   4.933   1.296  0.2946 -0.4192 -0.1560
 9851TIP3    H151044   4.034   4.927   1.391  0.2943 -0.5397 -0.1630
 9851TIP3    H251045   4.086   5.014   1.278  0.3594 -0.4356 -0.0537
 9852TIP3   OH251046   3.668   3.221  16.766  0.1112  0.8876 -0.5470
 9852TIP3    H151047   3.607   3.207  16.694 -1.2806  1.2312  0.5176
 9852TIP3    H251048   3.682   3.316  16.768 -1.6071  1.1792  0.9314
 9853TIP3   OH251049   2.674   5.102  16.807  0.4143 -0.0214  0.1251
 9853TIP3    H151050   2.735   5.041  16.767 -0.6483 -0.9800 -0.0901
 9853TIP3    H251051   2.702   5.109  16.898  1.0907 -0.1103 -0.0720
 9854TIP3   OH251052   1.217   3.696  12.079 -0.1807 -0.4887  0.4297
 9854TIP3    H151053   1.263   3.733  12.004 -0.6465 -1.7930 -0.5494
 9854TIP3    H251054   1.195   3.771  12.134 -0.5867  0.6278 -1.1842
 9855TIP3   OH251055   5.576   1.660   3.397 -0.7711  0.0177 -0.5916
 9855TIP3    H151056   5.590   1.684   3.489 -1.1564 -0.8513 -0.3009
 9855TIP3    H251057   5.504   1.717   3.369 -1.1627 -0.2351 -0.1264
 9856TIP3   OH251058   1.637   3.985  13.544 -0.1072  0.4208 -0.0416
 9856TIP3    H151059   1.589   3.997  13.462  1.2334  0.9383 -0.7720
 9856TIP3    H251060   1.625   4.067  13.592 -3.1646 -0.8245  1.5741
 9857TIP3   OH251061   5.884   5.593  11.466 -0.3341  0.4409  0.2104
 9857TIP3    H151062   5.845   5.680  11.475 -0.3334  0.3128  1.6626
 9857TIP3    H251063   5.826   5.535  11.516 -1.2384 -0.7257 -2.0078
 9858TIP3   OH251064   5.526   0.635   1.155 -0.2322  0.4996 -0.4211
 9858TIP3    H151065   5.620   0.630   1.141  0.4729  1.3753  2.9701
 9858TIP3    H251066   5.496   0.544   1.148  1.0595  0.0723 -0.6003
 9859TIP3   OH251067   0.341   2.120  15.649 -0.1401  0.2334 -0.0625
 9859TIP3    H151068   0.357   2.110  15.743  0.7971  0.2202 -0.2105
 9859TIP3    H251069   0.416   2.171  15.618  0.3578 -1.0555 -1.0632
 9860TIP3   OH251070   0.188   6.112   1.585 -0.1293  0.0596  0.2079
 9860TIP3    H151071   0.140   6.174   1.530 -0.4539 -0.1526  0.2504
 9860TIP3    H251072   0.148   6.121   1.672  0.1616  0.1557  0.3328
 9861TIP3   OH251073   3.257   3.017   1.436  0.4701  0.5274 -0.1218
 9861TIP3    H151074   3.344   3.033   1.401  0.3509 -0.7654 -1.0515
 9861TIP3    H251075   3.199   3.071   1.383  0.7122  1.6204  0.6906
 9862TIP3   OH251076   2.020   5.584   4.745 -0.4023 -0.7738 -0.1984
 9862TIP3    H151077   1.950   5.591   4.810 -0.5795 -2.4229 -0.1805
 9862TIP3    H251078   2.101   5.595   4.796 -0.5977  1.1743 -0.2253
 9863TIP3   OH251079   5.199   6.437  10.909  0.2634  0.1190  0.4831
 9863TIP3    H151080   5.268   6.496  10.939 -0.3574  1.3365 -0.4111
 9863TIP3    H251081   5.196   6.449  10.814 -1.2566  0.1873  0.5122
 9864TIP3   OH251082   1.565   3.341   0.999  0.6497 -0.0461  0.0273
 9864TIP3    H151083   1.494   3.344   0.935  0.6634  0.2251  0.0244
 9864TIP3    H251084   1.624   3.274   0.966 -0.0599 -0.9211  0.5040
 9865TIP3   OH251085   3.982   1.427   1.446  0.6737 -0.5234  0.5817
 9865TIP3    H151086   3.898   1.463   1.415  0.9394 -1.2828 -1.1653
 9865TIP3    H251087   3.956   1.360   1.509  0.0117 -0.0328  0.8504
 9866TIP3   OH251088   4.832   6.792  14.703  0.4154 -0.0287  0.4704
 9866TIP3    H151089   4.899   6.727  14.720  1.5405  1.0469  0.2713
 9866TIP3    H251090   4.880   6.870  14.676 -0.9616  0.4844 -0.6147
 9867TIP3   OH251091   3.735   5.431   1.725  0.2363 -0.0667  0.8305
 9867TIP3    H151092   3.664   5.422   1.789 -0.3731  1.1492  0.3413
 9867TIP3    H251093   3.814   5.437   1.778 -0.2323  0.6384  1.4606
 9868TIP3   OH251094   6.437   5.494  16.584 -0.7689 -0.0134  0.1512
 9868TIP3    H151095   6.388   5.482  16.665 -3.4768  1.0401 -1.1973
 9868TIP3    H251096   6.381   5.456  16.516  0.0502  1.6405 -1.5587
 9869TIP3   OH251097   6.403   2.070   4.221  0.0528  0.2865  0.7649
 9869TIP3    H151098   6.331   2.132   4.210  0.2271  0.3541 -0.0611
 9869TIP3    H251099   6.481   2.118   4.192 -0.0216 -0.8042 -1.4144
 9870TIP3   OH251100   0.455   4.614  16.388  0.0855  0.5338  0.3570
 9870TIP3    H151101   0.460   4.649  16.477  0.8686 -1.8160  1.3297
 9870TIP3    H251102   0.546   4.590  16.368 -0.1762  0.5373 -0.8644
 9871TIP3   OH251103   5.002   0.606   1.052  0.3902  0.1410 -0.0102
 9871TIP3    H151104   4.953   0.559   1.120 -1.8106  2.2141 -0.0713
 9871TIP3    H251105   5.089   0.620   1.091  0.1065 -1.2255  1.1931
 9872TIP3   OH251106   2.975   4.777   3.750 -0.0149  0.1408  0.1255
 9872TIP3    H151107   2.961   4.727   3.670 -0.2315 -1.4888  1.1302
 9872TIP3    H251108   2.919   4.854   3.741 -1.2803 -0.8292 -0.6016
 9873TIP3   OH251109   0.135   1.747  14.052  0.5608 -0.0110  0.4202
 9873TIP3    H151110   0.045   1.772  14.030  0.1706 -2.8938 -1.8751
 9873TIP3    H251111   0.127   1.698  14.134 -0.4142 -2.1818 -0.8919
 9874TIP3   OH251112   5.586   0.491  13.552 -0.2434 -0.0307 -0.1405
 9874TIP3    H151113   5.554   0.462  13.467  0.9213  0.5221 -0.7950
 9874TIP3    H251114   5.668   0.443  13.565  0.6389  1.3644 -0.3025
 9875TIP3   OH251115   5.353   1.792   4.902 -0.1428  0.0048 -0.4094
 9875TIP3    H151116   5.351   1.708   4.855 -0.1865  0.7418 -1.7854
 9875TIP3    H251117   5.410   1.848   4.848 -1.7010  1.4724 -0.6218
 9876TIP3   OH251118   5.197   6.412  12.421  0.0695 -0.2226 -0.5845
 9876TIP3    H151119   5.113   6.380  12.388 -0.0675  0.2516 -0.6949
 9876TIP3    H251120   5.253   6.416  12.344 -0.5925  2.0156 -1.0171
 9877TIP3   OH251121   1.525   5.008  13.976 -0.0704  0.2143 -0.6953
 9877TIP3    H151122   1.535   5.028  14.069  1.3022  1.1422 -1.0114
 9877TIP3    H251123   1.473   5.079  13.940  1.0086  0.8953 -0.9690
 9878TIP3   OH251124   3.586   0.268  15.445  0.3999 -0.6258  0.6409
 9878TIP3    H151125   3.662   0.291  15.497  1.0706  0.8094 -0.9042
 9878TIP3    H251126   3.578   0.173  15.455  2.9744 -0.9709  0.1109
 9879TIP3   OH251127   0.549   3.409   2.174 -0.1642  0.2021 -0.1271
 9879TIP3    H151128   0.611   3.473   2.139  0.7141 -0.7008 -0.2858
 9879TIP3    H251129   0.517   3.447   2.255 -1.4403  1.8769 -1.3545
 9880TIP3   OH251130   2.313   3.564   1.233 -0.4033  0.5986  0.1620
 9880TIP3    H151131   2.247   3.506   1.272 -0.6176  0.6824 -0.0682
 9880TIP3    H251132   2.302   3.553   1.138  1.4124 -1.0488  0.0986
 9881TIP3   OH251133   4.169   5.333   5.247 -0.8874  0.4755  0.4739
 9881TIP3    H151134   4.260   5.336   5.278 -1.1188 -1.1318  1.4327
 9881TIP3    H251135   4.169   5.266   5.178 -1.5442 -0.4665  1.3495
 9882TIP3   OH251136   3.786   5.246  14.584 -0.4030 -0.3525  0.3739
 9882TIP3    H151137   3.724   5.196  14.532 -0.0844  0.8924 -1.2852
 9882TIP3    H251138   3.831   5.181  14.638  0.6161 -2.0049 -2.3050
 9883TIP3   OH251139   6.787   1.528   1.146 -0.3155 -0.1248  0.2419
 9883TIP3    H151140   6.756   1.459   1.205 -1.0114  0.4892  0.6136
 9883TIP3    H251141   6.762   1.498   1.059 -1.0994 -0.0917  0.4498
 9884TIP3   OH251142   2.504   3.404  16.594 -0.0133 -0.0654 -0.2274
 9884TIP3    H151143   2.495   3.334  16.659  0.7400 -0.5649 -0.6457
 9884TIP3    H251144   2.422   3.400  16.544  0.4244 -1.3496 -0.9005
 9885TIP3   OH251145   3.542   1.727   1.153 -0.5384 -0.2847 -0.2142
 9885TIP3    H151146   3.602   1.685   1.091 -0.4849  1.8056 -1.7120
 9885TIP3    H251147   3.574   1.817   1.158 -2.3365  0.3389  0.5760
 9886TIP3   OH251148   2.391   4.248  10.905  0.3559  0.5850 -0.1207
 9886TIP3    H151149   2.355   4.216  10.822 -3.4158  0.9006  1.2217
 9886TIP3    H251150   2.439   4.173  10.940 -0.5112 -0.5487 -1.2415
 9887TIP3   OH251151   0.764   5.619  13.144 -0.1831 -0.5620 -0.0472
 9887TIP3    H151152   0.740   5.618  13.052 -1.8533 -0.5245  0.3573
 9887TIP3    H251153   0.835   5.684  13.150 -0.1919 -0.4306 -1.2562
 9888TIP3   OH251154   2.633   3.841  12.689  0.1801 -0.4829  0.5026
 9888TIP3    H151155   2.643   3.863  12.782  0.9512 -1.3042  0.6305
 9888TIP3    H251156   2.555   3.785  12.686  0.3405 -0.7228  0.7107
 9889TIP3   OH251157   1.481   4.634  15.409 -0.3290  0.5561 -0.1789
 9889TIP3    H151158   1.479   4.729  15.423 -0.2797  0.6500 -0.7672
 9889TIP3    H251159   1.412   4.599  15.465 -0.4642  0.9592 -0.0943
 9890TIP3   OH251160   4.161   1.369  10.998  0.1758 -0.1916 -0.1732
 9890TIP3    H151161   4.111   1.397  10.922 -0.3572 -0.6532  0.0009
 9890TIP3    H251162   4.193   1.282  10.976 -2.5750 -1.6936  1.2755
 9891TIP3   OH251163   3.278   5.281  16.735  0.3322  0.0174  0.2029
 9891TIP3    H151164   3.264   5.251  16.825  0.6863  1.0356  0.6100
 9891TIP3    H251165   3.203   5.247  16.687 -0.8943  1.0977  1.2827
 9892TIP3   OH251166   0.345   1.044  12.995  0.1445 -0.6161 -0.2286
 9892TIP3    H151167   0.298   1.030  12.912 -0.2377  1.2557 -0.3641
 9892TIP3    H251168   0.437   1.039  12.971  0.0856 -2.7569 -0.2391
 9893TIP3   OH251169   5.444   1.080  17.175 -0.5421  0.2657  0.2860
 9893TIP3    H151170   5.472   0.996  17.211 -0.7453  0.5499  1.1144
 9893TIP3    H251171   5.452   1.141  17.247  3.0958  1.8006 -1.1692
 9894TIP3   OH251172   5.953   3.229  13.356 -0.7422 -0.1922  0.0438
 9894TIP3    H151173   5.957   3.266  13.268  1.0469  1.7335  0.8486
 9894TIP3    H251174   5.927   3.138  13.342 -0.8137  0.1308 -2.4339
 9895TIP3   OH251175   6.037   6.048   0.614  0.2814  0.2096  0.1129
 9895TIP3    H151176   6.045   6.125   0.671 -0.3089  0.1062  0.3434
 9895TIP3    H251177   5.950   6.014   0.632  0.2496 -0.0740 -0.5500
 9896TIP3   OH251178   5.861   5.993  14.980  0.1159  0.2178 -0.2502
 9896TIP3    H151179   5.887   6.068  15.033  0.4935  0.5615 -0.9124
 9896TIP3    H251180   5.822   6.031  14.901  0.2075 -0.2776 -0.5397
 9897TIP3   OH251181   1.483   6.373   6.425  0.1774 -0.1343 -0.1916
 9897TIP3    H151182   1.474   6.346   6.334 -1.2967  1.2618 -0.4964
 9897TIP3    H251183   1.401   6.347   6.466 -0.2734  1.6021  0.0796
 9898TIP3   OH251184   2.534   3.021   0.652  0.1678 -0.1004 -0.0505
 9898TIP3    H151185   2.577   2.969   0.720  0.7270  1.5770  0.9351
 9898TIP3    H251186   2.512   2.958   0.583  2.3363 -1.3503  0.3325
 9899TIP3   OH251187   2.550   3.896   5.080 -0.0466 -0.1840 -0.1724
 9899TIP3    H151188   2.619   3.963   5.074  0.1496  0.0754  3.0995
 9899TIP3    H251189   2.470   3.946   5.100 -0.0743 -0.7829  1.3756
 9900TIP3   OH251190   2.297   3.883   6.153  0.5191 -0.5111 -0.3414
 9900TIP3    H151191   2.391   3.889   6.167  0.1063  0.3338  2.8363
 9900TIP3    H251192   2.272   3.970   6.120  0.9186 -1.0840 -2.2974
 9901TIP3   OH251193   6.517   1.728   4.650  0.1274 -0.0362  0.0051
 9901TIP3    H151194   6.575   1.653   4.659  1.8758  1.1252 -1.1197
 9901TIP3    H251195   6.485   1.722   4.560  0.1696  0.4988 -0.0447
 9902TIP3   OH251196   2.882   2.341  16.422 -0.4785 -0.2507  0.0793
 9902TIP3    H151197   2.962   2.388  16.444 -0.9680  0.6028  0.0798
 9902TIP3    H251198   2.812   2.393  16.459 -1.1184 -0.3654 -0.9152
 9903TIP3   OH251199   2.685   0.539   1.340  0.3922  0.5426 -0.2475
 9903TIP3    H151200   2.770   0.535   1.384  0.6020  3.1070 -0.3136
 9903TIP3    H251201   2.707   0.526   1.247  0.7904  1.6132 -0.3154
 9904TIP3   OH251202   3.983   3.728   3.581  0.6242  0.1109 -0.5528
 9904TIP3    H151203   3.937   3.764   3.656  1.4997 -0.0045  0.0496
 9904TIP3    H251204   4.004   3.805   3.527  1.0543  0.3198 -0.0861
 9905TIP3   OH251205   3.834   4.912  13.206 -0.0168  0.6388  0.5700
 9905TIP3    H151206   3.890   4.956  13.142 -0.2434  2.0460  1.2834
 9905TIP3    H251207   3.799   4.836  13.160 -1.1244  2.2486 -1.3963
 9906TIP3   OH251208   5.761   4.650   5.229  0.2831  0.0841  0.7366
 9906TIP3    H151209   5.801   4.666   5.144  1.8689  1.2260  1.6375
 9906TIP3    H251210   5.835   4.644   5.289 -0.7766 -1.1873  1.9803
 9907TIP3   OH251211   0.113   4.956   2.192 -0.4361  0.7028 -0.2858
 9907TIP3    H151212   0.092   4.932   2.102 -0.5052 -0.0753 -0.0759
 9907TIP3    H251213   0.205   4.931   2.202 -0.9197 -0.9382  0.3887
 9908TIP3   OH251214   6.436   6.435  12.316  0.0629 -0.1774  0.4734
 9908TIP3    H151215   6.368   6.497  12.289  0.5647  1.1244  2.0095
 9908TIP3    H251216   6.513   6.489  12.332  0.6303 -1.2336  1.5263
 9909TIP3   OH251217   2.701   0.168  15.454  0.0476  0.0237  0.7529
 9909TIP3    H151218   2.791   0.168  15.421 -0.2887 -0.4334 -0.2372
 9909TIP3    H251219   2.688   0.078  15.485 -0.0236  0.1252  1.0134
 9910TIP3   OH251220   1.287   1.647   0.613  1.1070 -0.4285  0.2826
 9910TIP3    H151221   1.296   1.628   0.707  0.3472 -0.8865  0.2722
 9910TIP3    H251222   1.200   1.687   0.606  2.1752  1.9883  0.1277
 9911TIP3   OH251223   5.848   3.198   0.903 -0.5112 -0.3715 -0.6059
 9911TIP3    H151224   5.810   3.197   0.815 -2.1644 -0.5051  0.0667
 9911TIP3    H251225   5.854   3.291   0.925 -1.1987 -0.3617 -0.4301
 9912TIP3   OH251226   1.160   0.331   0.859 -0.2569 -0.3531  0.2046
 9912TIP3    H151227   1.163   0.236   0.849  0.0409 -0.5093  1.6506
 9912TIP3    H251228   1.252   0.358   0.864 -0.3248  0.0817 -0.7194
 9913TIP3   OH251229   6.651   1.264  11.037 -0.8240  0.1878 -0.7912
 9913TIP3    H151230   6.702   1.338  11.003  2.0134 -1.6826 -0.9163
 9913TIP3    H251231   6.606   1.229  10.960 -1.4415  1.1691 -0.9006
 9914TIP3   OH251232   6.371   6.581  11.291  0.7523 -0.1291  0.3150
 9914TIP3    H151233   6.300   6.543  11.341  0.0771 -0.2153 -0.6866
 9914TIP3    H251234   6.359   6.676  11.301 -0.0128 -0.1268 -0.5291
 9915TIP3   OH251235   3.798   6.209  13.095 -0.4391 -0.2723 -0.0454
 9915TIP3    H151236   3.859   6.280  13.078  0.2667 -0.3094  1.9941
 9915TIP3    H251237   3.711   6.248  13.087 -0.0595  0.7818  0.8454
 9916TIP3   OH251238   6.246   2.729  15.656 -0.4909 -0.2082  0.3417
 9916TIP3    H151239   6.204   2.692  15.734 -1.1023  0.2082  0.2210
 9916TIP3    H251240   6.257   2.822  15.676  1.4564 -0.5003  0.8194
 9917TIP3   OH251241   6.502   2.759  13.475 -0.3593  0.2125 -0.2376
 9917TIP3    H151242   6.448   2.692  13.517  0.1660 -0.9530 -1.3489
 9917TIP3    H251243   6.515   2.727  13.386  0.0340  1.7392 -0.7601
 9918TIP3   OH251244   4.356   2.025   2.652  0.3782  0.1222  0.1783
 9918TIP3    H151245   4.396   2.078   2.583  2.2285  0.7965  1.7031
 9918TIP3    H251246   4.292   2.083   2.694 -1.1795 -0.4680 -1.2536
 9919TIP3   OH251247   4.438   2.288  16.730  0.1847  0.2155  0.3728
 9919TIP3    H151248   4.365   2.331  16.684  1.1728  2.0790  0.4575
 9919TIP3    H251249   4.509   2.352  16.727  0.6457  0.0014  3.5666
 9920TIP3   OH251250   0.027   0.520  15.361  0.2545  0.6582  0.0567
 9920TIP3    H151251  -0.046   0.512  15.423 -0.3205 -2.8419 -0.8798
 9920TIP3    H251252   0.009   0.600  15.313 -2.2758  0.5732  0.7337
 9921TIP3   OH251253   6.685   5.191   1.739  0.0266 -0.1336 -0.0862
 9921TIP3    H151254   6.765   5.180   1.688  1.2247 -0.4567  1.7810
 9921TIP3    H251255   6.691   5.125   1.808 -1.6176  0.1690  0.3900
 9922TIP3   OH251256   2.157   3.335  12.205 -0.0320  0.1440 -0.8235
 9922TIP3    H151257   2.105   3.336  12.286 -0.7145 -0.1423 -1.2516
 9922TIP3    H251258   2.181   3.244  12.193  0.3623  0.2403 -0.7577
 9923TIP3   OH251259   6.689   1.885   2.677 -0.0254 -0.5258  0.8295
 9923TIP3    H151260   6.723   1.840   2.754  0.2737 -0.5364  0.6940
 9923TIP3    H251261   6.690   1.978   2.701 -0.1743 -0.5508  0.9313
 9924TIP3   OH251262   1.083   2.143   5.348 -0.1660  0.2709  0.7103
 9924TIP3    H151263   1.087   2.099   5.433  0.3085  0.3252  0.7185
 9924TIP3    H251264   1.168   2.188   5.340 -1.0333  2.0953  1.1963
 9925TIP3   OH251265   3.885   5.489  14.595 -0.3005  0.2683  0.2556
 9925TIP3    H151266   3.813   5.551  14.581 -1.2708 -0.6279  1.1660
 9925TIP3    H251267   3.842   5.405  14.608  0.9572 -0.4202  0.0948
 9926TIP3   OH251268   2.385   6.812   5.981  0.0524 -0.5146 -0.9446
 9926TIP3    H151269   2.361   6.796   6.072  2.3297 -1.2347 -0.4198
 9926TIP3    H251270   2.415   6.903   5.980  1.9671 -1.1069 -0.4858
 9927TIP3   OH251271   5.752   4.612  13.266 -0.0601 -0.2774 -0.3311
 9927TIP3    H151272   5.778   4.557  13.193 -0.8002  0.0817 -0.8838
 9927TIP3    H251273   5.800   4.577  13.341 -0.4213 -1.5881 -0.6849
 9928TIP3   OH251274   5.587   2.162  16.565  0.4701 -0.8564 -0.0990
 9928TIP3    H151275   5.621   2.213  16.638 -1.1143 -0.1446  0.1920
 9928TIP3    H251276   5.642   2.185  16.490  0.4502  0.4692  0.2837
 9929TIP3   OH251277   4.638   1.914  14.670  0.2572  0.0309 -0.3047
 9929TIP3    H151278   4.716   1.947  14.627 -1.4652  1.9208 -2.2535
 9929TIP3    H251279   4.596   1.992  14.706 -2.0879 -0.4126 -1.8013
 9930TIP3   OH251280   0.025   1.907   1.638 -0.2511  0.1677  0.0286
 9930TIP3    H151281   0.003   1.824   1.594  1.1030 -0.7502  1.0040
 9930TIP3    H251282   0.100   1.885   1.694  0.8873  2.3184 -0.5439
 9931TIP3   OH251283   4.280   0.606   3.128  0.1285 -0.2203  0.0431
 9931TIP3    H151284   4.257   0.557   3.048  0.2476 -1.3294  0.6604
 9931TIP3    H251285   4.366   0.573   3.152  0.7811  1.2302 -0.2005
 9932TIP3   OH251286   3.943   3.870   6.219 -0.0865 -0.3870  0.4909
 9932TIP3    H151287   3.852   3.849   6.201  0.1244 -0.4411 -0.5974
 9932TIP3    H251288   3.956   3.957   6.180  0.6698 -0.9646 -0.6081
 9933TIP3   OH251289   4.750   2.007  17.006 -0.0669 -0.1395  0.3090
 9933TIP3    H151290   4.820   1.987  17.067 -0.0807  0.2748  0.4619
 9933TIP3    H251291   4.704   2.082  17.045 -2.1346 -1.8945  1.5019
 9934TIP3   OH251292   4.669   5.948  16.624 -0.3644  0.1050  0.1971
 9934TIP3    H151293   4.659   5.883  16.554  1.0481 -0.4725  0.4955
 9934TIP3    H251294   4.613   6.021  16.597 -0.3198 -0.3582 -1.2385
 9935TIP3   OH251295   0.899   6.085   0.712  0.3759 -0.2927 -0.2366
 9935TIP3    H151296   0.914   5.999   0.672  1.8754 -0.1870  0.0726
 9935TIP3    H251297   0.804   6.089   0.722  0.3197 -2.3970  0.7950
 9936TIP3   OH251298   4.295   6.263   4.333 -0.1187  0.0506 -0.0485
 9936TIP3    H151299   4.319   6.180   4.375 -2.3962 -1.2459 -1.1526
 9936TIP3    H251300   4.361   6.275   4.265 -0.3479 -1.4302 -0.5600
 9937TIP3   OH251301   4.783   1.963   1.316  0.1154  0.1843 -0.2438
 9937TIP3    H151302   4.782   2.047   1.270 -2.2825  0.3077 -0.0773
 9937TIP3    H251303   4.824   1.903   1.254  2.0801  1.4704 -0.2827
 9938TIP3   OH251304   5.249   6.615   1.126 -0.5348 -0.1770  0.3122
 9938TIP3    H151305   5.303   6.679   1.172  0.2983 -1.1086  0.6665
 9938TIP3    H251306   5.194   6.577   1.195 -2.4018  1.4603 -0.1980
 9939TIP3   OH251307   0.058   3.306  12.785 -0.7415 -0.0800 -0.4949
 9939TIP3    H151308   0.084   3.393  12.816 -1.6464  0.0330 -0.0370
 9939TIP3    H251309  -0.028   3.319  12.746 -0.8275 -0.7492 -0.5272
 9940TIP3   OH251310   0.049   0.568   1.004  0.1750 -0.0768  0.0855
 9940TIP3    H151311   0.029   0.482   1.042 -0.7600  0.1221  0.0579
 9940TIP3    H251312   0.127   0.597   1.050 -0.6640 -0.0535  1.5375
 9941TIP3   OH251313   4.400   1.071  12.114  0.0072 -0.1394 -0.0658
 9941TIP3    H151314   4.431   0.991  12.073 -0.3410  0.3552 -1.3300
 9941TIP3    H251315   4.389   1.133  12.042  1.1519  1.3581  0.9797
 9942TIP3   OH251316   2.579   1.052  10.701  0.2711 -0.2727 -0.3684
 9942TIP3    H151317   2.577   1.071  10.608  1.8810  2.0001 -0.0242
 9942TIP3    H251318   2.669   1.072  10.728  0.1364 -1.8455  1.5123
 9943TIP3   OH251319   1.421   6.141   3.137  0.9507  0.1129  0.0211
 9943TIP3    H151320   1.471   6.059   3.136  0.1912 -0.4292  1.6541
 9943TIP3    H251321   1.450   6.188   3.059  1.4106 -1.7047 -0.9688
 9944TIP3   OH251322   0.192   5.949  12.425 -0.1985 -0.8125  0.1312
 9944TIP3    H151323   0.195   6.044  12.421  2.4071 -0.8405 -0.8379
 9944TIP3    H251324   0.146   5.929  12.506  0.3692  1.2971  1.0298
 9945TIP3   OH251325   1.949   6.350   1.939  0.2270  0.4747  0.1803
 9945TIP3    H151326   1.905   6.369   1.856  0.0072 -0.7485  0.0017
 9945TIP3    H251327   2.037   6.323   1.914 -0.0374 -0.5183  0.2835
 9946TIP3   OH251328   3.319   5.898  15.109  0.1564  0.0284  0.1691
 9946TIP3    H151329   3.245   5.926  15.055 -1.3474 -1.2248  1.4755
 9946TIP3    H251330   3.391   5.885  15.046 -1.0094  0.3478 -1.2818
 9947TIP3   OH251331   0.051   1.521  16.355 -0.1209 -0.1589  0.0655
 9947TIP3    H151332   0.110   1.455  16.392  0.1726 -0.0426 -0.1838
 9947TIP3    H251333   0.096   1.604  16.370  0.7808 -0.2258 -1.9272
 9948TIP3   OH251334   2.412   4.760  14.090  0.2748  0.4529 -0.2091
 9948TIP3    H151335   2.338   4.699  14.088  1.3702 -0.9211 -0.6689
 9948TIP3    H251336   2.388   4.824  14.157 -1.9296  0.8705 -1.2987
 9949TIP3   OH251337   0.700   5.975  16.674  0.4659 -0.3761  0.2135
 9949TIP3    H151338   0.691   5.959  16.580 -1.0743 -0.0337  0.2690
 9949TIP3    H251339   0.768   6.042  16.681 -0.9271  1.2133 -0.8401
 9950TIP3   OH251340   0.439   2.086   0.673  0.4305 -0.2882  0.6558
 9950TIP3    H151341   0.476   2.094   0.761  2.8288 -1.5372 -0.1571
 9950TIP3    H251342   0.396   2.001   0.673 -2.1375  0.8854  1.3901
 9951TIP3   OH251343   4.029   4.587  15.695 -0.3210 -0.2467  0.1514
 9951TIP3    H151344   3.958   4.649  15.712  0.8282  1.7065 -1.6817
 9951TIP3    H251345   4.066   4.569  15.781 -0.8292  1.5055  0.7837
 9952TIP3   OH251346   2.727   5.527   3.496  1.0046 -0.3607 -0.0925
 9952TIP3    H151347   2.730   5.434   3.474  1.7743 -0.3279 -0.1558
 9952TIP3    H251348   2.817   5.549   3.520  1.0755  0.6256 -1.1778
 9953TIP3   OH251349   4.043   4.548   1.539  0.2230 -0.6282 -0.4509
 9953TIP3    H151350   3.959   4.591   1.525  1.2826  1.2183 -1.4471
 9953TIP3    H251351   4.088   4.602   1.604  2.6464  1.5955 -3.6298
 9954TIP3   OH251352   4.019   1.236   2.377 -0.4643  0.1234  0.1658
 9954TIP3    H151353   4.052   1.307   2.322 -0.8310  1.6275  1.7832
 9954TIP3    H251354   4.004   1.277   2.462  0.5834 -2.2103  1.5791
 9955TIP3   OH251355   1.254   1.551   3.503  0.4103 -0.1796  0.0133
 9955TIP3    H151356   1.326   1.608   3.529  0.1388 -0.4189  1.3963
 9955TIP3    H251357   1.196   1.606   3.452  1.4946  0.0529 -1.0003
 9956TIP3   OH251358   4.838   4.827  14.992  0.0204 -0.0707 -0.4121
 9956TIP3    H151359   4.776   4.869  14.932  0.5067  0.8413 -0.2935
 9956TIP3    H251360   4.920   4.825  14.944  0.7002  1.6665  0.5644
 9957TIP3   OH251361   5.193   2.505   5.817 -0.2954 -0.5135 -0.6830
 9957TIP3    H151362   5.244   2.452   5.879 -0.7152 -0.4511 -0.2846
 9957TIP3    H251363   5.259   2.544   5.760  0.1505 -0.0160  0.1506
 9958TIP3   OH251364   2.963   1.235  12.760 -0.4589  0.0710 -0.2716
 9958TIP3    H151365   2.889   1.281  12.720 -1.4799 -0.7977  0.5749
 9958TIP3    H251366   3.035   1.298  12.754 -1.1754  0.8311 -1.3661
 9959TIP3   OH251367   4.450   2.645  11.190  0.2783 -0.2424  0.3071
 9959TIP3    H151368   4.424   2.636  11.282  0.1930  1.2021  0.4510
 9959TIP3    H251369   4.529   2.698  11.192 -0.2867  0.6615 -0.5079
 9960TIP3   OH251370   3.441   6.543   4.934 -0.1568  0.1684  0.6207
 9960TIP3    H151371   3.523   6.530   4.886  0.1783 -2.2668  1.7088
 9960TIP3    H251372   3.468   6.550   5.026 -1.1388 -0.6253  0.9907
 9961TIP3   OH251373   2.632   3.281   1.695  0.0129 -0.0966  0.1524
 9961TIP3    H151374   2.570   3.288   1.622  1.0448 -0.3184 -0.7645
 9961TIP3    H251375   2.659   3.189   1.694  0.5504  0.0597  0.3706
 9962TIP3   OH251376   1.287   5.190  13.620  0.2839 -0.0733 -0.0308
 9962TIP3    H151377   1.227   5.120  13.648  0.7621  0.2318  1.9416
 9962TIP3    H251378   1.231   5.265  13.604 -0.0421 -0.3149 -0.0314
 9963TIP3   OH251379   1.879   6.023   5.212 -0.5141  0.7992 -0.3084
 9963TIP3    H151380   1.873   5.927   5.217  0.6450  0.6948 -0.7262
 9963TIP3    H251381   1.944   6.040   5.144  0.2098  1.8615  0.6116
 9964TIP3   OH251382   4.982   2.818   2.939  0.3636 -0.3334 -0.2568
 9964TIP3    H151383   5.062   2.822   2.886 -0.3834  1.6293 -1.3542
 9964TIP3    H251384   4.912   2.839   2.877 -0.6120  1.5165  1.3618
 9965TIP3   OH251385   3.350   1.817  16.755 -0.2769  0.2343 -0.0347
 9965TIP3    H151386   3.394   1.794  16.673 -2.2852 -0.0277 -1.1255
 9965TIP3    H251387   3.264   1.850  16.727 -0.7611  0.7793  1.9480
 9966TIP3   OH251388   1.199   5.091   0.388  0.3644  0.6168 -0.1298
 9966TIP3    H151389   1.207   5.101   0.483  1.9244  0.8693 -0.2598
 9966TIP3    H251390   1.185   5.180   0.356  1.4146  0.7508 -0.2482
 9967TIP3   OH251391   4.374   5.649   3.691 -0.0203 -0.1663 -0.4826
 9967TIP3    H151392   4.433   5.666   3.618 -1.6552  2.2029 -1.3724
 9967TIP3    H251393   4.356   5.555   3.686  4.2501 -1.2462  0.4310
 9968TIP3   OH251394   1.093   5.795  10.904  0.2428  0.6560  0.1014
 9968TIP3    H151395   1.164   5.731  10.909  1.0455  1.3415 -1.7398
 9968TIP3    H251396   1.018   5.743  10.873  0.1625  0.1131  1.1586
 9969TIP3   OH251397   6.388   4.179  15.172  0.1009  0.1705 -0.8660
 9969TIP3    H151398   6.430   4.121  15.109 -0.2314  0.3104 -1.2148
 9969TIP3    H251399   6.294   4.164  15.160  0.0395  0.0815 -0.2987
 9970TIP3   OH251400   3.926   0.074   3.433  0.1475  0.0194 -0.6554
 9970TIP3    H151401   4.016   0.042   3.423  0.1881 -0.1672  0.2384
 9970TIP3    H251402   3.872  -0.005   3.434  0.1498  0.0072  0.5172
 9971TIP3   OH251403   0.222   3.764   1.866 -0.3759  0.8735  0.4074
 9971TIP3    H151404   0.250   3.693   1.924 -1.2958 -0.3016 -0.5340
 9971TIP3    H251405   0.211   3.839   1.924  0.5855  0.2514  1.4371
 9972TIP3   OH251406   6.074   1.809   4.722  0.0793  0.7689 -0.3216
 9972TIP3    H151407   6.054   1.772   4.636  0.2940 -0.8431  0.2881
 9972TIP3    H251408   6.169   1.800   4.730 -0.1824 -1.8289  1.1948
 9973TIP3   OH251409   6.736   3.322   0.547  0.4110  0.4746  0.4333
 9973TIP3    H151410   6.815   3.375   0.535  1.2855 -0.8586  0.0638
 9973TIP3    H251411   6.768   3.233   0.557 -1.0931 -0.2309 -0.5704
 9974TIP3   OH251412   2.241   2.932   5.395  0.3836  0.2275  0.0429
 9974TIP3    H151413   2.242   2.839   5.373 -1.8244 -0.0603  0.8917
 9974TIP3    H251414   2.155   2.946   5.434  1.6956  2.0300  2.5650
 9975TIP3   OH251415   1.391   2.464   2.596 -0.4574 -1.2925  0.5039
 9975TIP3    H151416   1.357   2.470   2.685  0.7365 -1.2011  0.9697
 9975TIP3    H251417   1.467   2.522   2.595 -2.5745  1.7865 -1.6574
 9976TIP3   OH251418   3.892   3.300   3.269 -0.1592 -0.0722 -0.5528
 9976TIP3    H151419   3.845   3.307   3.186  0.4609  0.7636 -0.8477
 9976TIP3    H251420   3.945   3.380   3.273  0.3490 -0.4413  0.3152
 9977TIP3   OH251421   1.097   4.285   3.158  0.0467  0.3535  0.7282
 9977TIP3    H151422   1.054   4.199   3.161 -0.8475  0.8070  1.1448
 9977TIP3    H251423   1.190   4.265   3.170  0.0014 -0.6605 -0.4013
 9978TIP3   OH251424   2.392   3.613   6.662  0.1708 -0.0942 -0.3859
 9978TIP3    H151425   2.342   3.532   6.646 -0.2567  0.2260 -0.6916
 9978TIP3    H251426   2.328   3.683   6.655  0.6812  0.3390 -0.9362
 9979TIP3   OH251427   2.814   6.775  11.165  0.0425  0.0364 -0.1464
 9979TIP3    H151428   2.829   6.823  11.247  0.2718  3.5827 -2.1060
 9979TIP3    H251429   2.900   6.738  11.143 -0.1990 -1.7229  1.5206
 9980TIP3   OH251430   0.867   5.524   2.818  0.1477 -0.0076 -0.0147
 9980TIP3    H151431   0.861   5.436   2.782  2.4331 -0.0443 -0.4829
 9980TIP3    H251432   0.946   5.522   2.873 -1.4425  0.9414  2.4822
 9981TIP3   OH251433   2.282   5.987   4.642  0.5911 -0.2391 -0.7863
 9981TIP3    H151434   2.351   5.932   4.605  1.6201 -0.4287  1.2717
 9981TIP3    H251435   2.315   6.076   4.635  0.3638 -0.1816 -1.1620
 9982TIP3   OH251436   0.352   4.111   3.349  0.6162  0.3089  0.6798
 9982TIP3    H151437   0.362   4.203   3.373  0.6771  0.5147 -0.1219
 9982TIP3    H251438   0.439   4.073   3.360  0.8810  0.6415 -0.1934
 9983TIP3   OH251439   6.232   5.006  15.228 -0.1469 -0.3720 -0.3729
 9983TIP3    H151440   6.187   4.975  15.307  0.3714 -1.0557 -0.3352
 9983TIP3    H251441   6.294   4.936  15.207 -1.7267 -1.2153 -2.6155
 9984TIP3   OH251442   0.524   0.876  11.614  0.0663  0.2654  0.0593
 9984TIP3    H151443   0.513   0.950  11.555  0.2578  0.6456  0.4872
 9984TIP3    H251444   0.458   0.890  11.683 -0.1180 -0.1391 -0.0293
 9985TIP3   OH251445   2.177   0.755   2.958 -0.0173 -0.0304 -0.0660
 9985TIP3    H151446   2.098   0.713   2.924  1.1914 -1.6233 -1.0526
 9985TIP3    H251447   2.173   0.739   3.052  0.3976 -2.5199 -0.3964
 9986TIP3   OH251448   4.496   3.635  17.067 -0.5479 -0.0395 -0.0216
 9986TIP3    H151449   4.427   3.678  17.119 -0.6991  0.5668 -0.7029
 9986TIP3    H251450   4.459   3.550  17.045 -0.5699 -0.2178  0.6716
 9987TIP3   OH251451   6.649   5.986  15.156 -0.0897 -0.2692  0.0126
 9987TIP3    H151452   6.583   6.038  15.111  0.0483 -2.0007 -2.3696
 9987TIP3    H251453   6.714   6.050  15.185 -0.5944  1.0394 -1.5803
 9988TIP3   OH251454   0.453   2.671   4.572 -0.7776  0.1032  0.3319
 9988TIP3    H151455   0.406   2.681   4.655  0.0982  0.1610  0.8368
 9988TIP3    H251456   0.391   2.627   4.514 -1.4944  0.2986  0.9336
 9989TIP3   OH251457   4.049   2.435   4.240 -0.2619 -0.5907  0.2038
 9989TIP3    H151458   4.028   2.364   4.180 -0.6230 -2.2366  2.1934
 9989TIP3    H251459   4.138   2.416   4.270 -0.3837 -0.2573  0.8018
 9990TIP3   OH251460   5.114   6.147  14.666  0.5603  0.1184  0.2009
 9990TIP3    H151461   5.041   6.208  14.663 -0.3248 -0.7161  2.4947
 9990TIP3    H251462   5.181   6.192  14.716  1.7482  0.9183 -1.9765
 9991TIP3   OH251463   1.299   2.767  12.037 -0.3110  0.3896 -0.5864
 9991TIP3    H151464   1.243   2.691  12.025 -1.8940  1.5660 -0.9570
 9991TIP3    H251465   1.370   2.756  11.973 -0.8235 -0.4997 -1.0084
 9992TIP3   OH251466   2.554   5.249  15.440 -0.8887  0.1688 -0.0857
 9992TIP3    H151467   2.553   5.155  15.455 -0.8859 -0.0196 -1.1651
 9992TIP3    H251468   2.471   5.280  15.475  0.0658  0.1488  2.4010
 9993TIP3   OH251469   1.727   5.357   1.327  0.4536 -1.0045 -0.4522
 9993TIP3    H151470   1.795   5.413   1.288 -0.7075 -1.5422 -3.5526
 9993TIP3    H251471   1.752   5.269   1.301 -1.2845 -1.2217 -1.4987
 9994TIP3   OH251472   0.330   6.549   2.310  0.4996  0.2569  0.6247
 9994TIP3    H151473   0.337   6.454   2.307  0.7759  0.2856 -1.9665
 9994TIP3    H251474   0.402   6.580   2.255 -0.7198  1.8814 -0.1400
 9995TIP3   OH251475   3.531   0.848  11.534 -0.1162  0.1699  0.1719
 9995TIP3    H151476   3.459   0.789  11.512 -1.2871  1.2933  0.8484
 9995TIP3    H251477   3.502   0.933  11.503  0.8057  0.6942  0.7146
 9996TIP3   OH251478   4.357   2.247  14.050  0.4145 -0.6839  0.0112
 9996TIP3    H151479   4.387   2.256  13.959  0.6327 -0.8290  0.0675
 9996TIP3    H251480   4.387   2.160  14.077 -2.8341 -2.2398 -0.9415
 9997TIP3   OH251481   3.944   5.512   4.887  0.1110 -0.0414 -0.2114
 9997TIP3    H151482   3.873   5.553   4.936 -0.4620  0.6230 -1.5436
 9997TIP3    H251483   3.913   5.423   4.869 -0.3322  0.1902 -0.6356
 9998TIP3   OH251484   1.678   5.180   0.749 -0.5779 -0.5606  0.0177
 9998TIP3    H151485   1.738   5.124   0.699  0.5231  0.3307  0.2962
 9998TIP3    H251486   1.698   5.160   0.840 -0.5692 -0.1244  0.1123
 9999TIP3   OH251487   3.618   6.603  13.750  0.3375  0.2746  0.2969
 9999TIP3    H151488   3.679   6.652  13.805 -0.4626  1.8120 -0.1493
 9999TIP3    H251489   3.574   6.543  13.811  2.2083 -0.8283  0.6335
10000TIP3   OH251490   4.055   4.218  16.657 -0.4662 -0.1373 -0.5684
10000TIP3    H151491   3.993   4.146  16.673  1.5728 -1.9534 -0.2836
10000TIP3    H251492   4.062   4.223  16.562 -0.0812 -0.8640 -0.5912
10001TIP3   OH251493   2.989   5.830  10.468  0.6535 -0.0425 -0.1463
10001TIP3    H151494   3.036   5.870  10.541  2.2640 -1.8565 -0.1165
10001TIP3    H251495   3.057   5.811  10.404 -0.2391 -1.4796 -0.7073
10002TIP3   OH251496   6.433   0.828   3.154  0.0944  0.5440  0.1842
10002TIP3    H151497   6.362   0.830   3.218 -0.9111  1.0942 -0.9114
10002TIP3    H251498   6.506   0.788   3.201 -0.6726  0.7360  1.6035
10003TIP3   OH251499   4.088   2.682   5.073  0.3956 -0.4806  0.5168
10003TIP3    H151500   4.149   2.698   5.146  1.5421  0.5272 -0.6191
10003TIP3    H251501   4.129   2.612   5.022 -0.8520 -1.8302  1.2779
10004TIP3   OH251502   4.694   3.514   4.622  0.5459  0.1156  0.0789
10004TIP3    H151503   4.779   3.551   4.598  1.4167 -1.9132 -0.2211
10004TIP3    H251504   4.644   3.588   4.655  3.0457  1.1179  1.9715
10005TIP3   OH251505   2.850   4.839  13.180 -0.7810 -0.1580 -0.2995
10005TIP3    H151506   2.825   4.897  13.108 -3.5744  0.1348  0.8139
10005TIP3    H251507   2.929   4.796  13.148 -0.0596  2.2987 -2.2248
10006TIP3   OH251508   2.033   6.350   4.472 -0.1657  0.0110 -0.4146
10006TIP3    H151509   1.966   6.419   4.463 -0.8339 -0.3955  1.1054
10006TIP3    H251510   2.115   6.398   4.479 -0.6227  0.6885  0.5978
10007TIP3   OH251511   0.946   6.170  16.392  0.4145 -0.4620  0.5164
10007TIP3    H151512   1.029   6.217  16.403  0.3178 -0.4629  1.2757
10007TIP3    H251513   0.889   6.233  16.347  0.1662  0.3125  1.8425
10008TIP3   OH251514   2.164   3.476   3.564  0.2385 -0.1507 -0.0506
10008TIP3    H151515   2.077   3.490   3.601  0.2076 -0.1563 -0.1210
10008TIP3    H251516   2.223   3.475   3.640  0.3002  0.8007 -0.0736
10009TIP3   OH251517   4.227   6.819  17.006 -0.2987 -0.1950 -0.3898
10009TIP3    H151518   4.149   6.874  17.014  0.2907  0.6966 -0.6036
10009TIP3    H251519   4.299   6.876  17.032  0.5609 -0.2481 -2.4578
10010TIP3   OH251520   0.872   2.951   4.956  0.2427  0.1639  0.1219
10010TIP3    H151521   0.906   2.863   4.975 -0.9863 -0.4014 -0.1754
10010TIP3    H251522   0.798   2.935   4.898 -0.0594  1.4048  0.1580
10011TIP3   OH251523   5.454   2.217  11.710 -0.1530  0.0738 -0.5856
10011TIP3    H151524   5.484   2.207  11.800 -0.9957 -1.7328 -0.4665
10011TIP3    H251525   5.497   2.297  11.679  0.0347  0.8048  1.4451
10012TIP3   OH251526   2.262   4.600  16.313 -0.3625 -0.0846  0.0980
10012TIP3    H151527   2.169   4.593  16.330 -0.0570  0.7491  2.3936
10012TIP3    H251528   2.300   4.523  16.354 -0.0549 -0.7524 -1.3635
10013TIP3   OH251529   3.053   0.823  13.639  0.9026 -0.2263  0.3196
10013TIP3    H151530   3.067   0.730  13.620 -0.5728 -0.7829  1.7181
10013TIP3    H251531   3.072   0.832  13.732 -0.5735  0.4863  0.5901
10014TIP3   OH251532   0.724   4.606  12.416 -0.3551  0.5146 -0.3610
10014TIP3    H151533   0.778   4.529  12.429 -1.1487  0.0714  0.3910
10014TIP3    H251534   0.646   4.573  12.372 -0.2544  1.0631 -0.9743
10015TIP3   OH251535   3.089   1.647  16.520  0.2347  0.6267 -0.1088
10015TIP3    H151536   3.169   1.694  16.498  1.5348 -0.9882  0.8961
10015TIP3    H251537   3.059   1.688  16.602  1.0562  0.0988  0.4717
10016TIP3   OH251538   0.037   3.971   4.877  0.1036  0.2263 -0.1747
10016TIP3    H151539   0.132   3.978   4.880  0.1639 -0.7327  1.1423
10016TIP3    H251540   0.005   4.057   4.904  0.5265  1.3160 -2.8879
10017TIP3   OH251541   4.968   4.110  17.076 -0.0125  0.2628 -0.7036
10017TIP3    H151542   4.890   4.112  17.022 -1.4199 -1.1887  1.1561
10017TIP3    H251543   5.001   4.020  17.069 -0.8457 -0.2890  1.5795
10018TIP3   OH251544   0.272   0.217   3.027  0.1070  0.2850  0.6287
10018TIP3    H151545   0.262   0.311   3.012  0.9380  0.0663 -1.6747
10018TIP3    H251546   0.233   0.176   2.950  1.1288 -1.1890  0.8627
10019TIP3   OH251547   5.025   3.494   3.951  0.3956 -0.2616  0.4775
10019TIP3    H151548   5.033   3.580   3.908 -1.4030 -1.6258 -2.9231
10019TIP3    H251549   5.114   3.459   3.951  0.8590  0.8630  0.2738
10020TIP3   OH251550   6.414   6.107   2.401  0.1546 -0.0461  0.6507
10020TIP3    H151551   6.391   6.017   2.378 -0.4105  0.1035  0.6108
10020TIP3    H251552   6.329   6.150   2.415  0.3752  0.8013 -0.5320
10021TIP3   OH251553   1.649   1.788   0.811 -0.2437  0.1272 -0.1273
10021TIP3    H151554   1.621   1.699   0.830  1.8723 -1.0703 -2.1220
10021TIP3    H251555   1.610   1.841   0.881 -1.3273 -2.3677  1.2784
10022TIP3   OH251556   2.937   3.254  15.422 -0.1784 -0.2766  0.1616
10022TIP3    H151557   2.956   3.327  15.364 -0.6035 -0.4725 -0.2273
10022TIP3    H251558   2.845   3.234  15.407  0.0965 -1.3101 -0.2199
10023TIP3   OH251559   5.204   0.318   5.794 -1.2196 -0.7767  0.0721
10023TIP3    H151560   5.143   0.348   5.861 -0.9021 -1.3476  0.6237
10023TIP3    H251561   5.167   0.235   5.762 -0.8332 -1.0334  0.2803
10024TIP3   OH251562   4.910   0.530  15.062  0.1011  0.2559  0.0856
10024TIP3    H151563   4.959   0.461  15.106  0.2250  0.6315  0.5478
10024TIP3    H251564   4.940   0.527  14.972  0.4547  0.0183  0.2088
10025TIP3   OH251565   4.064   2.108  15.314 -0.1051 -0.1945  0.0599
10025TIP3    H151566   4.014   2.150  15.385  0.8768  1.0973  0.0264
10025TIP3    H251567   4.148   2.087  15.353  0.1730 -0.1699 -0.5228
10026TIP3   OH251568   3.813   3.488  16.836 -0.0329 -0.3794 -0.0289
10026TIP3    H151569   3.895   3.456  16.796  1.6640  0.8038  2.2764
10026TIP3    H251570   3.817   3.456  16.926 -0.8959  1.7780  0.8171
10027TIP3   OH251571   3.777   5.099   3.123 -0.7222  0.1518  0.0032
10027TIP3    H151572   3.837   5.157   3.076  0.2005 -0.6687  0.1494
10027TIP3    H251573   3.695   5.103   3.073  0.0739 -0.2812 -1.3735
10028TIP3   OH251574   4.163   0.679  16.624 -1.0025 -0.1270  0.8405
10028TIP3    H151575   4.258   0.683  16.632 -0.7323 -0.5851 -1.4500
10028TIP3    H251576   4.131   0.735  16.695  1.0066  0.9654  0.9687
10029TIP3   OH251577   1.240   6.306  15.306  0.1865 -0.4031  0.9770
10029TIP3    H151578   1.165   6.312  15.365  0.1755  0.8422  0.8574
10029TIP3    H251579   1.250   6.212  15.290 -2.4201 -0.5245 -0.4227
10030TIP3   OH251580   1.472   2.950   0.782  0.4017 -0.6483 -0.1689
10030TIP3    H151581   1.504   2.864   0.810  0.3033 -0.1125  1.8052
10030TIP3    H251582   1.395   2.965   0.837  0.6170  0.8381 -0.2417
10031TIP3   OH251583   0.248   4.482   3.789  0.3550  0.1408 -0.0817
10031TIP3    H151584   0.159   4.458   3.815  0.0081 -0.3762 -1.6035
10031TIP3    H251585   0.241   4.574   3.764 -0.5186 -0.6252 -3.0397
10032TIP3   OH251586   1.087   3.833  13.556 -0.1827 -0.4949 -0.1188
10032TIP3    H151587   1.068   3.848  13.464 -1.5786 -0.0089  0.2223
10032TIP3    H251588   1.103   3.920  13.593  0.2562 -0.6747  0.1301
10033TIP3   OH251589   3.352   2.830  13.746  0.5626  0.0860 -0.0280
10033TIP3    H151590   3.322   2.918  13.726  1.2775 -0.2820 -3.3180
10033TIP3    H251591   3.442   2.842  13.777  0.3732  0.5522  0.3519
10034TIP3   OH251592   4.334   3.752   2.703 -0.2354  0.3108  0.6495
10034TIP3    H151593   4.354   3.722   2.792 -0.1478 -1.8909 -0.0717
10034TIP3    H251594   4.418   3.780   2.668 -0.1798  0.6786  1.0615
10035TIP3   OH251595   6.630   5.423   3.403 -0.3315 -0.0619 -0.2643
10035TIP3    H151596   6.573   5.439   3.478 -0.1635  0.0703 -0.1637
10035TIP3    H251597   6.631   5.507   3.356  0.1856  0.0939  0.0128
10036TIP3   OH251598   0.775   1.948  13.687  0.1686 -0.0492  0.0572
10036TIP3    H151599   0.817   1.986  13.609 -1.0152  0.8497 -0.1751
10036TIP3    H251600   0.814   1.995  13.760 -0.4472  0.8193 -0.1589
10037TIP3   OH251601   1.566   2.390   2.871 -0.6102 -0.5473 -0.3552
10037TIP3    H151602   1.504   2.459   2.848 -0.7110 -0.4900  0.0891
10037TIP3    H251603   1.529   2.311   2.830 -0.8003 -0.4508 -0.3723
10038TIP3   OH251604   2.570   1.117  11.405  0.1747  0.1153  0.7706
10038TIP3    H151605   2.653   1.090  11.444  0.8495  0.7862 -0.1524
10038TIP3    H251606   2.564   1.211  11.423 -0.6164 -0.0182  1.2340
10039TIP3   OH251607   2.560   0.599  15.578  0.0810  0.2238 -0.5248
10039TIP3    H151608   2.481   0.646  15.553  0.5595  1.8089  0.7497
10039TIP3    H251609   2.611   0.591  15.498 -0.9235  0.0813 -1.1562
10040TIP3   OH251610   5.446   0.471  10.732 -0.7072 -0.1933 -0.0688
10040TIP3    H151611   5.526   0.453  10.782 -1.4036 -1.2568  0.7241
10040TIP3    H251612   5.474   0.471  10.641  0.3623  0.4295  0.2383
10041TIP3   OH251613   6.530   1.782  16.286  0.2231  0.0612  0.3878
10041TIP3    H151614   6.503   1.780  16.194  2.7020 -1.4901 -0.4065
10041TIP3    H251615   6.508   1.695  16.319 -1.7499  0.9889  1.6895
10042TIP3   OH251616   2.559   1.106  15.460 -0.5973 -0.0086  0.1336
10042TIP3    H151617   2.470   1.073  15.474 -0.5290  0.4883  1.9050
10042TIP3    H251618   2.578   1.084  15.368 -2.9745  0.9300 -0.6624
10043TIP3   OH251619   5.109   0.054  13.141  0.1056  0.2954  0.5554
10043TIP3    H151620   5.192   0.031  13.100 -0.4145  0.2103 -0.4929
10043TIP3    H251621   5.105   0.150  13.135  0.4812  0.3667  1.3332
10044TIP3   OH251622   4.583   3.443  16.627 -0.4395  0.8091 -0.5849
10044TIP3    H151623   4.658   3.443  16.685 -0.8309 -1.0857  0.0125
10044TIP3    H251624   4.620   3.442  16.539  0.2053  0.9676 -0.3165
10045TIP3   OH251625   3.099   5.194   2.142  0.0168 -0.6994 -0.3516
10045TIP3    H151626   3.085   5.101   2.160 -0.5576 -0.2670  1.7115
10045TIP3    H251627   3.194   5.203   2.135  0.1666 -1.2179  0.8712
10046TIP3   OH251628   5.964   2.537  11.632  0.1730  0.0996  0.7318
10046TIP3    H151629   5.933   2.556  11.543  2.7324 -0.6324 -0.3939
10046TIP3    H251630   5.954   2.442  11.641  2.5865 -0.2713  0.0608
10047TIP3   OH251631   5.284   6.679   3.498  0.4139  0.0034 -0.1465
10047TIP3    H151632   5.228   6.735   3.552  0.0802 -0.4950  0.0311
10047TIP3    H251633   5.323   6.738   3.434  2.4212  1.0168  1.8783
10048TIP3   OH251634   1.495   2.802   1.784  0.0941 -0.1490  0.3265
10048TIP3    H151635   1.559   2.743   1.745  1.2046  0.0724  1.7690
10048TIP3    H251636   1.522   2.812   1.875 -0.2999  2.2666  0.2499
10049TIP3   OH251637   6.276   4.430   2.500 -0.3507 -0.3141 -0.3338
10049TIP3    H151638   6.219   4.471   2.435 -1.1704 -2.3774 -1.0035
10049TIP3    H251639   6.365   4.447   2.469 -0.5915  1.5705 -0.1400
10050TIP3   OH251640   2.847   4.424   4.262 -0.3152 -0.3504  0.5159
10050TIP3    H151641   2.796   4.463   4.191  1.6033  1.7285  0.1600
10050TIP3    H251642   2.927   4.392   4.219  0.3752 -0.0982  1.5821
10051TIP3   OH251643   6.030   3.716   1.075 -0.1772  0.4667 -0.0742
10051TIP3    H151644   6.102   3.669   1.117  0.4017  0.3673 -1.1309
10051TIP3    H251645   6.067   3.746   0.992 -1.3201  0.5503 -0.5633
10052TIP3   OH251646   3.260   1.056  13.904 -0.0835 -0.1761  0.4866
10052TIP3    H151647   3.335   1.114  13.914 -1.0541  1.0820  0.6936
10052TIP3    H251648   3.254   1.010  13.988 -1.2631  1.8714  1.5999
10053TIP3   OH251649   6.622   5.546  15.113 -0.4441  0.2262  0.4482
10053TIP3    H151650   6.663   5.605  15.177 -0.7224 -1.3438  2.1752
10053TIP3    H251651   6.573   5.484  15.167 -1.7990 -0.3643 -1.3953
10054TIP3   OH251652   4.030   5.086   3.865  0.3996 -0.6275  0.0467
10054TIP3    H151653   3.954   5.140   3.845  1.1596  0.8663  1.0441
10054TIP3    H251654   4.001   5.030   3.938  1.1829  2.3777  2.8860
10055TIP3   OH251655   0.343   5.840   3.748 -0.1199 -0.1524  0.2686
10055TIP3    H151656   0.346   5.786   3.668 -0.8842  0.0886  0.0697
10055TIP3    H251657   0.252   5.869   3.753 -0.4016 -1.2106  1.9346
10056TIP3   OH251658   6.450   3.074  11.523 -0.3101  0.6100  0.7340
10056TIP3    H151659   6.395   2.997  11.509 -1.8906  1.8997 -0.6843
10056TIP3    H251660   6.534   3.051  11.482 -0.2870 -0.8077  1.5137
10057TIP3   OH251661   4.025   0.966  13.221 -0.4727 -0.3583 -0.6636
10057TIP3    H151662   3.961   1.035  13.239 -1.0897 -0.9665 -0.4846
10057TIP3    H251663   4.109   1.006  13.242 -0.7559  0.5513 -1.1938
10058TIP3   OH251664   4.709   4.923   1.865 -0.0132  0.1029  0.1181
10058TIP3    H151665   4.674   4.995   1.813  0.9404  1.4686  1.3047
10058TIP3    H251666   4.726   4.961   1.951  4.5012 -0.2726 -0.3561
10059TIP3   OH251667   1.353   6.300   5.048 -0.8725  0.1488 -0.2528
10059TIP3    H151668   1.277   6.349   5.080  0.0480  1.9366 -0.6923
10059TIP3    H251669   1.387   6.353   4.976  0.6802 -0.7086 -0.1902
10060TIP3   OH251670   5.912   3.981   2.584  0.6865  0.8368  0.3369
10060TIP3    H151671   5.822   3.959   2.558  1.0321 -0.4857  0.1763
10060TIP3    H251672   5.967   3.918   2.537  1.6633  1.2970  0.8279
10061TIP3   OH251673   1.380   6.479  12.151 -0.5020  0.1966 -0.1449
10061TIP3    H151674   1.432   6.448  12.078 -0.8143  1.0181 -0.7337
10061TIP3    H251675   1.377   6.574  12.139  1.6060  0.7028  2.3413
10062TIP3   OH251676   5.759   5.507  10.799  0.3655 -0.3340 -0.0118
10062TIP3    H151677   5.761   5.412  10.786  1.1824 -0.4493  0.8368
10062TIP3    H251678   5.673   5.534  10.768  0.9532 -1.0131 -2.4183
10063TIP3   OH251679   1.326   6.413   0.605  0.0173 -0.7233 -0.1539
10063TIP3    H151680   1.265   6.451   0.667  0.6682 -1.3096  0.8714
10063TIP3    H251681   1.281   6.419   0.520 -0.3510  1.2735  0.1326
10064TIP3   OH251682   0.537   5.925   5.372  0.6949  0.5023 -0.4268
10064TIP3    H151683   0.543   5.989   5.301 -1.2535  1.4134  0.1501
10064TIP3    H251684   0.448   5.891   5.367  0.0925  1.4155  2.1748
10065TIP3   OH251685   3.779   2.944  13.863  0.2074 -0.4420  0.6336
10065TIP3    H151686   3.750   2.865  13.818  0.9857  0.1335 -0.9492
10065TIP3    H251687   3.797   2.915  13.953 -0.4115 -1.8431  0.3329
10066TIP3   OH251688   4.098   2.463  12.732  0.0157 -0.3171  0.0402
10066TIP3    H151689   4.109   2.478  12.826  2.2029  0.7774 -0.3397
10066TIP3    H251690   4.098   2.550  12.693 -0.4463 -0.7720 -1.0354
10067TIP3   OH251691   1.101   0.600   2.767 -0.6547 -0.2483 -0.2044
10067TIP3    H151692   1.098   0.505   2.782 -0.2677 -0.1254  0.7296
10067TIP3    H251693   1.038   0.615   2.697 -2.8466 -0.8468  1.5122
10068TIP3   OH251694   5.909   4.963   0.515 -0.5004  0.0671  0.0446
10068TIP3    H151695   5.873   5.013   0.588 -2.6195 -0.4970 -0.5516
10068TIP3    H251696   5.984   4.916   0.553 -0.9244  0.5776  1.5949
10069TIP3   OH251697   4.275   0.662  16.944 -0.5180 -0.7984 -0.3087
10069TIP3    H151698   4.345   0.665  17.009 -2.6673 -0.1427  2.1282
10069TIP3    H251699   4.317   0.629  16.865  2.1795 -1.9850  1.4771
10070TIP3   OH251700   5.549   5.542  16.416  0.3008  0.8173  0.1795
10070TIP3    H151701   5.545   5.451  16.384 -0.7090  1.3362 -1.2824
10070TIP3    H251702   5.623   5.580  16.368 -1.0632  1.5315 -1.4285
10071TIP3   OH251703   2.138   5.720   2.468 -0.3946  0.7592  0.5011
10071TIP3    H151704   2.125   5.628   2.490 -0.2871  0.5200 -0.4102
10071TIP3    H251705   2.074   5.767   2.521 -0.4694  0.1615  0.9496
10072TIP3   OH251706   2.968   6.519  16.784  0.0958 -0.3157  0.3486
10072TIP3    H151707   2.982   6.428  16.755  1.4033 -0.0123 -0.0443
10072TIP3    H251708   2.891   6.548  16.736 -0.2602 -1.1808  0.3783
10073TIP3   OH251709   1.507   4.914  15.433 -0.2854  0.0199  0.5644
10073TIP3    H151710   1.450   4.969  15.378 -1.6324 -0.9555  0.9397
10073TIP3    H251711   1.554   4.977  15.488 -2.3723  0.8037  1.5431
10074TIP3   OH251712   1.764   4.771  13.739  0.3448 -0.4047  0.1086
10074TIP3    H151713   1.706   4.792  13.666  0.5038  0.0734  0.1159
10074TIP3    H251714   1.723   4.696  13.782 -0.2620 -0.0724  0.1136
10075TIP3   OH251715   2.311   3.218   4.283 -0.3997  0.0187  0.5639
10075TIP3    H151716   2.243   3.282   4.304 -0.3513  0.1448  0.3370
10075TIP3    H251717   2.329   3.231   4.190 -0.6677 -0.5946  0.4217
10076TIP3   OH251718   1.106   3.903   2.109  0.0674  0.4562 -0.1672
10076TIP3    H151719   1.060   3.943   2.183 -1.7137 -1.9786  0.1763
10076TIP3    H251720   1.189   3.874   2.147 -1.0789 -1.3270  1.1666
10077TIP3   OH251721   4.684   6.548   3.759 -0.1959  0.6196  0.0793
10077TIP3    H151722   4.658   6.536   3.668 -2.6233  2.8080  0.3574
10077TIP3    H251723   4.602   6.545   3.808  0.8548  1.2240  1.9904
10078TIP3   OH251724   2.964   3.920   1.578  0.0370 -0.2501 -0.1223
10078TIP3    H151725   2.929   3.991   1.632  1.7774 -1.7688  3.3252
10078TIP3    H251726   3.059   3.930   1.584  0.3362 -0.8362 -2.6225
10079TIP3   OH251727   1.438   4.103   3.083  0.0815  0.1573 -0.5279
10079TIP3    H151728   1.523   4.059   3.079 -0.2511 -0.4612 -0.8199
10079TIP3    H251729   1.374   4.033   3.074 -0.4565  0.8362 -2.4107
10080TIP3   OH251730   4.974   4.313   2.081 -0.0252  0.2208 -0.3102
10080TIP3    H151731   5.043   4.305   2.015  0.9289 -0.1051  0.6942
10080TIP3    H251732   4.950   4.406   2.079  1.1412  0.5467 -0.0121
10081TIP3   OH251733   4.691   3.023  11.369 -0.1652  0.2479 -0.2791
10081TIP3    H151734   4.734   3.018  11.284  0.0199 -0.0897 -0.1671
10081TIP3    H251735   4.691   3.116  11.391  0.4526  0.2570 -0.3056
10082TIP3   OH251736   2.007   4.336  12.132  0.0365  0.3091  0.8184
10082TIP3    H151737   2.039   4.340  12.222  0.9756 -1.6875  0.6391
10082TIP3    H251738   2.008   4.427  12.102  0.4737  0.9202  2.5567
10083TIP3   OH251739   5.397   5.062   3.628 -0.0569  0.0000  0.2063
10083TIP3    H151740   5.462   5.052   3.698 -0.6480 -0.8596  0.6548
10083TIP3    H251741   5.432   5.010   3.556 -1.3555 -2.5386  1.2798
10084TIP3   OH251742   6.001   2.119   1.704 -0.0882 -0.2673  0.0747
10084TIP3    H151743   6.096   2.112   1.717  0.1217 -1.1680 -1.6662
10084TIP3    H251744   5.973   2.186   1.766  1.9482  1.2018 -0.4841
10085TIP3   OH251745   2.969   5.987   4.638  0.3870 -0.1613 -0.0228
10085TIP3    H151746   2.968   5.967   4.732  0.9304 -0.2115 -0.0289
10085TIP3    H251747   2.936   5.907   4.597 -1.2433  0.3453  0.2030
10086TIP3   OH251748   2.226   3.775   2.328  0.7096  0.1775  0.2921
10086TIP3    H151749   2.298   3.718   2.300 -0.1461 -1.0321  0.4741
10086TIP3    H251750   2.164   3.717   2.372 -1.1086  0.8907 -1.1484
10087TIP3   OH251751   2.444   2.967   5.567  0.6244  0.6387 -0.7679
10087TIP3    H151752   2.359   2.967   5.524  0.3458 -1.9332 -0.3613
10087TIP3    H251753   2.477   2.878   5.555  2.3393  0.9962  0.8608
10088TIP3   OH251754   4.473   5.618   2.894 -0.0059  0.1898  0.5255
10088TIP3    H151755   4.412   5.558   2.852 -0.3702 -0.1709  1.5524
10088TIP3    H251756   4.559   5.576   2.886  0.0205  0.3722 -0.2968
10089TIP3   OH251757   5.532   0.060   3.705  0.0850  0.2405  0.3625
10089TIP3    H151758   5.569   0.140   3.741  0.3047  0.0120  0.6539
10089TIP3    H251759   5.438   0.067   3.719  0.0057  0.8419 -0.4063
10090TIP3   OH251760   5.668   4.757  15.344 -0.2604  0.3216  0.1192
10090TIP3    H151761   5.658   4.683  15.283 -0.0334  0.5549 -0.2059
10090TIP3    H251762   5.582   4.766  15.385 -0.1913 -0.3578  0.4306
10091TIP3   OH251763   6.479   6.025   3.054  0.0156  0.0267  0.1148
10091TIP3    H151764   6.490   6.003   2.961 -1.7390 -0.1767 -0.0796
10091TIP3    H251765   6.385   6.023   3.068  0.1796  1.1748  1.6512
10092TIP3   OH251766   1.608   2.633   4.365  0.0258 -0.2965 -0.9986
10092TIP3    H151767   1.619   2.653   4.458 -1.8953  0.2564 -0.8519
10092TIP3    H251768   1.639   2.542   4.357  0.3147 -0.3197  0.1475
10093TIP3   OH251769   6.447   2.730   5.260 -0.2609 -0.6634 -0.7802
10093TIP3    H151770   6.387   2.776   5.319  0.7693  0.1197 -0.3045
10093TIP3    H251771   6.489   2.800   5.210  0.3917 -1.1877 -0.9759
10094TIP3   OH251772   2.343   0.263  14.936 -0.2595 -0.2190  0.3077
10094TIP3    H151773   2.263   0.313  14.919 -0.2731 -0.1165  0.6631
10094TIP3    H251774   2.349   0.259  15.031  0.1222 -0.2863  0.2838
10095TIP3   OH251775   5.894   1.963   5.608  0.0814 -0.5115  0.0620
10095TIP3    H151776   5.930   1.927   5.689 -1.7990  0.8428  1.5975
10095TIP3    H251777   5.967   2.008   5.567  0.6464  0.6012  2.1288
10096TIP3   OH251778   5.133   0.443   1.744 -0.9182 -0.4386 -0.1941
10096TIP3    H151779   5.082   0.363   1.755 -1.8012  0.2374  0.9541
10096TIP3    H251780   5.109   0.475   1.657 -3.2988  0.3834  0.6810
10097TIP3   OH251781   2.714   6.708   2.322  0.1988  0.2808  0.4198
10097TIP3    H151782   2.737   6.618   2.342  0.8936  0.3155 -0.1620
10097TIP3    H251783   2.644   6.701   2.257  0.6146  0.1515 -0.0198
10098TIP3   OH251784   2.153   5.283  15.807  0.0827  0.0585  0.1189
10098TIP3    H151785   2.156   5.378  15.795  1.1223  0.4206  2.5367
10098TIP3    H251786   2.228   5.264  15.864 -0.1945 -2.2081 -0.1710
10099TIP3   OH251787   4.755   3.112   5.117  0.3044 -0.1692 -0.3996
10099TIP3    H151788   4.682   3.088   5.059  0.0738 -0.8829  0.1673
10099TIP3    H251789   4.830   3.063   5.084  0.2872 -0.2070 -0.3831
10100TIP3   OH251790   1.539   4.653  12.263 -0.0557  0.1344  0.0503
10100TIP3    H151791   1.553   4.581  12.201 -0.2686  1.0899 -1.1499
10100TIP3    H251792   1.449   4.643  12.292 -0.0218 -0.1924  0.0519
10101TIP3   OH251793   6.185   0.877   2.579  1.0178  0.9763  0.3596
10101TIP3    H151794   6.134   0.925   2.513  1.5140  0.4609 -0.4244
10101TIP3    H251795   6.155   0.912   2.663 -0.8130  0.5206 -0.0520
10102TIP3   OH251796   5.461   2.538  16.840 -0.3972 -0.0474 -0.6519
10102TIP3    H151797   5.471   2.627  16.804 -1.4475 -0.3936 -1.8838
10102TIP3    H251798   5.547   2.498  16.829  0.5104  1.2406  1.2272
10103TIP3   OH251799   6.350   2.216  15.804  0.3587  0.1900 -0.5342
10103TIP3    H151800   6.438   2.193  15.772 -0.2365 -1.2156 -1.2060
10103TIP3    H251801   6.339   2.308  15.778  1.0230 -0.0809 -1.8289
10104TIP3   OH251802   1.367   0.056  12.424  0.1869  0.1190  0.0085
10104TIP3    H151803   1.441   0.020  12.473 -0.3666 -0.1430  0.6782
10104TIP3    H251804   1.383   0.150  12.421  0.4981  0.0743  0.2297
10105TIP3   OH251805   1.105   3.767   1.119  0.3558  0.1353  0.4070
10105TIP3    H151806   1.161   3.844   1.112 -0.1044  0.4893  0.5468
10105TIP3    H251807   1.109   3.743   1.211 -1.3961  1.4688  0.9009
10106TIP3   OH251808   1.852   1.168   0.060  0.1334 -0.7647  0.1308
10106TIP3    H151809   1.880   1.077   0.062  1.2234 -0.4784 -0.9270
10106TIP3    H251810   1.756   1.165   0.062  0.1711 -1.8974  0.6144
10107TIP3   OH251811   1.470   1.957   2.484 -0.4866 -0.3743  0.0931
10107TIP3    H151812   1.551   1.925   2.446 -0.5548 -0.4865  0.0409
10107TIP3    H251813   1.429   1.879   2.523 -1.8886 -0.9071 -2.2296
10108TIP3   OH251814   1.394   4.208   4.569 -0.2209  0.0692  0.1535
10108TIP3    H151815   1.489   4.202   4.557 -0.2765 -0.6023  0.0251
10108TIP3    H251816   1.383   4.228   4.662  0.0902  1.8436 -0.1503
10109TIP3   OH251817   3.844   3.567  15.255 -0.7813 -0.3237 -0.0373
10109TIP3    H151818   3.805   3.530  15.334  1.8484  0.2613  1.6335
10109TIP3    H251819   3.920   3.616  15.286 -0.7190  1.5165 -2.7619
10110TIP3   OH251820   6.482   0.446   1.395 -0.7563  0.1860 -0.3992
10110TIP3    H151821   6.406   0.504   1.394  0.1335  1.4871  1.2502
10110TIP3    H251822   6.512   0.444   1.305 -2.2645  0.2919 -0.9283
10111TIP3   OH251823   3.835   5.964  14.520 -0.2423  0.1191  0.1807
10111TIP3    H151824   3.758   5.929  14.477  1.0885 -1.5065 -1.0185
10111TIP3    H251825   3.825   6.059  14.514 -1.2716 -0.0627 -1.6099
10112TIP3   OH251826   6.500   4.695  14.932 -0.0992 -0.4280 -0.3176
10112TIP3    H151827   6.455   4.771  14.894 -0.5410  0.0901  1.1886
10112TIP3    H251828   6.443   4.621  14.914 -1.0104  0.0406  0.5468
10113TIP3   OH251829   4.226   4.847   1.511  0.3117  0.9922 -0.2495
10113TIP3    H151830   4.255   4.818   1.598  0.9722 -0.9499 -1.0550
10113TIP3    H251831   4.177   4.927   1.528 -1.5591 -0.4936  2.2134
10114TIP3   OH251832   1.574   3.773  12.083  0.3643 -0.0039  0.5063
10114TIP3    H151833   1.543   3.841  12.023  1.4608 -0.8638 -1.0974
10114TIP3    H251834   1.665   3.796  12.101  1.3660 -2.0209 -1.6055
10115TIP3   OH251835   3.269   1.569   4.067 -0.1561 -0.2476 -0.0991
10115TIP3    H151836   3.266   1.649   4.015 -0.1711  0.0348  0.3274
10115TIP3    H251837   3.357   1.534   4.052 -0.2247 -0.2689 -0.4573
10116TIP3   OH251838   1.591   3.854  13.141 -0.5437 -0.1509  0.8926
10116TIP3    H151839   1.613   3.763  13.163 -0.8031 -0.2616  0.7020
10116TIP3    H251840   1.669   3.904  13.166 -0.7818 -0.2824  1.9680
10117TIP3   OH251841   1.614   3.420  12.773  0.6716  0.1300 -0.0281
10117TIP3    H151842   1.526   3.404  12.740 -0.3755  1.2446  2.0042
10117TIP3    H251843   1.603   3.490  12.838  3.1711  0.7843 -0.2039
10118TIP3   OH251844   1.327   0.047  13.971  0.2259 -0.7776 -0.1179
10118TIP3    H151845   1.262   0.000  14.024 -1.7814  0.1993 -1.5718
10118TIP3    H251846   1.374  -0.022  13.923 -1.7794 -1.4558 -1.2320
10119TIP3   OH251847   6.440   1.975   2.868 -0.6609 -0.0232  0.5850
10119TIP3    H151848   6.519   1.926   2.888 -1.6210 -1.0037  2.2438
10119TIP3    H251849   6.423   2.028   2.946 -1.4619  0.3957  0.1451
10120TIP3   OH251850   1.554   2.369  14.329 -0.0880 -0.5419 -0.5152
10120TIP3    H151851   1.585   2.301  14.270 -1.7866 -1.5216 -0.3626
10120TIP3    H251852   1.624   2.434  14.331  1.7608 -2.4596 -0.3607
10121TIP3   OH251853   2.963   2.190   3.879 -0.1667 -0.2221  0.7434
10121TIP3    H151854   2.870   2.194   3.854 -0.1696 -0.4462  0.7143
10121TIP3    H251855   2.961   2.157   3.969 -0.1681  0.7765  1.1201
10122TIP3   OH251856   3.886   0.521   1.485 -0.3189  0.0657  0.3240
10122TIP3    H151857   3.974   0.491   1.464 -0.3594  1.2798 -1.8496
10122TIP3    H251858   3.890   0.542   1.579  0.6149 -3.2445  1.1425
10123TIP3   OH251859   1.084   5.503  14.140 -0.0227  0.3759 -0.1121
10123TIP3    H151860   1.084   5.423  14.193 -0.1582 -0.3495 -1.1731
10123TIP3    H251861   1.046   5.570  14.196 -1.7497 -0.7628  0.1443
10124TIP3   OH251862   3.181   2.655  12.930  0.3008  0.2944  0.8587
10124TIP3    H151863   3.121   2.635  13.002 -1.5074  0.4079 -0.5423
10124TIP3    H251864   3.162   2.747  12.909  0.9943  0.3381  0.4206
10125TIP3   OH251865   0.772   3.001   6.108 -0.3652  0.0383  0.1680
10125TIP3    H151866   0.828   2.937   6.063  1.2936  1.8486 -0.4779
10125TIP3    H251867   0.769   2.970   6.199  1.9083 -0.0506  0.2787
10126TIP3   OH251868   6.266   3.689   2.229 -0.5135 -0.1476  0.0980
10126TIP3    H151869   6.240   3.765   2.281 -1.6104 -1.3412  1.4104
10126TIP3    H251870   6.355   3.669   2.258 -0.2132  0.6146 -0.2651
10127TIP3   OH251871   2.319   3.658  17.084 -0.4860 -0.0535 -1.2145
10127TIP3    H151872   2.354   3.571  17.068  0.9969  0.5135 -1.2628
10127TIP3    H251873   2.395   3.716  17.075 -0.5275  0.8703  2.7150
10128TIP3   OH251874   2.343   4.677  17.202 -0.2467 -0.1545  0.5135
10128TIP3    H151875   2.344   4.715  17.290  0.5201  0.0921  0.4061
10128TIP3    H251876   2.266   4.716  17.160 -0.2750  0.1848  0.8755
10129TIP3   OH251877   3.446   1.337  16.316  0.3938  0.1515  0.0807
10129TIP3    H151878   3.355   1.314  16.297 -0.0547  0.8455  1.2468
10129TIP3    H251879   3.440   1.397  16.390  1.8429 -0.2039  0.5193
10130TIP3   OH251880   2.547   3.493   0.159  0.1345 -0.1495  0.1149
10130TIP3    H151881   2.609   3.494   0.086  1.5489  1.0321  1.2723
10130TIP3    H251882   2.505   3.579   0.157 -0.6439 -0.5217  0.0335
10131TIP3   OH251883   4.177   5.469  17.178  0.0482 -0.0009 -0.5191
10131TIP3    H151884   4.211   5.455  17.266 -1.8940  1.5989  0.5790
10131TIP3    H251885   4.244   5.523  17.135  1.7808 -2.1339 -0.6725
10132TIP3   OH251886   2.740   3.175  12.753 -0.0563 -0.2784  0.2830
10132TIP3    H151887   2.768   3.236  12.821 -0.4128 -1.7999  1.8661
10132TIP3    H251888   2.648   3.196  12.739  0.2576  0.6863 -0.4945
10133TIP3   OH251889   5.463   0.310   2.740 -0.2661 -0.0236  0.2820
10133TIP3    H151890   5.450   0.401   2.767  1.1459  0.0991  0.6149
10133TIP3    H251891   5.503   0.316   2.653 -0.4320 -0.3325  0.1829
10134TIP3   OH251892   6.019   0.848  15.137 -0.6745 -0.4193  0.2264
10134TIP3    H151893   6.060   0.762  15.126 -0.8742 -0.2894 -2.0622
10134TIP3    H251894   5.950   0.833  15.201  0.4713 -1.5107  1.2679
10135TIP3   OH251895   3.876   1.119  15.935 -0.1429 -0.2631  0.2930
10135TIP3    H151896   3.859   1.205  15.897 -0.5547 -0.3391  0.2996
10135TIP3    H251897   3.882   1.060  15.859  3.0595  0.2039  0.0326
10136TIP3   OH251898   5.217   6.176  14.983  0.3123 -0.0556 -0.5209
10136TIP3    H151899   5.224   6.256  14.930  0.0449  1.8912  2.1691
10136TIP3    H251900   5.124   6.171  15.006  0.0045 -2.1516 -1.9922
10137TIP3   OH251901   2.709   6.078   0.827 -0.5125 -0.4428 -0.4498
10137TIP3    H151902   2.715   6.105   0.918  0.6882 -0.5749 -0.4684
10137TIP3    H251903   2.762   6.142   0.780 -2.7293  0.8345 -1.3653
10138TIP3   OH251904   3.758   2.817   1.320  0.0013  0.2726 -0.5510
10138TIP3    H151905   3.751   2.778   1.233 -1.7270  2.8212 -1.6822
10138TIP3    H251906   3.670   2.851   1.338  0.6266  0.9085  1.6718
10139TIP3   OH251907   2.848   0.695  12.696  0.2585 -0.1992 -0.4767
10139TIP3    H151908   2.873   0.658  12.611 -0.2250 -1.6004 -0.0270
10139TIP3    H251909   2.918   0.758  12.716  0.1260  0.5177 -2.1232
10140TIP3   OH251910   1.149   6.013   4.042  0.1570 -0.4028  0.3710
10140TIP3    H151911   1.129   6.052   4.127 -1.0257 -1.4329  0.6149
10140TIP3    H251912   1.145   6.085   3.980  3.8676  0.9519  1.4576
10141TIP3   OH251913   1.855   6.634   6.176  0.0088  0.3703  0.5104
10141TIP3    H151914   1.918   6.572   6.212  0.5015  0.9960  0.7401
10141TIP3    H251915   1.900   6.718   6.176 -0.0626  0.4604 -1.2987
10142TIP3   OH251916   1.718   0.063  16.312 -0.0368  0.2197  0.3118
10142TIP3    H151917   1.790   0.038  16.254 -0.0644 -1.7571  1.0621
10142TIP3    H251918   1.643   0.075  16.254  0.5619  0.9323 -0.3267
10143TIP3   OH251919   1.417   0.359   5.669  0.2248 -0.4273 -0.3961
10143TIP3    H151920   1.499   0.351   5.620  0.0967 -0.4299 -0.6103
10143TIP3    H251921   1.444   0.360   5.761  0.5473  0.5866 -0.4898
10144TIP3   OH251922   4.184   6.774   0.107 -0.1600  0.8949 -0.3338
10144TIP3    H151923   4.139   6.690   0.123 -1.4269  1.7092  0.6540
10144TIP3    H251924   4.151   6.803   0.022  2.7930 -1.0987 -2.3220
10145TIP3   OH251925   1.080   5.510  11.333  0.1200 -0.1293  0.2731
10145TIP3    H151926   1.124   5.594  11.317  2.3558 -1.1714  0.4643
10145TIP3    H251927   1.076   5.468  11.246 -0.3095 -0.1363  0.2946
10146TIP3   OH251928   5.611   4.458  10.711 -0.1756 -0.2309 -0.3732
10146TIP3    H151929   5.699   4.491  10.732  0.6277 -1.5737 -1.4884
10146TIP3    H251930   5.619   4.363  10.716 -1.5556 -0.3851 -0.6260
10147TIP3   OH251931   0.616   4.487   0.274 -0.1681  1.2225  0.2472
10147TIP3    H151932   0.676   4.544   0.225  0.1066  1.2810  0.6497
10147TIP3    H251933   0.649   4.399   0.258 -0.8778  1.1193 -0.7724
10148TIP3   OH251934   2.450   4.735   0.727  0.2679 -0.2195 -0.1954
10148TIP3    H151935   2.455   4.726   0.632  1.7305 -1.4522 -0.0392
10148TIP3    H251936   2.539   4.715   0.758 -0.4942 -1.1947  1.5251
10149TIP3   OH251937   4.112   0.605  11.630  0.3717  0.8089 -0.6254
10149TIP3    H151938   4.168   0.575  11.559 -0.5337  1.2960 -1.5623
10149TIP3    H251939   4.146   0.692  11.652  0.6384  0.6656 -0.4495
10150TIP3   OH251940   1.051   0.956   0.675  0.2708 -0.1957 -0.1711
10150TIP3    H151941   1.124   0.956   0.737  0.6912  3.1116 -0.5101
10150TIP3    H251942   0.973   0.960   0.730  0.4973 -0.2402  0.1574
10151TIP3   OH251943   3.092   6.235  14.177  0.9212  0.0573  0.4542
10151TIP3    H151944   3.014   6.194  14.215  1.0253 -0.4103  0.1816
10151TIP3    H251945   3.063   6.263  14.090  1.2234 -0.6869  0.1082
10152TIP3   OH251946   6.116   6.528   3.816 -0.1389 -0.0955 -0.2643
10152TIP3    H151947   6.125   6.582   3.737  0.0660 -2.6475 -2.0935
10152TIP3    H251948   6.046   6.467   3.795  0.0055 -0.9087  1.5222
10153TIP3   OH251949   5.845   2.115  15.225  0.1142 -0.1323  0.1964
10153TIP3    H151950   5.831   2.108  15.130 -0.9521  1.7733  0.1657
10153TIP3    H251951   5.888   2.033  15.249 -0.1333 -0.9150 -1.8370
10154TIP3   OH251952   6.193   4.155  12.057 -0.5298 -0.0109 -0.0799
10154TIP3    H151953   6.186   4.233  12.112 -4.4258 -1.7953  2.3796
10154TIP3    H251954   6.147   4.177  11.977  0.7005  0.9828 -0.5393
10155TIP3   OH251955   2.667   2.652  15.420  0.0497 -0.6917  0.0820
10155TIP3    H151956   2.635   2.584  15.362 -1.1137  0.3322 -0.5350
10155TIP3    H251957   2.747   2.616  15.458 -0.0167 -1.9993 -0.9453
10156TIP3   OH251958   0.482   0.752   5.331 -0.1686  0.0970  0.4289
10156TIP3    H151959   0.428   0.825   5.298 -1.6811 -1.1595 -0.0407
10156TIP3    H251960   0.529   0.720   5.254 -0.4665 -0.1834  0.3575
10157TIP3   OH251961   3.973   6.548   6.543  0.4417 -0.2965  0.1591
10157TIP3    H151962   4.020   6.538   6.625  0.2800  0.8447  0.4056
10157TIP3    H251963   4.039   6.581   6.481  0.2003  0.3596  0.2481
10158TIP3   OH251964   0.056   4.803   3.307 -0.1430  0.0013 -0.7308
10158TIP3    H151965   0.061   4.712   3.337 -1.5035 -0.5096 -1.9704
10158TIP3    H251966   0.121   4.808   3.237  0.8752  0.3773  0.2050
10159TIP3   OH251967   1.325   1.192   1.421 -0.0043  0.2227  0.1747
10159TIP3    H151968   1.363   1.206   1.334  1.0478  0.9749  0.7323
10159TIP3    H251969   1.267   1.267   1.434 -0.5541 -0.1505 -0.0659
10160TIP3   OH251970   2.420   4.333  14.812  0.5596  0.4713  0.1470
10160TIP3    H151971   2.401   4.307  14.722  2.0972  0.3457 -0.1636
10160TIP3    H251972   2.388   4.424  14.818 -1.7837 -0.2824  0.2488
10161TIP3   OH251973   1.771   2.815   4.279 -0.3850 -0.1314 -0.1382
10161TIP3    H151974   1.693   2.763   4.297 -0.8731  1.5569  3.4627
10161TIP3    H251975   1.837   2.782   4.339  0.7618  0.4646 -1.0252
10162TIP3   OH251976   6.556   1.632  15.433 -0.5442  0.4833  0.3707
10162TIP3    H151977   6.502   1.684  15.493 -2.6214 -1.4653  0.3308
10162TIP3    H251978   6.493   1.584  15.379  1.2537  0.9755 -2.3913
10163TIP3   OH251979   4.490   6.267  16.542 -0.7804  0.0534 -0.0201
10163TIP3    H151980   4.532   6.220  16.469  0.4144  1.2222 -0.1290
10163TIP3    H251981   4.429   6.203  16.579  3.6881 -3.3362  2.6287
10164TIP3   OH251982   6.314   6.045   0.576  0.0181 -0.2877  0.4071
10164TIP3    H151983   6.328   6.086   0.662 -2.5148  2.8081 -0.4330
10164TIP3    H251984   6.221   6.060   0.558  0.2618 -1.6766 -2.4914
10165TIP3   OH251985   0.270   4.295  11.766 -0.6240  0.5377  0.6426
10165TIP3    H151986   0.338   4.278  11.700 -1.4586  1.2462 -0.4517
10165TIP3    H251987   0.266   4.215  11.818 -0.2367 -0.2277 -0.4610
10166TIP3   OH251988   2.735   5.952  11.482 -0.0067  0.6633 -0.4125
10166TIP3    H151989   2.823   5.936  11.514  0.4337  2.0196 -0.8575
10166TIP3    H251990   2.714   6.040  11.513 -0.8217  0.7329 -1.1270
10167TIP3   OH251991   6.257   5.789  14.087 -0.1292  0.0029  0.3271
10167TIP3    H151992   6.184   5.812  14.145 -0.1117  1.9000 -0.3295
10167TIP3    H251993   6.336   5.810  14.138 -0.1089  1.1027 -0.1247
10168TIP3   OH251994   0.358   2.770   3.441  0.0653  0.4161 -0.2867
10168TIP3    H151995   0.362   2.675   3.456 -0.8072  0.5151  0.7287
10168TIP3    H251996   0.313   2.779   3.357  0.0519 -0.0739 -0.3359
10169TIP3   OH251997   2.137   5.619   5.184 -0.6208 -0.3323  0.0563
10169TIP3    H151998   2.165   5.639   5.274 -1.5482 -4.1813  1.4075
10169TIP3    H251999   2.215   5.579   5.144 -0.7072 -0.1800 -0.2589
10170TIP3   OH252000   0.238   4.997  14.597  0.4087 -0.2024 -0.4197
10170TIP3    H152001   0.288   5.060  14.545  0.0057  0.0656 -0.4870
10170TIP3    H252002   0.189   4.945  14.532  0.5248 -0.4012 -0.3497
10171TIP3   OH252003   5.586   5.619   5.749 -0.4496  0.1769  0.0111
10171TIP3    H152004   5.613   5.686   5.811 -1.8431  0.8537 -0.0697
10171TIP3    H252005   5.503   5.586   5.784  0.1356 -1.4302 -0.0221
10172TIP3   OH252006   5.872   1.098  13.734 -0.4136 -0.6000 -0.1037
10172TIP3    H152007   5.877   1.013  13.690  0.1932 -0.2978 -0.6407
10172TIP3    H252008   5.891   1.162  13.666 -0.0367 -0.0827  0.4712
10173TIP3   OH252009   1.300   1.825  16.256 -0.0592 -0.0077 -0.0258
10173TIP3    H152010   1.322   1.841  16.164  1.1441  1.3846  0.4551
10173TIP3    H252011   1.369   1.768  16.288  0.0732  0.3053  0.2524
10174TIP3   OH252012   3.030   4.509   6.511  0.0319 -0.1937 -0.4284
10174TIP3    H152013   3.060   4.438   6.454  0.8734 -0.6080  0.5016
10174TIP3    H252014   3.111   4.547   6.546 -0.2965  2.2453 -2.0530
10175TIP3   OH252015   5.121   3.917   1.791 -0.0028 -0.0395  0.4300
10175TIP3    H152016   5.102   3.962   1.708 -0.3190  2.5810  1.8105
10175TIP3    H252017   5.177   3.844   1.766  0.0360  0.7427 -2.0892
10176TIP3   OH252018   1.739   5.324   4.329 -0.0192 -0.0205  0.6786
10176TIP3    H152019   1.665   5.263   4.323  0.5622 -0.7606  0.9468
10176TIP3    H252020   1.800   5.294   4.261  0.9627 -0.6996  1.8319
10177TIP3   OH252021   6.319   5.623   4.250 -0.0736 -0.0638  1.0720
10177TIP3    H152022   6.368   5.653   4.327  2.6781 -2.0113  0.2387
10177TIP3    H252023   6.371   5.653   4.175 -0.8722 -1.0639  0.0885
10178TIP3   OH252024   2.976   2.442   4.115 -0.5791  0.3207  0.5033
10178TIP3    H152025   3.054   2.387   4.116 -0.7596 -0.0849 -1.7838
10178TIP3    H252026   2.989   2.504   4.186  0.9845 -0.8576  1.3007
10179TIP3   OH252027   6.001   0.380  15.814 -0.3472  0.1172 -0.5534
10179TIP3    H152028   6.004   0.419  15.901  0.2998 -2.7974  0.8622
10179TIP3    H252029   5.908   0.366  15.797 -0.4176 -1.0465  0.6015
10180TIP3   OH252030   1.552   2.431   0.072  0.0521  0.3727 -0.3697
10180TIP3    H152031   1.496   2.508   0.084  0.9760  1.0582 -0.2578
10180TIP3    H252032   1.492   2.359   0.054 -1.0425  0.5942  2.0062
10181TIP3   OH252033   6.300   0.588  13.449  0.2715  0.0987  0.2810
10181TIP3    H152034   6.268   0.619  13.534  1.0620 -1.0314  1.0223
10181TIP3    H252035   6.234   0.617  13.387  0.4462  2.3545  1.0368
10182TIP3   OH252036   3.872   4.759  11.457  0.2107  0.3177  0.0055
10182TIP3    H152037   3.892   4.849  11.430  0.6054  0.4298  0.6607
10182TIP3    H252038   3.957   4.719  11.475  0.0821 -0.3858 -0.8637
10183TIP3   OH252039   5.906   2.246   3.949 -0.7865  0.4442 -0.4023
10183TIP3    H152040   5.846   2.321   3.946  0.7429  1.7890  0.4264
10183TIP3    H252041   5.924   2.225   3.858 -0.4777  1.7692 -0.6663
10184TIP3   OH252042   1.650   5.907  13.474 -0.1655  0.1939 -0.6830
10184TIP3    H152043   1.724   5.855  13.444 -0.7902 -0.5906 -0.9182
10184TIP3    H252044   1.648   5.983  13.416  2.9353  2.4901  1.8375
10185TIP3   OH252045   1.968   5.815  16.898 -0.6399 -0.2095  0.3671
10185TIP3    H152046   1.988   5.908  16.902 -1.1414 -0.0815 -0.0508
10185TIP3    H252047   2.020   5.776  16.969  1.2844  0.0757 -0.8109
10186TIP3   OH252048   0.422   6.353  14.499  0.2525  0.3225  0.4065
10186TIP3    H152049   0.360   6.390  14.437  0.8201 -0.2506 -0.5384
10186TIP3    H252050   0.372   6.339  14.579 -0.9201 -0.3979 -0.4263
10187TIP3   OH252051   6.687   0.202   5.757  0.0767  0.3785  0.1089
10187TIP3    H152052   6.622   0.167   5.695 -0.8485  0.7386  0.8456
10187TIP3    H252053   6.656   0.174   5.843 -0.3172  2.3571  0.6658
10188TIP3   OH252054   4.958   3.640   2.571 -0.6263  0.0359 -0.2973
10188TIP3    H152055   4.992   3.556   2.540 -1.9914 -0.1996 -1.2189
10188TIP3    H252056   5.006   3.706   2.520  1.2633 -0.0718  1.2087
10189TIP3   OH252057   1.599   1.988  15.369 -0.0039 -0.1316  0.3783
10189TIP3    H152058   1.626   2.053  15.304 -0.2006 -0.4049  0.0207
10189TIP3    H252059   1.524   2.027  15.413  1.2310  0.8404  1.7036
10190TIP3   OH252060   1.000   6.827  15.304  0.3453 -0.3430 -0.1768
10190TIP3    H152061   1.082   6.867  15.331 -0.5798  0.3932  1.7749
10190TIP3    H252062   0.948   6.822  15.385 -2.4186  1.4461 -1.6441
10191TIP3   OH252063   0.038   0.375  11.367 -0.2245 -0.0991 -0.0563
10191TIP3    H152064   0.003   0.334  11.288  2.0970 -0.5319 -0.9215
10191TIP3    H252065   0.024   0.310  11.436  0.4520 -0.9938 -0.7466
10192TIP3   OH252066   5.341   1.017  15.285 -0.4030 -0.1342 -0.6777
10192TIP3    H152067   5.398   0.941  15.294  0.0205 -0.0674 -2.4637
10192TIP3    H252068   5.379   1.083  15.343 -1.5328 -1.6225  1.9629
10193TIP3   OH252069   3.786   6.464  15.163  0.1833 -0.0342  0.1099
10193TIP3    H152070   3.781   6.408  15.086 -0.5213 -1.1576  0.9570
10193TIP3    H252071   3.732   6.540  15.141  0.5812  0.0085 -0.7686
10194TIP3   OH252072   6.084   4.904   3.512 -0.6162 -0.2641  0.4231
10194TIP3    H152073   6.132   4.827   3.484  0.1748  0.3144  0.1369
10194TIP3    H252074   6.152   4.967   3.535 -1.2289  0.7763 -0.5158
10195TIP3   OH252075   1.027   2.911   2.934  0.3064  0.4379 -0.1686
10195TIP3    H152076   1.066   2.885   2.851 -1.5551 -1.5359 -0.5020
10195TIP3    H252077   0.967   2.982   2.912 -0.0482  0.0398 -0.4959
10196TIP3   OH252078   2.072   0.016  13.461  0.0636  0.3145 -0.0847
10196TIP3    H152079   2.097   0.062  13.381  0.0548 -1.7425 -1.3197
10196TIP3    H252080   1.984   0.049  13.481 -0.7570 -0.5637 -2.0554
10197TIP3   OH252081   3.284   1.305   2.223  0.5341 -0.0398 -0.5351
10197TIP3    H152082   3.348   1.314   2.294 -0.8481 -0.4047  0.8109
10197TIP3    H252083   3.333   1.327   2.144  2.1517  0.3102  0.5111
10198TIP3   OH252084   4.219   2.680   6.127  0.6961 -0.2339  0.1397
10198TIP3    H152085   4.279   2.654   6.197  0.6650 -0.4015  0.1030
10198TIP3    H252086   4.160   2.606   6.116  0.1039  0.1613  0.5830
10199TIP3   OH252087   6.248   3.361  12.979  0.3005  0.0687 -0.5496
10199TIP3    H152088   6.179   3.387  13.040  2.4479  0.7650  1.7390
10199TIP3    H252089   6.228   3.410  12.899 -1.1384  1.2694  0.4791
10200TIP3   OH252090   4.527   1.464  11.711  0.1510 -0.4349  0.3041
10200TIP3    H152091   4.444   1.449  11.667 -0.0945 -1.6365  1.1218
10200TIP3    H252092   4.525   1.556  11.736  0.1013  0.1591 -1.7262
10201TIP3   OH252093   4.343   2.997   2.330  0.3664 -0.4048  0.7004
10201TIP3    H152094   4.434   3.004   2.301  0.6136  0.4391  1.6104
10201TIP3    H252095   4.292   2.997   2.249  1.1603 -0.6132  0.1895
10202TIP3   OH252096   5.750   4.379  15.000  0.0241  0.6502 -0.0090
10202TIP3    H152097   5.687   4.365  14.930 -0.7108  2.9594  0.0992
10202TIP3    H252098   5.820   4.431  14.960  0.3165  0.7427  0.6074
10203TIP3   OH252099   0.243   6.722  15.801 -0.1161  0.3107  0.7545
10203TIP3    H152100   0.199   6.668  15.736  2.2382 -0.2503 -0.5099
10203TIP3    H252101   0.261   6.804  15.755  0.1802  0.5093  1.2175
10204TIP3   OH252102   1.526   3.988   5.488 -0.5315 -0.9864 -0.1743
10204TIP3    H152103   1.574   3.915   5.526 -2.2099 -2.4395 -0.7277
10204TIP3    H252104   1.591   4.059   5.483  1.0806 -2.3345  0.5949
10205TIP3   OH252105   1.413   6.820  16.354 -0.8177  0.3221 -0.0290
10205TIP3    H152106   1.438   6.877  16.281  0.4020 -1.5485 -1.1825
10205TIP3    H252107   1.359   6.752  16.314 -0.6608 -0.3890  0.9222
10206TIP3   OH252108   3.900   5.149  10.689  0.1389 -0.8792  0.3024
10206TIP3    H152109   3.873   5.067  10.731 -0.4082 -0.7031  0.3097
10206TIP3    H252110   3.832   5.166  10.624  1.3960 -1.5695 -1.2462
10207TIP3   OH252111   4.912   6.455   3.125  0.0348  0.2981  0.1518
10207TIP3    H152112   4.976   6.514   3.165  0.2120  0.8833 -0.9320
10207TIP3    H252113   4.957   6.371   3.121  0.1946  0.3539  0.7213
10208TIP3   OH252114   6.568   0.809   5.364  0.3722 -0.3812 -0.0412
10208TIP3    H152115   6.537   0.724   5.336 -1.5190  0.1863  0.2294
10208TIP3    H252116   6.620   0.791   5.443  0.2649 -1.2898 -0.1735
10209TIP3   OH252117   2.244   0.341   1.314  0.2777  0.1670 -0.2531
10209TIP3    H152118   2.208   0.378   1.233  1.9226  1.3872 -0.4653
10209TIP3    H252119   2.337   0.361   1.311  0.5102 -0.4148  1.6202
10210TIP3   OH252120   6.095   2.506   3.598 -0.1709  0.3027  0.4113
10210TIP3    H152121   6.008   2.514   3.559 -0.2766  0.4203  0.6687
10210TIP3    H252122   6.080   2.512   3.692  0.1559  0.6754  0.4434
10211TIP3   OH252123   5.368   6.712  16.352  0.5596 -0.5431 -0.3832
10211TIP3    H152124   5.398   6.735  16.264 -0.0876  0.6141 -0.3196
10211TIP3    H252125   5.390   6.619  16.361  1.3130 -0.4953 -1.4790
10212TIP3   OH252126   1.076   0.668   1.388 -0.3824  0.2553 -0.4725
10212TIP3    H152127   1.052   0.634   1.474  1.9522 -0.1326  0.0731
10212TIP3    H252128   1.064   0.763   1.395  1.1275  0.3810  0.7698
10213TIP3   OH252129   3.985   2.078   1.822  0.6199  0.3239 -0.9845
10213TIP3    H152130   4.045   2.152   1.833  1.3526 -0.4167  0.2384
10213TIP3    H252131   3.998   2.024   1.900 -1.6066  0.0880 -0.7025
10214TIP3   OH252132   2.683   5.745  12.412 -0.1134  0.4939  0.1391
10214TIP3    H152133   2.700   5.837  12.389  1.2575  0.3323  0.3812
10214TIP3    H252134   2.742   5.695  12.356 -2.0888 -0.3950 -1.2397
10215TIP3   OH252135   2.571   4.064   5.363 -0.5974  0.3354 -0.4180
10215TIP3    H152136   2.519   4.023   5.432 -3.3861  1.9345 -1.3786
10215TIP3    H252137   2.620   4.134   5.407  1.6503 -1.7879  0.6670
10216TIP3   OH252138   0.778   5.740  14.981  0.0338  0.5820  0.3368
10216TIP3    H152139   0.775   5.649  14.952 -1.3976  1.3422 -2.2541
10216TIP3    H252140   0.719   5.743  15.056 -0.1807 -0.5749  0.2369
10217TIP3   OH252141   1.901   3.163   2.299 -0.0587 -0.3290  0.1901
10217TIP3    H152142   1.934   3.082   2.260  1.1371 -0.2407  0.9503
10217TIP3    H252143   1.948   3.170   2.382  1.0088  1.9129 -0.5228
10218TIP3   OH252144   2.598   4.934  12.855  0.5225  0.0543 -0.3509
10218TIP3    H152145   2.583   4.840  12.856 -0.1681  0.0959 -2.2848
10218TIP3    H252146   2.693   4.943  12.863  0.4114 -0.5782  3.5251
10219TIP3   OH252147   1.334   0.993  14.526  0.0658  0.1778 -0.2892
10219TIP3    H152148   1.272   0.937  14.572  1.2229  0.0382  1.2187
10219TIP3    H252149   1.415   0.942  14.522  0.4176  0.7798 -1.1435
10220TIP3   OH252150   6.435   3.459  16.007 -0.0467 -0.0334 -0.2153
10220TIP3    H152151   6.349   3.476  15.971  0.2430 -0.3687 -1.0976
10220TIP3    H252152   6.421   3.451  16.101 -1.5774 -3.5295 -0.5951
10221TIP3   OH252153   1.709   4.489   1.843  0.8929 -0.0307 -0.0797
10221TIP3    H152154   1.764   4.553   1.798 -0.0369  0.0349 -1.1552
10221TIP3    H252155   1.645   4.543   1.890 -0.5336 -0.1213 -1.8010
10222TIP3   OH252156   6.740   2.233   2.861  0.1629 -0.8080  0.1578
10222TIP3    H152157   6.753   2.318   2.903 -1.4902  0.4797 -1.7526
10222TIP3    H252158   6.810   2.227   2.796  1.3821 -1.7964  1.5021
10223TIP3   OH252159   6.148   1.106  15.795 -0.7850 -0.5642  0.2841
10223TIP3    H152160   6.072   1.060  15.832 -2.2461  1.5311  0.0635
10223TIP3    H252161   6.176   1.165  15.865 -0.5171 -0.0309 -0.2673
10224TIP3   OH252162   5.421   2.925  15.007 -0.1671 -0.5549  0.2868
10224TIP3    H152163   5.451   2.937  15.097  0.0024 -2.1682  0.4799
10224TIP3    H252164   5.424   3.012  14.969  2.1055 -0.1939  1.1219
10225TIP3   OH252165   4.042   4.281   4.960 -0.2799 -0.3760  0.2973
10225TIP3    H152166   4.103   4.249   4.894 -1.3180  1.1795 -1.4904
10225TIP3    H252167   3.979   4.335   4.912 -0.7255  1.3446  2.6059
10226TIP3   OH252168   3.500   1.133   5.361 -0.2506 -0.1524  0.3486
10226TIP3    H152169   3.467   1.056   5.314 -0.6832 -0.0685  0.5173
10226TIP3    H252170   3.492   1.205   5.298  0.1473 -0.2390  0.1933
10227TIP3   OH252171   5.044   0.428  13.428  0.3579  0.5514 -0.0689
10227TIP3    H152172   5.006   0.472  13.352  0.0157 -1.7286 -1.2948
10227TIP3    H252173   4.970   0.419  13.489 -0.9209 -2.5710 -1.8509
10228TIP3   OH252174   5.378   3.914   5.169 -0.3083  0.5446  0.5838
10228TIP3    H152175   5.412   4.001   5.148 -2.3241  1.4422  0.8048
10228TIP3    H252176   5.378   3.868   5.085  1.7881  0.3304  0.6469
10229TIP3   OH252177   5.338   0.632  11.328 -0.3232  0.0361 -0.2301
10229TIP3    H152178   5.273   0.683  11.377  0.3265  1.0877 -0.4479
10229TIP3    H252179   5.310   0.541  11.340 -1.4240  0.4216  0.2765
10230TIP3   OH252180   6.688   4.104  15.989  0.2062  0.0023 -0.0529
10230TIP3    H152181   6.696   4.195  15.961  0.3924  0.3515  1.0973
10230TIP3    H252182   6.726   4.102  16.077  0.9757 -1.3495 -0.3815
10231TIP3   OH252183   1.084   6.559   2.409  0.2446 -0.3456  0.3134
10231TIP3    H152184   1.001   6.571   2.362  1.0428  0.8091 -0.8631
10231TIP3    H252185   1.071   6.603   2.493 -1.2891 -2.6474  1.4098
10232TIP3   OH252186   5.248   4.812   1.962  0.0194 -0.1409 -0.7053
10232TIP3    H152187   5.290   4.879   1.908 -1.0491 -0.4354 -1.9302
10232TIP3    H252188   5.157   4.841   1.972 -0.2621 -1.0197 -0.5988
10233TIP3   OH252189   3.467   1.487   6.408 -0.6460 -0.1463  0.5441
10233TIP3    H152190   3.502   1.401   6.432  1.7456  1.4112  3.3051
10233TIP3    H252191   3.507   1.506   6.323 -0.2672 -1.2825  0.4514
10234TIP3   OH252192   0.885   6.465   0.735  0.5945 -0.2183  0.0197
10234TIP3    H152193   0.850   6.552   0.752 -1.5280 -0.5379 -2.0331
10234TIP3    H252194   0.826   6.406   0.783 -0.3935 -0.6499 -1.6262
10235TIP3   OH252195   2.783   6.128   3.198  0.4620  0.2773  0.7360
10235TIP3    H152196   2.728   6.056   3.170 -0.6764  0.7639  1.6296
10235TIP3    H252197   2.863   6.087   3.231  0.4248 -0.4704 -0.0951
10236TIP3   OH252198   4.189   6.692  14.007 -0.0751 -0.2132 -0.1234
10236TIP3    H152199   4.220   6.629  13.942 -1.9808  0.3360 -1.6499
10236TIP3    H252200   4.224   6.776  13.977 -1.8363  0.2103 -1.1302
10237TIP3   OH252201   2.070   5.907  12.940 -0.3774  0.6445  0.7454
10237TIP3    H152202   2.008   5.870  12.877 -0.1985 -0.0190  0.9495
10237TIP3    H252203   2.104   5.985  12.897  0.6411 -0.4430 -0.5107
10238TIP3   OH252204   4.517   6.131  14.017  0.1557 -0.4493  0.3994
10238TIP3    H152205   4.513   6.113  14.111 -2.0671 -1.8662  0.1146
10238TIP3    H252206   4.496   6.225  14.010  2.6452  0.2513  1.3873
10239TIP3   OH252207   4.869   0.274  14.019 -0.4421 -0.5081  0.1268
10239TIP3    H152208   4.959   0.289  13.991 -0.0469 -1.0280  1.0942
10239TIP3    H252209   4.844   0.355  14.064 -1.7601  1.1784 -3.2305
10240TIP3   OH252210   2.012   5.363   1.025  0.0260  0.7076  0.1727
10240TIP3    H152211   2.011   5.448   1.068 -0.9150  2.5052 -3.0291
10240TIP3    H252212   2.103   5.353   0.994  0.0855  0.6481  0.3668
10241TIP3   OH252213   5.366   5.387   5.253  0.1367 -0.1096  0.3411
10241TIP3    H152214   5.328   5.330   5.320  1.6860 -0.1731  1.2198
10241TIP3    H252215   5.460   5.365   5.254  0.9855  2.9703  1.3189
10242TIP3   OH252216   0.683   5.713   5.441  0.1593  0.1290 -0.5559
10242TIP3    H152217   0.616   5.764   5.396  0.0016 -0.2032 -0.6991
10242TIP3    H252218   0.714   5.651   5.375 -1.1174 -1.3795  0.1845
10243TIP3   OH252219   3.171   5.684  13.348 -0.5135  0.0216 -0.5107
10243TIP3    H152220   3.252   5.638  13.327 -0.7217 -0.9661  0.7433
10243TIP3    H252221   3.174   5.696  13.443 -1.0829  1.4426 -0.6428
10244TIP3   OH252222   6.824   2.079  15.920  0.5392 -0.0356 -0.1134
10244TIP3    H152223   6.878   2.001  15.914  0.6709 -0.0600  1.0963
10244TIP3    H252224   6.841   2.127  15.839 -0.3448 -1.7436 -1.3698
10245TIP3   OH252225   6.787   2.166  12.664  0.0530 -0.1353  0.5032
10245TIP3    H152226   6.764   2.213  12.744  0.2076  0.9899 -0.0915
10245TIP3    H252227   6.711   2.178  12.607  0.1522 -0.4886  0.2985
10246TIP3   OH252228   2.638   1.436   3.129  0.4535  0.9279  0.1633
10246TIP3    H152229   2.718   1.412   3.174  1.0773  1.3879 -0.6694
10246TIP3    H252230   2.596   1.352   3.109  2.2670  0.4629 -2.0987
10247TIP3   OH252231   4.472   1.005  16.766 -0.0507  0.0722 -0.1163
10247TIP3    H152232   4.386   1.029  16.800 -0.0431 -0.6243  0.4306
10247TIP3    H252233   4.534   1.054  16.820 -0.1231  1.3411 -1.1601
10248TIP3   OH252234   4.171   5.033   4.180  0.0265 -0.4186 -0.1309
10248TIP3    H152235   4.079   5.034   4.156  0.6064  0.0249 -2.6019
10248TIP3    H252236   4.196   5.125   4.185  0.1224 -0.5043  1.6432
10249TIP3   OH252237   3.644   0.378  12.075  0.1929  0.1251  0.4378
10249TIP3    H152238   3.557   0.362  12.038  0.4274  0.0494 -0.0951
10249TIP3    H252239   3.642   0.470  12.102  1.0667  1.3003 -2.8929
10250TIP3   OH252240   1.411   0.964   3.858  0.2402 -0.5588  0.1259
10250TIP3    H152241   1.429   1.051   3.894 -0.4542  0.1476 -1.1359
10250TIP3    H252242   1.354   0.922   3.922 -1.5945  0.9440 -0.4240
10251TIP3   OH252243   0.994   4.169   1.844  0.2485  0.0705 -0.4383
10251TIP3    H152244   0.971   4.244   1.899  0.2703  0.9723 -1.6181
10251TIP3    H252245   0.911   4.139   1.808  0.2708 -0.3254 -0.1688
10252TIP3   OH252246   5.204   3.865  10.720  0.0198  0.0817  0.5326
10252TIP3    H152247   5.257   3.884  10.642  0.7396  1.2316  1.2760
10252TIP3    H252248   5.226   3.775  10.742 -1.4747 -0.8772 -1.5455
10253TIP3   OH252249   3.907   0.746  10.928  0.1498 -0.2564  0.6466
10253TIP3    H152250   3.841   0.677  10.930  0.8022 -1.0169 -1.4677
10253TIP3    H252251   3.877   0.805  10.859  0.6429  0.5146  1.0789
10254TIP3   OH252252   0.193   1.740  16.084  0.1561 -0.6500 -0.2572
10254TIP3    H152253   0.195   1.648  16.113  2.8718 -0.6507 -0.2454
10254TIP3    H252254   0.183   1.790  16.165 -1.6984 -0.8922 -0.2957
10255TIP3   OH252255   1.708   4.826   6.074 -0.2299 -0.0122  0.0414
10255TIP3    H152256   1.739   4.749   6.122 -0.3615 -0.9347 -1.3080
10255TIP3    H252257   1.707   4.896   6.140 -1.3286 -1.4387  1.6526
10256TIP3   OH252258   5.963   0.885  12.125  1.1142  0.1973 -0.2803
10256TIP3    H152259   6.050   0.870  12.088  1.2988 -1.0804  0.5884
10256TIP3    H252260   5.973   0.962  12.181  2.2134 -1.0677  1.3477
10257TIP3   OH252261   4.949   0.974  16.549 -0.1726  0.2235  0.0846
10257TIP3    H152262   5.041   0.971  16.522 -0.4574  0.4073 -0.9241
10257TIP3    H252263   4.934   1.065  16.573  0.4393 -0.1791  2.2357
10258TIP3   OH252264   3.527   4.505  14.650  0.0363  0.4793 -0.1011
10258TIP3    H152265   3.573   4.530  14.730 -2.1525 -0.9695  1.7451
10258TIP3    H252266   3.475   4.429  14.675  0.5317 -1.1329 -3.3828
10259TIP3   OH252267   2.269   4.290   5.216  0.1946 -0.3237  1.0251
10259TIP3    H152268   2.297   4.375   5.181  0.6672 -1.0561 -0.4628
10259TIP3    H252269   2.216   4.252   5.147  0.6767 -1.5950  1.3177
10260TIP3   OH252270   0.673   1.105  15.431 -0.3195  0.0289  0.2976
10260TIP3    H152271   0.739   1.040  15.405  1.0519  0.9986  1.1781
10260TIP3    H252272   0.706   1.188  15.395 -1.4937  0.4068  0.0635
10261TIP3   OH252273   5.421   5.401   4.933 -0.3814  0.2467  0.3228
10261TIP3    H152274   5.370   5.441   4.862 -1.9349  0.3086  1.4317
10261TIP3    H252275   5.356   5.370   4.995  0.9312 -0.1944  1.5352
10262TIP3   OH252276   1.372   3.886   4.335 -0.6806  0.8032 -0.1347
10262TIP3    H152277   1.371   3.790   4.328 -2.1386  0.7359  0.6037
10262TIP3    H252278   1.463   3.907   4.357 -0.6141 -0.5314  1.0496
10263TIP3   OH252279   1.670   0.926  12.285 -0.0521  0.5815 -0.5615
10263TIP3    H152280   1.606   0.946  12.217 -0.7816 -0.5056 -0.2260
10263TIP3    H252281   1.678   1.007  12.336 -2.3248  0.3404  0.3089
10264TIP3   OH252282   6.210   4.282  10.760  0.3173  0.4818 -0.0338
10264TIP3    H152283   6.278   4.295  10.695 -0.0274  1.5858 -0.1928
10264TIP3    H252284   6.149   4.355  10.747 -0.5496 -0.1117  0.5344
10265TIP3   OH252285   2.804   5.373  15.508  0.2997 -0.2141 -0.6352
10265TIP3    H152286   2.719   5.364  15.465  0.5438  1.3872 -1.4945
10265TIP3    H252287   2.863   5.318  15.457  0.0031 -0.5164 -0.6554
10266TIP3   OH252288   5.523   0.071  12.843 -0.5568 -0.1413  0.2553
10266TIP3    H152289   5.499  -0.021  12.856 -1.5372  0.1197  0.3212
10266TIP3    H252290   5.494   0.091  12.754 -0.7777  0.2336  0.4087
10267TIP3   OH252291   4.787   6.786  12.214  0.3442  0.1786 -0.2209
10267TIP3    H152292   4.720   6.848  12.241  0.6349 -0.2683  1.6454
10267TIP3    H252293   4.740   6.705  12.197  0.3203  0.0593  0.4008
10268TIP3   OH252294   5.099   1.771   5.021 -0.5385  0.2626  0.6989
10268TIP3    H152295   5.144   1.747   4.940 -0.1065  0.7798  0.7881
10268TIP3    H252296   5.128   1.706   5.085  0.6413  1.0170  0.9436
10269TIP3   OH252297   6.126   1.038  16.520 -0.1645 -0.1342 -0.0636
10269TIP3    H152298   6.096   1.120  16.559  0.8902 -0.2297  1.0110
10269TIP3    H252299   6.222   1.044  16.523 -0.0130 -0.2301 -2.5177
10270TIP3   OH252300   0.064   5.149   4.834 -0.5041 -0.1334 -0.7345
10270TIP3    H152301   0.109   5.080   4.785  0.7387 -1.9354  2.5541
10270TIP3    H252302  -0.015   5.167   4.784 -0.3821 -3.2386 -2.3022
10271TIP3   OH252303   5.328   0.824   5.485  0.4158 -0.1126 -0.4236
10271TIP3    H152304   5.321   0.731   5.464 -2.4082 -0.1944  0.5514
10271TIP3    H252305   5.274   0.868   5.420 -1.8082  0.3546  1.6012
10272TIP3   OH252306   5.502   2.447   5.347 -0.8572 -0.2331  0.9538
10272TIP3    H152307   5.584   2.401   5.365 -0.3576  0.3585  0.2437
10272TIP3    H252308   5.456   2.390   5.284  0.2506  0.7108 -0.7865
10273TIP3   OH252309   5.649   6.129   4.192  0.3076  0.3555 -0.2503
10273TIP3    H152310   5.573   6.079   4.220  0.1402  0.3681 -0.6879
10273TIP3    H252311   5.696   6.070   4.133 -1.0897  1.4949 -2.6168
10274TIP3   OH252312   1.094   5.859  14.605 -0.2406 -0.1964  0.4173
10274TIP3    H152313   1.085   5.929  14.540 -2.4210 -0.6787  0.1232
10274TIP3    H252314   1.012   5.861  14.654 -0.9806 -3.3641 -0.4841
10275TIP3   OH252315   6.509   3.718  17.015 -0.3394 -0.2553 -0.0186
10275TIP3    H152316   6.533   3.625  17.018 -0.6875 -0.3409  0.1750
10275TIP3    H252317   6.416   3.720  17.037 -0.5022  0.0831 -0.7173
10276TIP3   OH252318   3.320   3.854  13.907 -0.4273  0.1532 -0.4769
10276TIP3    H152319   3.287   3.784  13.963 -0.3271  0.7269  0.3062
10276TIP3    H252320   3.412   3.832  13.893 -0.0658  0.7908  0.8117
10277TIP3   OH252321   0.893   6.204   1.081 -0.7465 -0.1070  0.0356
10277TIP3    H152322   0.825   6.165   1.135 -0.5613 -0.9575 -0.3277
10277TIP3    H252323   0.873   6.175   0.992 -0.3094  0.2163 -0.1744
10278TIP3   OH252324   4.245   6.308   5.115  0.0556  0.3198  1.0428
10278TIP3    H152325   4.241   6.397   5.082  0.3083  0.3126  0.9852
10278TIP3    H252326   4.286   6.316   5.202 -1.4212  0.4396  1.7577
10279TIP3   OH252327   3.629   6.571  16.567 -0.1913  0.3802 -0.0194
10279TIP3    H152328   3.627   6.488  16.616 -1.2011  0.6153  0.3723
10279TIP3    H252329   3.667   6.548  16.483 -1.7535 -0.8205 -0.4665
10280TIP3   OH252330   4.978   6.066  12.432 -0.1368  0.3771  0.4737
10280TIP3    H152331   4.993   6.123  12.356  1.0294 -0.4010  0.0975
10280TIP3    H252332   4.926   6.120  12.492  1.0891  1.9349  0.2131
10281TIP3   OH252333   0.571   4.157  13.335  0.1182 -0.1539  0.0197
10281TIP3    H152334   0.581   4.235  13.388  2.1767 -1.3333  1.5007
10281TIP3    H252335   0.593   4.185  13.246 -1.0025  1.3044  0.1603
10282TIP3   OH252336   6.382   6.366  13.878 -0.2314  0.5119 -0.5238
10282TIP3    H152337   6.451   6.300  13.884 -0.4361  0.3609  0.3741
10282TIP3    H252338   6.372   6.383  13.784 -0.8750 -1.4717 -0.8441
10283TIP3   OH252339   6.084   0.573  14.202  0.4836 -0.1018 -0.0970
10283TIP3    H152340   6.098   0.659  14.242  1.8093 -0.1320 -0.4736
10283TIP3    H252341   6.031   0.592  14.124 -2.0903 -0.0403  1.5480
10284TIP3   OH252342   2.033   5.829   3.205 -0.5816  0.7815  0.5087
10284TIP3    H152343   2.086   5.761   3.247  0.2196  1.7826  1.1648
10284TIP3    H252344   2.015   5.892   3.274 -0.8984  1.4956 -0.2080
10285TIP3   OH252345   0.555   4.594   4.020 -0.4022  0.5224 -0.3862
10285TIP3    H152346   0.542   4.659   3.951  0.4559  0.7914 -0.3066
10285TIP3    H252347   0.607   4.525   3.978 -1.4550 -0.2049 -0.5198
10286TIP3   OH252348   5.536   0.334  16.038 -0.0318 -0.2254 -0.2507
10286TIP3    H152349   5.520   0.353  16.130 -2.7463  0.6646 -0.8330
10286TIP3    H252350   5.617   0.382  16.018  0.0460  0.4075  1.3907
10287TIP3   OH252351   0.773   0.786   4.557 -0.4275  0.3703  0.1406
10287TIP3    H152352   0.796   0.879   4.552  0.7810  0.2366  2.2689
10287TIP3    H252353   0.716   0.779   4.634 -0.7942 -0.6200 -0.2015
10288TIP3   OH252354   2.801   5.018  16.152 -0.7057  0.0957 -0.2089
10288TIP3    H152355   2.827   4.984  16.067 -0.4054 -0.3337  0.0484
10288TIP3    H252356   2.842   4.958  16.215 -0.7304  0.5439  0.2395
10289TIP3   OH252357   0.585   1.780  17.181  0.4095  0.2824  0.2926
10289TIP3    H152358   0.518   1.724  17.218  0.6172  0.4523  0.9325
10289TIP3    H252359   0.541   1.827  17.110 -0.3129  0.8443  1.1018
10290TIP3   OH252360   2.558   1.753  16.244 -0.3798  0.1233 -0.0489
10290TIP3    H152361   2.582   1.672  16.199  2.5415  0.5072  0.6244
10290TIP3    H252362   2.518   1.723  16.326  0.3126 -0.6565  0.0202
10291TIP3   OH252363   1.450   5.777  16.183 -0.6292 -0.5435 -0.4944
10291TIP3    H152364   1.503   5.817  16.114 -0.0765  0.1264  0.2919
10291TIP3    H252365   1.360   5.797  16.158 -0.3762  0.9911 -0.2727
10292TIP3   OH252366   0.212   3.094   5.815  0.5650 -0.1731 -0.2528
10292TIP3    H152367   0.212   3.074   5.721 -1.0360 -0.5575 -0.2086
10292TIP3    H252368   0.125   3.067   5.845  1.7720 -2.1099  1.8056
10293TIP3   OH252369   2.186   2.133   4.859 -0.3056 -0.1914  0.0680
10293TIP3    H152370   2.176   2.039   4.846 -0.4714  0.0193 -1.5052
10293TIP3    H252371   2.150   2.149   4.947  1.0360 -1.7686  0.9717
10294TIP3   OH252372   2.458   2.066   3.157 -0.0062  0.0761  0.3695
10294TIP3    H152373   2.485   2.058   3.248  1.3667  0.2524  0.0139
10294TIP3    H252374   2.374   2.022   3.152 -0.2476  0.3281  1.7812
10295TIP3   OH252375   0.753   0.553  16.045  0.5567  0.6839  0.3601
10295TIP3    H152376   0.756   0.637  16.092  2.6354  0.4621  0.6970
10295TIP3    H252377   0.739   0.488  16.114 -0.1524  0.6673  0.2057
10296TIP3   OH252378   3.566   2.375  17.052 -0.0171  0.5223 -0.0193
10296TIP3    H152379   3.613   2.458  17.062 -0.2677  0.7751 -0.8288
10296TIP3    H252380   3.624   2.309  17.090  0.2941  1.0373  0.4054
10297TIP3   OH252381   6.434   4.168   4.677  0.3224 -0.0421  0.4327
10297TIP3    H152382   6.501   4.156   4.610 -0.4789 -1.2228 -0.2044
10297TIP3    H252383   6.440   4.090   4.732 -1.0089 -0.5633 -0.1075
10298TIP3   OH252384   6.576   2.087   4.758 -0.5195 -0.0067 -0.1177
10298TIP3    H152385   6.546   2.025   4.824  0.1071 -1.4300 -1.1036
10298TIP3    H252386   6.669   2.067   4.748 -0.2263  1.3254 -0.2551
10299TIP3   OH252387   0.642   0.268  13.783  0.1342  0.0337  0.1119
10299TIP3    H152388   0.673   0.256  13.873 -2.5630 -1.2563  0.9843
10299TIP3    H252389   0.714   0.238  13.728  1.2835 -0.6075  1.8833
10300TIP3   OH252390   0.619   3.465  10.562  0.8269 -0.0842  0.6392
10300TIP3    H152391   0.544   3.431  10.611 -0.4847  1.4678 -0.2007
10300TIP3    H252392   0.660   3.527  10.622 -0.3164  1.2316  0.1046
10301TIP3   OH252393   0.859   2.016   0.813 -0.0661 -0.4549 -0.0963
10301TIP3    H152394   0.858   2.053   0.902  2.0300  1.7106 -0.8716
10301TIP3    H252395   0.853   2.092   0.756 -0.8106 -1.7720 -1.8713
10302TIP3   OH252396   2.563   3.583  15.748 -0.2455 -0.3212  0.5857
10302TIP3    H152397   2.567   3.606  15.841 -0.4623 -1.5656  0.9200
10302TIP3    H252398   2.472   3.554  15.735 -0.1743 -0.2952  0.0219
10303TIP3   OH252399   4.066   0.799  12.671  0.1998  0.5212 -0.1075
10303TIP3    H152400   4.045   0.881  12.626 -0.3255  0.3763 -0.1366
10303TIP3    H252401   3.984   0.750  12.671  0.1678  0.5444  1.0614
10304TIP3   OH252402   0.036   4.575  13.833 -0.5272  0.3494  0.3570
10304TIP3    H152403   0.002   4.660  13.803  1.1115  1.1285  0.5961
10304TIP3    H252404   0.131   4.586  13.832 -0.3231 -0.6121  2.8124
10305TIP3   OH252405   2.065   5.100  12.838  0.2736  0.1874 -0.2290
10305TIP3    H152406   2.033   5.172  12.784 -0.2471 -0.4778 -0.8338
10305TIP3    H252407   2.137   5.062  12.787 -0.6471 -0.8559 -0.7875
10306TIP3   OH252408   2.596   3.940   0.191 -0.5000  0.8444  0.2954
10306TIP3    H152409   2.638   4.004   0.133 -1.7081  2.2365  0.8832
10306TIP3    H252410   2.582   3.988   0.273  1.8924 -1.2805  2.1216
10307TIP3   OH252411   1.252   1.937  14.177 -0.4820 -0.3385 -0.1999
10307TIP3    H152412   1.308   1.892  14.239 -0.8956 -1.1057 -0.3736
10307TIP3    H252413   1.167   1.942  14.221 -0.7527 -0.8014 -0.6624
10308TIP3   OH252414   1.526   3.055  11.997 -0.1581 -0.4137  0.8256
10308TIP3    H152415   1.571   3.120  12.050  2.5061 -0.0848 -1.6237
10308TIP3    H252416   1.566   2.971  12.021  0.1713 -0.4322  0.2109
10309TIP3   OH252417   1.774   6.081   3.865  0.1492  0.3551  0.2194
10309TIP3    H152418   1.809   6.138   3.934  1.0185 -1.3058  1.1963
10309TIP3    H252419   1.680   6.079   3.881  0.3312  0.0822  1.2864
10310TIP3   OH252420   1.990   4.121   5.522 -0.8733 -0.7046  0.3455
10310TIP3    H152421   2.041   4.052   5.480  0.4169 -0.0549  0.7893
10310TIP3    H252422   1.993   4.100   5.615  0.6179  0.5738  0.6403
10311TIP3   OH252423   5.492   1.124   5.330 -0.1986 -0.7906  0.5705
10311TIP3    H152424   5.565   1.075   5.293  0.4967 -0.9873  2.0990
10311TIP3    H252425   5.414   1.076   5.302  0.4026 -2.0233  0.9372
10312TIP3   OH252426   6.533   4.024   3.487  0.0551 -0.1946 -0.3180
10312TIP3    H152427   6.447   4.021   3.447  0.0324 -0.0904 -0.2780
10312TIP3    H252428   6.518   4.059   3.575  0.1556 -0.0514 -0.3579
10313TIP3   OH252429   0.198   4.267   0.194  0.9484  0.0406 -0.0950
10313TIP3    H152430   0.254   4.309   0.129  0.1401  1.1748 -0.0836
10313TIP3    H252431   0.238   4.181   0.208  1.8119  0.2424 -1.1968
10314TIP3   OH252432   4.599   4.293  16.155  0.2641  0.2530  0.3255
10314TIP3    H152433   4.590   4.303  16.060 -0.9245  0.7925  0.4643
10314TIP3    H252434   4.608   4.383  16.188 -2.3905  0.4108  0.9299
10315TIP3   OH252435   5.935   5.337   2.609 -0.0055 -0.1131 -0.0852
10315TIP3    H152436   5.966   5.281   2.538  0.9906  0.8704 -0.4470
10315TIP3    H252437   6.008   5.395   2.629 -1.0607  1.2063  0.1307
10316TIP3   OH252438   6.632   6.315  13.603 -0.4412  0.1322  0.0140
10316TIP3    H152439   6.680   6.343  13.525  1.4631 -1.7468  0.4100
10316TIP3    H252440   6.590   6.233  13.577 -1.2926  0.4291  0.4413
10317TIP3   OH252441   5.277   5.205  12.679 -0.4291 -0.2636  0.5160
10317TIP3    H152442   5.190   5.208  12.718 -0.5366  1.2825  0.2526
10317TIP3    H252443   5.274   5.132  12.618 -2.0812  0.7075 -0.6415
10318TIP3   OH252444   0.329   3.645  15.537  0.1979 -0.1416  0.4682
10318TIP3    H152445   0.402   3.607  15.488 -0.3459 -1.0843  0.3623
10318TIP3    H252446   0.368   3.674  15.619  0.3835 -2.4597  1.2745
10319TIP3   OH252447   5.064   3.935  16.388 -0.4241 -0.4626  0.0795
10319TIP3    H152448   4.995   3.961  16.327 -1.0596  0.5324  1.1645
10319TIP3    H252449   5.044   3.984  16.468  0.5981 -1.4300  0.9579
10320TIP3   OH252450   6.296   4.645   3.228 -0.0386 -0.3813  0.1547
10320TIP3    H152451   6.229   4.709   3.205 -0.4806 -0.6250  0.7377
10320TIP3    H252452   6.284   4.631   3.322  0.0602 -1.3171  0.0325
10321TIP3   OH252453   3.344   2.480   0.979 -0.7327  0.6659  0.1494
10321TIP3    H152454   3.322   2.503   1.069 -0.2673  0.6576  0.2669
10321TIP3    H252455   3.338   2.384   0.977  0.8299  0.5291  0.6059
10322TIP3   OH252456   1.293   4.809   3.646 -0.3755 -0.1351 -0.0735
10322TIP3    H152457   1.212   4.809   3.698 -0.0799 -2.4524  0.5190
10322TIP3    H252458   1.281   4.881   3.584 -1.1880  2.1212  2.4770
10323TIP3   OH252459   3.063   5.918   2.218 -0.7732  0.1479 -0.2078
10323TIP3    H152460   3.090   5.932   2.127 -2.4371 -0.5541 -0.8518
10323TIP3    H252461   3.144   5.927   2.268  0.0700  1.2903 -1.6678
10324TIP3   OH252462   0.233   6.233   0.106  0.2708  0.3335  0.2141
10324TIP3    H152463   0.176   6.162   0.136 -1.8854  2.6929  2.1875
10324TIP3    H252464   0.306   6.189   0.064 -1.5994 -2.9852  0.1034
10325TIP3   OH252465   0.787   4.159   0.207  0.1461  0.3378 -0.7494
10325TIP3    H152466   0.817   4.137   0.119  1.7311  0.7653 -0.3395
10325TIP3    H252467   0.860   4.206   0.246 -0.4738  0.0159  0.8550
10326TIP3   OH252468   3.468   3.691   2.433  0.0757  0.3531  0.2386
10326TIP3    H152469   3.388   3.663   2.389  0.6191  0.5333 -0.9032
10326TIP3    H252470   3.523   3.726   2.363  0.1536  2.5932  1.3488
10327TIP3   OH252471   3.804   2.967   4.655  0.2935  0.3723  0.4687
10327TIP3    H152472   3.879   2.943   4.602 -0.5328  1.1099 -1.0906
10327TIP3    H252473   3.841   3.019   4.727  1.4038 -0.4773  0.5295
10328TIP3   OH252474   4.238   3.782  12.185  0.6394 -1.1263 -0.1918
10328TIP3    H152475   4.222   3.867  12.146  2.4125 -0.2801  0.8062
10328TIP3    H252476   4.158   3.732  12.169  0.0420  0.3048 -1.8492
10329TIP3   OH252477   2.276   5.175  14.292  0.7683  0.4318  0.0191
10329TIP3    H152478   2.284   5.251  14.234 -0.3923  0.3565 -0.2476
10329TIP3    H252479   2.226   5.207  14.367 -0.7580 -0.3546 -0.6331
10330TIP3   OH252480   5.582   1.463  13.417 -0.5475  0.1017 -0.2289
10330TIP3    H152481   5.616   1.490  13.332 -0.0526 -0.1094 -0.1030
10330TIP3    H252482   5.657   1.424  13.462 -0.8516  0.0261  0.2261
10331TIP3   OH252483   0.989   1.882  14.674 -0.2313  0.6270 -0.2065
10331TIP3    H152484   1.030   1.954  14.625  0.8810 -0.2688 -0.6326
10331TIP3    H252485   0.964   1.922  14.758 -0.2108  1.6568 -0.6695
10332TIP3   OH252486   1.513   6.087   4.984 -0.4756  0.7225  0.0223
10332TIP3    H152487   1.485   6.080   4.893 -0.7551 -1.0982  0.2025
10332TIP3    H252488   1.461   6.159   5.020  0.8300  2.5998 -1.6322
10333TIP3   OH252489   3.198   5.036   0.751  0.1104 -0.3515 -0.1842
10333TIP3    H152490   3.285   5.010   0.779 -0.0984  0.0529  0.9029
10333TIP3    H252491   3.206   5.051   0.656  1.1637 -0.5033 -0.1268
10334TIP3   OH252492   4.158   0.394  11.019  0.9856 -0.4142 -0.0974
10334TIP3    H152493   4.183   0.324  10.959 -1.2253 -1.2677 -0.1207
10334TIP3    H252494   4.147   0.351  11.103 -0.8447 -0.2509 -0.2061
10335TIP3   OH252495   5.712   3.468  13.590  0.0683 -0.5689  0.1398
10335TIP3    H152496   5.650   3.490  13.659 -0.1306 -2.3547  0.5604
10335TIP3    H252497   5.670   3.397  13.541  1.1440 -0.8057 -0.4714
10336TIP3   OH252498   4.808   1.103  13.494 -0.0702 -0.4967 -0.5222
10336TIP3    H152499   4.775   1.060  13.573  0.0439 -0.2689 -0.3489
10336TIP3    H252500   4.889   1.145  13.522  0.2159 -0.8099 -0.8776
10337TIP3   OH252501   5.851   5.875  16.043  0.1485 -0.0660  0.0235
10337TIP3    H152502   5.829   5.851  15.953  0.8166  0.2284 -0.2296
10337TIP3    H252503   5.914   5.808  16.071  0.6033  0.3353 -0.0352
10338TIP3   OH252504   3.478   5.709   1.296 -0.1669 -0.0072  0.5264
10338TIP3    H152505   3.514   5.769   1.231  1.2113 -0.5872  0.6978
10338TIP3    H252506   3.422   5.649   1.246  0.9764 -0.5292 -0.1802
10339TIP3   OH252507   6.527   1.197   3.729  0.0207 -0.3036  0.0061
10339TIP3    H152508   6.576   1.168   3.652 -0.4246  1.0537 -0.8217
10339TIP3    H252509   6.589   1.190   3.802  1.5317  1.4668 -1.0281
10340TIP3   OH252510   5.307   3.434   2.104 -0.3837  0.2975 -0.4679
10340TIP3    H152511   5.325   3.461   2.195 -0.0235 -2.1876  0.2724
10340TIP3    H252512   5.233   3.375   2.111 -0.4293  0.1707 -1.8302
10341TIP3   OH252513   3.308   5.116   3.827  0.3310 -0.1629  0.3796
10341TIP3    H152514   3.273   5.028   3.841 -3.6163  1.0572 -0.5212
10341TIP3    H252515   3.244   5.159   3.770  2.9537  2.7930 -0.6331
10342TIP3   OH252516   2.827   1.602   4.886  0.4351 -0.4679  0.2672
10342TIP3    H152517   2.807   1.546   4.811 -2.0228 -0.8674  1.1361
10342TIP3    H252518   2.871   1.544   4.949  1.6620 -0.3502 -0.4448
10343TIP3   OH252519   5.864   4.322   2.143 -0.4260  0.1898 -0.4369
10343TIP3    H152520   5.897   4.407   2.173 -1.9331  0.2993  1.0332
10343TIP3    H252521   5.931   4.259   2.171 -0.6922  0.5734  1.1181
10344TIP3   OH252522   1.696   3.770   5.404  0.5178 -0.0209  0.3866
10344TIP3    H152523   1.693   3.674   5.411 -2.3328  0.0759  2.3325
10344TIP3    H252524   1.730   3.798   5.489 -0.8177  0.6882  0.7162
10345TIP3   OH252525   0.336   0.703   4.099  0.0933  0.4750  0.4401
10345TIP3    H152526   0.406   0.643   4.123  0.7974 -0.1746 -2.7762
10345TIP3    H252527   0.355   0.783   4.148  0.3701 -1.1390  3.1488
10346TIP3   OH252528   2.356   5.178  15.106  0.0438  0.0228  0.0970
10346TIP3    H152529   2.310   5.100  15.076 -0.6418  0.2862  0.4402
10346TIP3    H252530   2.446   5.149  15.121 -0.4567 -0.9803  1.2796
10347TIP3   OH252531   6.441   0.618   4.674  0.1686 -0.3393  0.1447
10347TIP3    H152532   6.353   0.619   4.637  0.9112  2.2272 -1.8484
10347TIP3    H252533   6.465   0.525   4.676 -1.4781 -0.8843 -2.0692
10348TIP3   OH252534   3.199   4.143  16.252 -0.0508 -0.5211  0.4521
10348TIP3    H152535   3.231   4.180  16.170 -2.9195  0.7975 -0.2026
10348TIP3    H252536   3.242   4.058  16.259  1.7672  0.1859 -1.3861
10349TIP3   OH252537   4.911   0.257   2.935 -0.1017 -0.1057 -0.4550
10349TIP3    H152538   4.913   0.318   2.861  1.5378 -0.9929 -1.2031
10349TIP3    H252539   4.938   0.310   3.010  1.4010  0.1251 -1.1134
10350TIP3   OH252540   1.907   6.067   1.071  0.4511  0.0373 -0.4571
10350TIP3    H152541   1.895   6.129   0.999 -2.6214  0.0120 -0.0769
10350TIP3    H252542   1.890   5.982   1.031  0.9685 -0.2125 -0.1528
10351TIP3   OH252543   0.773   5.325  12.366 -0.3627 -0.2536  0.4950
10351TIP3    H152544   0.767   5.260  12.296 -1.5778 -2.7503  2.7259
10351TIP3    H252545   0.682   5.343  12.389  0.0081  0.5767  1.3712
10352TIP3   OH252546   6.184   1.215   1.871  0.2926  0.4239 -0.3528
10352TIP3    H152547   6.193   1.261   1.787 -1.5942  0.1338 -0.7699
10352TIP3    H252548   6.173   1.285   1.936 -0.0443  0.6187 -0.6158
10353TIP3   OH252549   2.061   2.651  12.556 -0.2597 -0.0352 -0.2121
10353TIP3    H152550   2.035   2.596  12.482 -0.9000 -2.7670  1.8917
10353TIP3    H252551   2.147   2.618  12.582 -0.2353  0.5952  0.5430
10354TIP3   OH252552   3.558   3.330  13.859 -0.5788  0.0793  0.1127
10354TIP3    H152553   3.648   3.304  13.841 -0.3087  0.1267  1.3308
10354TIP3    H252554   3.531   3.277  13.933 -2.1605 -1.1504 -1.2705
10355TIP3   OH252555   3.594   3.148  12.997  0.3373 -0.6690  0.1620
10355TIP3    H152556   3.524   3.202  13.034 -0.1424 -0.5687 -0.8543
10355TIP3    H252557   3.674   3.186  13.033 -0.1025 -0.5708  1.0731
10356TIP3   OH252558   4.043   0.759   2.583 -0.0084  0.4747  0.1913
10356TIP3    H152559   4.054   0.781   2.675 -0.9757  1.4014  0.1023
10356TIP3    H252560   4.082   0.831   2.535  2.2421 -0.8951 -0.1904
10357TIP3   OH252561   3.670   2.295   1.191  0.5637 -0.5206 -0.2221
10357TIP3    H152562   3.703   2.290   1.281  1.0492 -0.1068 -0.3783
10357TIP3    H252563   3.606   2.223   1.186  1.7254 -1.5898 -0.0519
10358TIP3   OH252564   6.512   0.871   3.767 -0.3212 -0.1575  0.4515
10358TIP3    H152565   6.487   0.853   3.858  1.3010  1.1067  1.1953
10358TIP3    H252566   6.516   0.966   3.761  1.2318 -0.2417 -0.4561
10359TIP3   OH252567   0.306   0.449  15.164 -0.5901  0.1336  0.6277
10359TIP3    H152568   0.394   0.432  15.131  0.2803  1.2111  2.2661
10359TIP3    H252569   0.283   0.535  15.129  0.8453  1.8760  3.5409
10360TIP3   OH252570   2.652   3.305   3.399  0.9141  0.4517  0.0416
10360TIP3    H152571   2.674   3.397   3.410 -2.2241  1.1194  2.1077
10360TIP3    H252572   2.567   3.295   3.443  1.5574 -3.6540  0.7747
10361TIP3   OH252573   5.631   3.615  15.357 -0.1625 -0.4715 -0.2714
10361TIP3    H152574   5.590   3.601  15.272 -0.3670 -1.0063 -0.0884
10361TIP3    H252575   5.642   3.527  15.393  2.8717 -0.5682 -1.1002
10362TIP3   OH252576   3.188   2.491   3.589 -0.0966  0.1627 -0.1598
10362TIP3    H152577   3.130   2.529   3.655 -0.0447 -0.5429  0.3057
10362TIP3    H252578   3.154   2.523   3.506 -0.4908  0.6327  0.1774
10363TIP3   OH252579   3.435   2.071   6.494  0.1594  0.2719  0.2393
10363TIP3    H152580   3.508   2.076   6.556 -1.4563 -0.9601  2.3341
10363TIP3    H252581   3.469   2.018   6.422  1.4883  0.1765  0.9001
10364TIP3   OH252582   3.943   2.369  12.277 -0.3845  0.6205 -0.0465
10364TIP3    H152583   4.038   2.377  12.281 -0.3637 -0.0321  1.1001
10364TIP3    H252584   3.911   2.405  12.360 -1.1985  1.5061 -0.7215
10365TIP3   OH252585   5.318   3.910  11.260 -0.0759  0.3737  0.6141
10365TIP3    H152586   5.239   3.918  11.314 -0.2584 -0.7338  0.5414
10365TIP3    H252587   5.286   3.907  11.170  0.0175 -0.3136  0.5968
10366TIP3   OH252588   1.675   1.612   0.204 -0.0322  0.2321 -0.7554
10366TIP3    H152589   1.740   1.631   0.137  1.5936 -0.0790  0.6752
10366TIP3    H252590   1.647   1.523   0.185  0.1318  0.2786 -1.2403
10367TIP3   OH252591   5.701   2.642   0.524  0.1612  0.5910  0.2233
10367TIP3    H152592   5.682   2.682   0.609  0.9686  2.4910 -0.4329
10367TIP3    H252593   5.616   2.634   0.481  0.0514  2.6501 -0.0292
10368TIP3   OH252594   3.708   5.378   3.692 -0.0232  0.0165 -0.2540
10368TIP3    H152595   3.627   5.427   3.675 -0.0645  0.4843  1.1820
10368TIP3    H252596   3.685   5.287   3.675 -0.9355  0.1173  0.4068
10369TIP3   OH252597   0.778   0.014  13.222 -0.1582 -0.2377  0.0723
10369TIP3    H152598   0.740   0.056  13.298  0.4604  2.6089 -1.0706
10369TIP3    H252599   0.706   0.010  13.158 -0.1026 -0.5154  0.0260
10370TIP3   OH252600   5.351   5.080  16.065  0.5687 -0.3644  0.3748
10370TIP3    H152601   5.319   5.070  16.154 -0.2083  0.5891  0.2124
10370TIP3    H252602   5.369   5.174  16.056 -2.4226  0.1676 -1.4520
10371TIP3   OH252603   2.243   4.663   3.272 -0.4369 -0.0923 -0.2838
10371TIP3    H152604   2.195   4.600   3.219  1.4358 -0.2517 -1.9246
10371TIP3    H252605   2.192   4.744   3.265 -1.6249 -0.8052 -0.1059
10372TIP3   OH252606   2.799   0.940   2.996 -0.3714 -0.3974 -0.2151
10372TIP3    H152607   2.878   0.992   2.981 -0.2494 -0.5146  0.0198
10372TIP3    H252608   2.731   1.005   3.016 -1.0532 -0.0348 -3.2571
10373TIP3   OH252609   2.592   2.009   1.104  0.3585  0.1796 -0.0705
10373TIP3    H152610   2.663   2.001   1.041  0.0749  0.0931 -0.3814
10373TIP3    H252611   2.519   1.963   1.063 -0.0692  0.8302 -0.0406
10374TIP3   OH252612   3.788   5.325   1.989 -0.5158 -0.1470  0.1253
10374TIP3    H152613   3.813   5.402   2.040 -0.0045 -0.9987  1.2133
10374TIP3    H252614   3.693   5.325   1.990 -0.5929  1.5857 -1.6529
10375TIP3   OH252615   6.434   5.200  14.561  0.1856 -0.4854  0.0414
10375TIP3    H152616   6.384   5.249  14.495  0.9428 -0.0462 -0.2117
10375TIP3    H252617   6.437   5.111  14.526 -1.9812 -0.9907  0.9386
10376TIP3   OH252618   5.910   1.679  14.113  0.0725 -0.0363  0.0113
10376TIP3    H152619   5.946   1.616  14.176 -0.2714  0.9611  1.2450
10376TIP3    H252620   5.906   1.762  14.161 -1.2025  0.5276 -0.9931
10377TIP3   OH252621   2.747   5.527  14.400 -0.4864  0.0407 -0.7334
10377TIP3    H152622   2.659   5.557  14.375 -0.0455  1.7593 -0.3923
10377TIP3    H252623   2.803   5.555  14.327 -0.0339  0.1729 -0.3460
10378TIP3   OH252624   0.582   5.108   4.972  0.2184  0.0863  0.4296
10378TIP3    H152625   0.516   5.152   5.026 -0.5004  0.2441 -0.5521
10378TIP3    H252626   0.656   5.095   5.031 -0.2872  0.8654  1.2694
10379TIP3   OH252627   2.731   6.078   5.053  0.0068  0.2085  0.0610
10379TIP3    H152628   2.737   6.124   4.969 -0.0709 -1.8060 -1.1278
10379TIP3    H252629   2.806   6.109   5.103  0.0387  1.4769 -0.7373
10380TIP3   OH252630   4.284   5.006   0.584 -0.3039 -0.1310  0.3263
10380TIP3    H152631   4.190   5.004   0.567  0.0455 -2.0581 -1.7858
10380TIP3    H252632   4.299   4.932   0.643 -0.0033 -0.3568 -0.0304
10381TIP3   OH252633   6.441   5.970  13.144  0.4143 -0.6255 -0.1841
10381TIP3    H152634   6.432   5.953  13.051  0.4436 -0.3645 -0.2360
10381TIP3    H252635   6.529   5.938  13.166  0.6683 -0.0862 -0.3874
10382TIP3   OH252636   1.948   5.991  11.584  0.2036  0.4895 -0.4194
10382TIP3    H152637   1.886   6.031  11.644  0.0879 -0.2323 -0.0420
10382TIP3    H252638   1.966   6.058  11.519 -0.7069  0.8219 -0.3384
10383TIP3   OH252639   6.685   5.690   5.921 -0.6933  0.0676 -0.4009
10383TIP3    H152640   6.749   5.648   5.863  0.4782  1.5196 -0.2017
10383TIP3    H252641   6.601   5.652   5.895 -0.3276  1.0900 -3.4949
10384TIP3   OH252642   4.051   0.204   1.209 -0.4165  0.5494 -0.4852
10384TIP3    H152643   4.078   0.188   1.299  0.6990 -0.8217 -1.0201
10384TIP3    H252644   4.133   0.204   1.159 -1.1101 -0.0799 -1.6756
10385TIP3   OH252645   6.458   0.184  15.807 -0.0081  0.2665  0.4981
10385TIP3    H152646   6.381   0.222  15.765 -0.1256 -0.6146 -0.1107
10385TIP3    H252647   6.488   0.116  15.746  1.7888  1.1827  0.2864
10386TIP3   OH252648   3.538   5.128  17.013  0.1730  0.2863  0.6995
10386TIP3    H152649   3.461   5.182  17.029 -0.0601  0.2424 -0.2321
10386TIP3    H252650   3.517   5.044  17.053 -0.3264  0.2300  0.3246
10387TIP3   OH252651   6.300   0.331   4.485 -0.8912  0.5102  0.1140
10387TIP3    H152652   6.344   0.394   4.428 -0.7695  1.6296  1.4161
10387TIP3    H252653   6.368   0.267   4.507 -0.8904  0.1750 -0.8134
10388TIP3   OH252654   2.759   6.019  12.395  0.3298  0.1044  0.4423
10388TIP3    H152655   2.798   6.061  12.318 -1.9790 -0.4237 -1.1289
10388TIP3    H252656   2.749   6.090  12.458  1.5158  0.7349 -0.0452
10389TIP3   OH252657   6.233   5.043  16.934  0.4460  0.0128  0.2319
10389TIP3    H152658   6.147   5.080  16.954  0.2279  0.7481 -1.8239
10389TIP3    H252659   6.241   4.967  16.992 -1.6298 -0.1568  0.3597
10390TIP3   OH252660   1.556   3.214   2.335  0.0396 -0.1205  0.2944
10390TIP3    H152661   1.519   3.193   2.421  0.1610  0.6271  0.5361
10390TIP3    H252662   1.650   3.215   2.349  0.0369  0.6296  0.3073
10391TIP3   OH252663   3.960   3.062  16.114 -0.2367  0.3162  0.3355
10391TIP3    H152664   3.899   3.136  16.110 -0.6575 -0.0871 -1.1986
10391TIP3    H252665   4.022   3.079  16.044  0.4890 -0.0965  0.8688
10392TIP3   OH252666   0.515   4.981  15.136  0.0166  0.1719  0.4209
10392TIP3    H152667   0.600   5.014  15.167  0.2050 -0.4303  0.5432
10392TIP3    H252668   0.524   4.978  15.040 -0.0755  0.6721  0.3938
10393TIP3   OH252669   3.859   5.216   0.486 -1.1388 -0.1135  0.2944
10393TIP3    H152670   3.898   5.285   0.431 -3.1988  1.3112  0.5137
10393TIP3    H252671   3.779   5.191   0.441 -1.3648 -1.0517  1.1709
10394TIP3   OH252672   0.620   1.697   2.889 -0.2807  0.2124  0.6611
10394TIP3    H152673   0.667   1.662   2.812 -3.5593  0.6165 -1.7337
10394TIP3    H252674   0.550   1.634   2.904 -1.8279  1.9500  1.0121
10395TIP3   OH252675   1.808   3.543   3.131 -0.1364  0.0699 -0.3625
10395TIP3    H152676   1.846   3.580   3.211 -1.9282  1.7581 -0.2176
10395TIP3    H252677   1.880   3.496   3.090  1.3421  0.7998  1.2593
10396TIP3   OH252678   2.304   5.443  12.978 -0.1063  0.1101 -0.1358
10396TIP3    H152679   2.301   5.538  12.964 -0.6122 -0.1529 -2.1247
10396TIP3    H252680   2.212   5.417  12.984 -0.1827 -0.6378 -3.0862
10397TIP3   OH252681   5.852   0.764  16.968 -0.2501 -0.5394 -0.2548
10397TIP3    H152682   5.884   0.680  16.999 -3.2491 -1.8335 -0.2505
10397TIP3    H252683   5.862   0.823  17.042 -0.3670 -1.5821  0.6155
10398TIP3   OH252684   5.044   2.727   4.090  0.2903  0.3136  0.2537
10398TIP3    H152685   5.127   2.684   4.069 -0.8799 -1.0763 -1.7891
10398TIP3    H252686   4.997   2.664   4.144 -0.0727  0.4387  0.0880
10399TIP3   OH252687   2.651   2.251   0.656 -0.2615 -0.1531  0.4888
10399TIP3    H152688   2.729   2.288   0.614 -0.5128  1.1096  1.0956
10399TIP3    H252689   2.620   2.320   0.715 -2.1588 -0.4236 -0.1376
10400TIP3   OH252690   3.723   0.608   5.311 -0.3511  0.2215 -0.7191
10400TIP3    H152691   3.808   0.609   5.266 -0.3360  0.5185 -0.6819
10400TIP3    H252692   3.677   0.534   5.272  0.5214 -0.9324  0.3613
10401TIP3   OH252693   4.057   4.790   3.839 -0.0079 -0.0185  0.4877
10401TIP3    H152694   4.063   4.885   3.829 -0.7227 -0.0582 -0.5050
10401TIP3    H252695   4.147   4.759   3.828  0.3141  0.5759  1.3466
10402TIP3   OH252696   5.913   1.115  11.727  0.1347  0.1813 -0.3269
10402TIP3    H152697   6.005   1.135  11.746  0.0072  1.7631 -1.1961
10402TIP3    H252698   5.914   1.027  11.690  1.0351 -0.6565  1.5580
10403TIP3   OH252699   3.397   4.516  15.226 -0.2466  0.2543 -0.1317
10403TIP3    H152700   3.345   4.481  15.153 -1.3559  0.8684  0.3300
10403TIP3    H252701   3.362   4.605  15.239  0.1149  0.2448  0.9704
10404TIP3   OH252702   3.473   4.072   3.974  0.2125 -0.0827  0.3432
10404TIP3    H152703   3.443   4.099   4.061  0.2167 -0.1501  0.3654
10404TIP3    H252704   3.455   3.978   3.970  1.2107 -0.3025  0.6873
10405TIP3   OH252705   5.562   5.442   1.134  0.0133 -0.2721  0.1350
10405TIP3    H152706   5.614   5.499   1.078 -2.2117  1.6044 -0.1545
10405TIP3    H252707   5.522   5.379   1.075  1.4417 -1.3740  0.2921
10406TIP3   OH252708   4.819   5.627  17.064  0.0208 -0.0262 -0.3141
10406TIP3    H152709   4.760   5.563  17.103  0.2230 -0.5479 -0.8424
10406TIP3    H252710   4.774   5.656  16.985 -1.5794  2.9477  1.5285
10407TIP3   OH252711   1.968   0.836  13.357  0.5691 -0.0147  0.0404
10407TIP3    H152712   2.002   0.879  13.435 -0.8037 -0.0186  0.6567
10407TIP3    H252713   2.029   0.764  13.341  1.8496  1.0278  0.0662
10408TIP3   OH252714   6.653   0.910  16.981 -0.3447  0.1985  0.1393
10408TIP3    H152715   6.687   0.866  16.903  0.8797  0.4494  0.5080
10408TIP3    H252716   6.683   0.857  17.054  0.4312  1.1728  0.5474
10409TIP3   OH252717   6.463   2.048  13.929 -0.0472  0.6630  0.2519
10409TIP3    H152718   6.466   1.960  13.967 -3.5009 -0.4094 -1.5904
10409TIP3    H252719   6.485   2.035  13.837  0.5262  1.9620  0.1823
10410TIP3   OH252720   6.274   1.565  11.400 -0.7355  0.1777 -0.0577
10410TIP3    H152721   6.317   1.551  11.315 -1.2043 -0.1418 -0.2453
10410TIP3    H252722   6.309   1.649  11.431  1.1124 -0.7225  0.4628
10411TIP3   OH252723   5.770   5.996   3.065  0.0827  0.7063 -0.0608
10411TIP3    H152724   5.812   6.048   3.133 -0.3490  0.1698  0.6345
10411TIP3    H252725   5.800   5.906   3.081  0.3342  0.6383 -0.8633
10412TIP3   OH252726   0.848   4.089  11.085  0.6301  0.3481 -0.4630
10412TIP3    H152727   0.774   4.150  11.086 -0.5065 -0.9681  0.3700
10412TIP3    H252728   0.922   4.140  11.053 -0.2376  2.1759  0.3403
10413TIP3   OH252729   1.775   2.645  12.909 -0.2113  0.4586  0.2955
10413TIP3    H152730   1.706   2.614  12.851 -0.0921  0.3187  0.2298
10413TIP3    H252731   1.730   2.706  12.968 -0.0546  1.9152 -0.9943
10414TIP3   OH252732   5.074   1.465  11.883  0.2377 -0.2196  0.3029
10414TIP3    H152733   5.079   1.373  11.909  0.3267 -0.2237  0.2725
10414TIP3    H252734   4.981   1.480  11.868  0.3995 -0.7929 -1.4325
10415TIP3   OH252735   5.952   2.442  14.017  0.4981 -0.1892 -0.8104
10415TIP3    H152736   5.914   2.494  14.088  0.9330 -0.7475 -0.1585
10415TIP3    H252737   6.045   2.435  14.041  0.2797 -2.0765 -0.3699
10416TIP3   OH252738   5.218   4.679  13.644  0.3867  0.6153 -0.4553
10416TIP3    H152739   5.210   4.586  13.665  1.2056  0.4244 -0.9076
10416TIP3    H252740   5.313   4.693  13.637  0.2696  1.4945 -0.3435
10417TIP3   OH252741   3.390   2.474  14.589  0.5509 -0.4870  0.0426
10417TIP3    H152742   3.464   2.478  14.648  1.1731 -0.4607 -0.7252
10417TIP3    H252743   3.399   2.389  14.545 -0.0528 -0.6217  0.1648
10418TIP3   OH252744   0.790   0.063   2.459  0.3555  0.6187 -0.3892
10418TIP3    H152745   0.822   0.153   2.457 -0.9865  1.0991 -1.1618
10418TIP3    H252746   0.719   0.061   2.396 -0.0116 -0.8539  0.0273
10419TIP3   OH252747   2.711   5.828  15.329  0.4182  0.1043 -0.4484
10419TIP3    H152748   2.742   5.918  15.317  0.0329  0.0772 -1.8199
10419TIP3    H252749   2.632   5.823  15.275  1.3754 -1.5430 -1.7805
10420TIP3   OH252750   4.770   3.732   1.895 -0.0612  0.0532  0.0844
10420TIP3    H152751   4.687   3.695   1.864 -1.5856  1.9121  1.6813
10420TIP3    H252752   4.791   3.800   1.831  1.8383 -2.2065 -1.8935
10421TIP3   OH252753   4.895   2.595   4.312  0.5468  0.0691  0.1368
10421TIP3    H152754   4.811   2.633   4.285  0.6485 -0.8546 -1.6497
10421TIP3    H252755   4.872   2.509   4.346  0.6116  0.5505  1.4629
10422TIP3   OH252756   1.060   1.404   3.585 -0.0196  0.4531 -0.1721
10422TIP3    H152757   1.112   1.463   3.532 -1.2060 -0.1295 -2.0813
10422TIP3    H252758   1.061   1.321   3.537  1.3912 -1.0668  2.2926
10423TIP3   OH252759   4.116   1.978  16.677 -0.6727  0.1391 -0.7114
10423TIP3    H152760   4.067   1.950  16.600 -0.5533  1.8459 -1.4620
10423TIP3    H252761   4.194   2.020  16.642  0.7733 -1.4551  0.4389
10424TIP3   OH252762   0.825   5.822   3.286 -0.6399  0.4239  0.1038
10424TIP3    H152763   0.744   5.806   3.238 -1.2052  2.1983  0.3928
10424TIP3    H252764   0.851   5.911   3.261  0.2596  0.5555  1.3822
10425TIP3   OH252765   6.473   1.074  10.517 -0.1784  0.8772  0.0292
10425TIP3    H152766   6.504   1.118  10.437 -0.3213  0.9896  0.0356
10425TIP3    H252767   6.535   1.003  10.531  0.2746  1.3065  0.2266
10426TIP3   OH252768   1.252   3.772  16.392  0.5100  0.6804  0.2267
10426TIP3    H152769   1.206   3.731  16.465 -0.7463  0.6788 -0.5338
10426TIP3    H252770   1.343   3.779  16.421  0.9292 -3.0099  0.2606
10427TIP3   OH252771   4.245   1.148   1.342 -0.3965  0.4274  0.1950
10427TIP3    H152772   4.152   1.129   1.358 -0.1026  0.3927  1.9585
10427TIP3    H252773   4.292   1.101   1.410  0.8263  1.5825  0.1873
10428TIP3   OH252774   0.525   2.433  14.785 -0.4772  0.1669  0.0314
10428TIP3    H152775   0.564   2.346  14.783 -0.1703  0.3113 -0.5041
10428TIP3    H252776   0.596   2.492  14.759 -0.8755  0.4918 -0.3406
10429TIP3   OH252777   0.508   2.793  12.931 -0.2197 -0.2743 -0.3100
10429TIP3    H152778   0.556   2.870  12.900  0.4916  0.5712  2.5927
10429TIP3    H252779   0.427   2.829  12.969 -0.1644 -1.0014  0.5276
10430TIP3   OH252780   4.593   0.920  12.882  0.0562 -0.0660 -0.1167
10430TIP3    H152781   4.616   0.920  12.975  0.8414 -2.1686 -0.2703
10430TIP3    H252782   4.525   0.853  12.874  0.7334 -0.6447 -1.2170
10431TIP3   OH252783   1.714   0.066   3.987 -0.5095 -0.1686  0.1237
10431TIP3    H152784   1.662   0.085   3.908 -0.5742  1.5889  0.5503
10431TIP3    H252785   1.668  -0.007   4.028 -3.4488  2.0316  1.1014
10432TIP3   OH252786   4.173   0.796   1.018 -0.2326 -0.3703 -0.3966
10432TIP3    H152787   4.265   0.820   1.011 -0.9393  2.7439 -0.3503
10432TIP3    H252788   4.156   0.791   1.112 -0.4733  0.9020 -0.3506
10433TIP3   OH252789   0.656   1.641  14.880  0.3990 -0.1730 -0.3703
10433TIP3    H152790   0.694   1.586  14.949 -0.0866  1.1336  0.9993
10433TIP3    H252791   0.655   1.729  14.918 -1.5380  0.2895 -1.3686
10434TIP3   OH252792   0.390   5.590   1.018 -0.1262 -0.1984 -0.3268
10434TIP3    H152793   0.450   5.541   0.963  1.3736 -0.0728  1.1028
10434TIP3    H252794   0.379   5.536   1.096 -1.5987 -0.0378 -0.3994
10435TIP3   OH252795   6.179   0.477   2.196 -0.0632  0.2911  0.2133
10435TIP3    H152796   6.256   0.450   2.247 -1.7423  0.3056  2.9498
10435TIP3    H252797   6.136   0.395   2.171  0.6700  0.2889 -1.1353
10436TIP3   OH252798   4.056   1.419   5.028 -0.3992  0.3158 -0.0331
10436TIP3    H152799   4.121   1.485   5.003  0.0262  0.4370  1.3172
10436TIP3    H252800   4.107   1.342   5.053 -0.6098  0.8481  2.3618
10437TIP3   OH252801   4.863   0.099   4.636  0.1964  0.2139 -0.2242
10437TIP3    H152802   4.945   0.147   4.634 -0.1945  0.9467  0.6036
10437TIP3    H252803   4.838   0.088   4.544 -0.3421  2.7167 -0.4487
10438TIP3   OH252804   4.653   1.800  14.031 -0.1474 -0.3465  0.1802
10438TIP3    H152805   4.721   1.816  13.966 -0.7372  1.4989 -0.0263
10438TIP3    H252806   4.701   1.776  14.111  0.9467  3.0228  0.6663
10439TIP3   OH252807   5.072   2.877  12.215 -0.0331  0.1964  0.3045
10439TIP3    H152808   5.064   2.942  12.284 -0.6353 -0.0623  0.4828
10439TIP3    H252809   5.157   2.895  12.175 -1.2575  2.8378 -1.4098
10440TIP3   OH252810   0.312   6.163  13.710  0.0725 -0.2478  0.4448
10440TIP3    H152811   0.395   6.163  13.759 -0.0906 -1.4348  0.7449
10440TIP3    H252812   0.245   6.180  13.776  0.0481  0.6092  0.2181
10441TIP3   OH252813   6.462   4.661   0.436  0.1570  0.1635  0.2038
10441TIP3    H152814   6.411   4.727   0.482  0.2156 -0.4921  1.2558
10441TIP3    H252815   6.403   4.586   0.429 -0.1611  0.5465 -1.6315
10442TIP3   OH252816   5.725   0.847  12.009 -0.3506  0.4975  0.3316
10442TIP3    H152817   5.666   0.907  12.054  0.6919  0.4532  1.8204
10442TIP3    H252818   5.810   0.862  12.049  0.5137 -0.0091 -1.2159
10443TIP3   OH252819   4.811   5.148   3.816 -0.3454 -0.1031 -0.4667
10443TIP3    H152820   4.833   5.062   3.851 -1.0336 -0.1941 -0.2456
10443TIP3    H252821   4.717   5.158   3.833  0.1741  1.7341  1.8380
10444TIP3   OH252822   4.090   6.761  16.384 -0.2904  0.6010  0.5893
10444TIP3    H152823   4.002   6.725  16.396 -0.4323  1.1298  1.1245
10444TIP3    H252824   4.147   6.697  16.426 -0.3859  0.1128 -0.0049
10445TIP3   OH252825   6.227   1.548  15.192 -0.6826 -0.0825 -0.0300
10445TIP3    H152826   6.309   1.504  15.215  0.2416  1.1713 -0.7757
10445TIP3    H252827   6.251   1.607  15.120 -2.4595 -0.4096 -0.9525
10446TIP3   OH252828   1.461   4.008   0.076  0.2972 -0.2034 -0.0076
10446TIP3    H152829   1.375   4.016   0.035  0.1482  0.3052  0.3836
10446TIP3    H252830   1.495   4.098   0.076  0.7726 -0.3794 -0.0339
10447TIP3   OH252831   1.166   0.567  14.002 -0.1211 -0.1929 -0.0293
10447TIP3    H152832   1.255   0.532  14.011  0.1941  0.4888 -0.3809
10447TIP3    H252833   1.179   0.658  13.976 -0.9259  0.0146  0.2554
10448TIP3   OH252834   0.536   0.202  14.590  0.2569  0.8288 -0.1280
10448TIP3    H152835   0.514   0.158  14.508  0.2542 -1.4473  0.9869
10448TIP3    H252836   0.628   0.181  14.605  0.0162  0.3799  0.8723
10449TIP3   OH252837   2.051   6.090  12.138  0.3671 -0.3268 -0.0983
10449TIP3    H152838   2.098   6.023  12.087  0.4598  0.9274 -1.7375
10449TIP3    H252839   1.963   6.091  12.100  0.6855  1.2312 -0.8769
10450TIP3   OH252840   3.358   5.018   1.435  0.0285 -0.3861  0.1342
10450TIP3    H152841   3.433   5.069   1.402 -0.3056  2.6013  3.4504
10450TIP3    H252842   3.293   5.084   1.459 -1.2665 -2.5035  2.9276
10451TIP3   OH252843   3.441   5.397   0.442  0.0090  0.0568 -0.3607
10451TIP3    H152844   3.417   5.331   0.506  0.5639  1.9015  1.8643
10451TIP3    H252845   3.369   5.461   0.445  0.4727  0.6249 -0.9470
10452TIP3   OH252846   2.973   3.864   4.495  0.4300 -0.2676 -0.3536
10452TIP3    H152847   2.941   3.782   4.533  0.4273  0.4634  1.3144
10452TIP3    H252848   2.925   3.873   4.413 -3.6274  0.6417  1.8602
10453TIP3   OH252849   3.465   5.503  14.015 -0.3520 -0.3206  0.6501
10453TIP3    H152850   3.483   5.424  13.965 -1.3249  0.7027 -1.4354
10453TIP3    H252851   3.373   5.521  14.000 -0.7005  0.0555  2.8789
10454TIP3   OH252852   0.496   6.312  12.387  0.3706  0.5329  0.2819
10454TIP3    H152853   0.407   6.335  12.362  0.2487  0.6240  0.7959
10454TIP3    H252854   0.511   6.226  12.346 -0.1539  0.2568  0.6643
10455TIP3   OH252855   4.108   1.461   2.252  0.1171 -0.0805  0.1853
10455TIP3    H152856   4.187   1.476   2.200  0.1607 -1.0346 -0.0491
10455TIP3    H252857   4.115   1.521   2.326  1.7557 -1.1124  0.9230
10456TIP3   OH252858   1.714   4.138   0.440  0.2822  0.0964  0.3088
10456TIP3    H152859   1.628   4.181   0.437 -0.0959 -0.4840  1.9094
10456TIP3    H252860   1.771   4.204   0.480  0.3606  0.1198  0.1593
10457TIP3   OH252861   4.099   3.769   5.057 -0.5124 -0.0503 -0.3510
10457TIP3    H152862   4.057   3.683   5.060 -1.2284  0.3252  0.9100
10457TIP3    H252863   4.189   3.752   5.083 -0.9587 -0.2612  1.1424
10458TIP3   OH252864   1.564   5.959  12.574  0.4626 -0.2246  0.0809
10458TIP3    H152865   1.612   6.038  12.550  0.9180 -0.6921 -0.5732
10458TIP3    H252866   1.513   5.984  12.651  1.1521  0.4986  0.3079
10459TIP3   OH252867   1.838   3.818  16.799 -0.1553  0.1851 -0.1807
10459TIP3    H152868   1.853   3.822  16.704 -0.0136  1.2581 -0.1287
10459TIP3    H252869   1.925   3.803  16.836 -0.1165  0.3613 -0.1964
10460TIP3   OH252870   5.098   3.715   3.821 -0.3458 -0.1854 -0.0786
10460TIP3    H152871   5.032   3.771   3.780 -1.0485 -0.3355  0.8356
10460TIP3    H252872   5.175   3.771   3.829 -1.2213  0.8761  1.3688
10461TIP3   OH252873   1.290   2.790  14.739 -0.1318 -0.2238  0.9561
10461TIP3    H152874   1.331   2.755  14.660 -1.1209  0.5083  0.0820
10461TIP3    H252875   1.271   2.713  14.793  1.7475 -0.6295  1.1090
10462TIP3   OH252876   1.012   4.353  14.533  0.2362 -0.4338 -0.2010
10462TIP3    H152877   0.998   4.446  14.548 -2.2358 -1.1470  2.7343
10462TIP3    H252878   0.926   4.313  14.546  1.4111 -3.2396 -0.3944
10463TIP3   OH252879   5.861   4.811  11.688  0.3579  0.1763  0.2988
10463TIP3    H152880   5.800   4.882  11.666  0.3868  0.8771  2.2862
10463TIP3    H252881   5.825   4.734  11.643  0.6421  1.5065 -2.3793
10464TIP3   OH252882   0.376   5.201  11.445 -0.3250  0.6908  0.4389
10464TIP3    H152883   0.446   5.225  11.506  0.4942 -0.1027 -0.1572
10464TIP3    H252884   0.352   5.283  11.402  1.6294  0.7051 -0.7485
10465TIP3   OH252885   5.184   6.024  11.914 -0.5355  0.1467  0.0738
10465TIP3    H152886   5.115   6.036  11.979 -0.9709 -1.3846 -0.0663
10465TIP3    H252887   5.189   6.108  11.869  1.9311  2.4161  4.0157
10466TIP3   OH252888   6.500   5.825   0.576 -0.4025 -0.7770  0.8458
10466TIP3    H152889   6.543   5.769   0.512  1.0929  1.8032 -0.5691
10466TIP3    H252890   6.434   5.873   0.526  0.8075  1.3034  1.1172
10467TIP3   OH252891   2.904   0.489  17.093  0.2639 -0.1858 -0.1706
10467TIP3    H152892   2.878   0.454  17.008 -1.5391  1.3827 -0.3408
10467TIP3    H252893   2.948   0.571  17.072 -1.3642  0.8915  0.3808
10468TIP3   OH252894   4.479   3.096   0.030 -0.7815 -0.1819 -0.0869
10468TIP3    H152895   4.550   3.149   0.065  0.1719 -1.6802  0.3134
10468TIP3    H252896   4.402   3.121   0.082  0.3343 -1.4854  2.3375
10469TIP3   OH252897   4.674   1.929   1.906 -0.2218 -0.4044  0.0306
10469TIP3    H152898   4.747   1.886   1.950 -0.2287 -1.2327 -0.7474
10469TIP3    H252899   4.622   1.858   1.869  0.2637  0.2726 -2.0724
10470TIP3   OH252900   5.094   2.700  13.156  0.1967  0.0777  0.3425
10470TIP3    H152901   5.044   2.770  13.114  0.2792  0.3735  0.7294
10470TIP3    H252902   5.185   2.718  13.130  0.1442 -0.2716 -0.0964
10471TIP3   OH252903   1.138   4.578   3.049  0.4834 -0.0774  0.3463
10471TIP3    H152904   1.180   4.597   2.965 -2.3362  0.4125 -1.0829
10471TIP3    H252905   1.199   4.611   3.115  1.6602  1.8591 -1.6026
10472TIP3   OH252906   5.087   2.461  13.294 -0.3383  0.1582  0.1546
10472TIP3    H152907   5.151   2.416  13.239  1.0845  2.6962 -0.4173
10472TIP3    H252908   5.070   2.544  13.249 -2.0088  0.7173  1.6741
10473TIP3   OH252909   6.045   2.316   2.638  0.3597 -0.3247 -0.7744
10473TIP3    H152910   6.087   2.234   2.663  1.0771 -0.3126 -1.8651
10473TIP3    H252911   6.111   2.383   2.653 -0.8308  0.3710  1.9139
10474TIP3   OH252912   0.625   4.125   5.555 -0.7766 -0.1358 -0.3143
10474TIP3    H152913   0.656   4.053   5.500 -0.4039  0.5401 -1.0127
10474TIP3    H252914   0.703   4.179   5.569 -0.9346 -0.1397  0.6438
10475TIP3   OH252915   6.764   3.390  16.343  0.1930 -0.5733  0.4265
10475TIP3    H152916   6.780   3.408  16.250  0.6396 -1.7836  0.2475
10475TIP3    H252917   6.852   3.390  16.382 -0.1099  1.7531  1.2373
10476TIP3   OH252918   3.494   6.021  13.748 -0.8346 -0.1123  0.0761
10476TIP3    H152919   3.416   5.976  13.716 -0.5855 -1.5100  1.3391
10476TIP3    H252920   3.502   5.993  13.839  1.5012 -0.5204 -0.2108
10477TIP3   OH252921   6.274   0.584   3.538 -0.0488 -0.1220  0.3430
10477TIP3    H152922   6.207   0.569   3.470 -0.3830  0.9055  0.4284
10477TIP3    H252923   6.317   0.666   3.511 -0.2585  0.3546  1.4172
10478TIP3   OH252924   2.845   1.861  12.518  0.1325 -0.0593 -0.1526
10478TIP3    H152925   2.857   1.882  12.425 -1.4557  0.6438 -0.2239
10478TIP3    H252926   2.751   1.860  12.531  0.2856  2.3518  1.9837
10479TIP3   OH252927   5.695   5.306   2.271  0.0082  0.5100 -0.2987
10479TIP3    H152928   5.629   5.366   2.306  0.2638  1.7461 -1.8061
10479TIP3    H252929   5.668   5.291   2.181 -0.1374 -1.8328  0.0889
10480TIP3   OH252930   6.264   1.957  17.163  0.8657 -0.0726  0.1910
10480TIP3    H152931   6.288   1.919  17.078  1.2830 -0.5994  0.5397
10480TIP3    H252932   6.168   1.958  17.162  0.8491 -0.8265  0.0294
10481TIP3   OH252933   0.399   4.063  16.346  0.2557 -0.3272  0.4314
10481TIP3    H152934   0.456   3.993  16.313  0.1611  0.1792 -0.8690
10481TIP3    H252935   0.428   4.078  16.436 -0.8534 -3.2106  1.3772
10482TIP3   OH252936   6.764   4.000   5.169  0.4506  0.0730  0.4612
10482TIP3    H152937   6.771   3.928   5.107  2.6152 -1.1112  1.9368
10482TIP3    H252938   6.696   4.056   5.133  0.4677 -1.3804 -2.0956
10483TIP3   OH252939   4.282   2.053  10.781 -0.2605 -0.2279 -0.3821
10483TIP3    H152940   4.202   2.087  10.742  0.7754  1.0893 -1.4404
10483TIP3    H252941   4.313   1.986  10.721 -0.8366 -1.1338  0.3073
10484TIP3   OH252942   3.418   6.588   3.529 -0.5190  0.1385  0.3525
10484TIP3    H152943   3.437   6.631   3.446 -0.9140  1.6098  0.9910
10484TIP3    H252944   3.468   6.506   3.526 -0.1533  0.3892 -1.1159
10485TIP3   OH252945   3.035   0.659  16.613 -0.0040 -0.4312 -0.7627
10485TIP3    H152946   3.084   0.608  16.548  0.6924 -0.7241 -0.0217
10485TIP3    H252947   3.092   0.660  16.690 -0.3396  0.8375 -0.5170
10486TIP3   OH252948   5.437   0.244  15.377  0.4419  0.2670 -0.2437
10486TIP3    H152949   5.453   0.306  15.306  0.7614 -1.2492 -1.5626
10486TIP3    H252950   5.342   0.243  15.387  0.3461  0.0776 -1.0737
10487TIP3   OH252951   3.158   2.410   6.154  0.7484 -0.7414 -0.2361
10487TIP3    H152952   3.210   2.432   6.231  2.0345 -0.9421 -1.0271
10487TIP3    H252953   3.154   2.315   6.154  1.0699 -0.7580 -0.6125
10488TIP3   OH252954   4.337   4.691  11.586 -0.4252  0.2156  0.2797
10488TIP3    H152955   4.336   4.736  11.671  0.4479  1.3697 -0.2875
10488TIP3    H252956   4.430   4.677  11.568 -0.6547 -1.5718  0.2729
10489TIP3   OH252957   6.488   1.817  13.629  0.6827 -0.1678  0.3488
10489TIP3    H152958   6.460   1.777  13.547  0.3994  1.0446 -0.1734
10489TIP3    H252959   6.417   1.799  13.690 -1.5746  3.0622 -1.0217
10490TIP3   OH252960   3.385   5.578  14.442 -0.5926  0.1385 -0.0301
10490TIP3    H152961   3.357   5.654  14.390  0.6675  0.4269 -0.3250
10490TIP3    H252962   3.477   5.565  14.418 -0.4429 -0.7279  0.9375
10491TIP3   OH252963   6.390   2.502   5.118 -0.7647 -0.2712 -0.3616
10491TIP3    H152964   6.374   2.543   5.033  0.4300  2.0516  0.4496
10491TIP3    H252965   6.422   2.573   5.174 -1.1634 -1.7838  1.9531
10492TIP3   OH252966   3.328   2.233   2.888 -0.3257 -0.3987  0.1188
10492TIP3    H152967   3.288   2.147   2.873  1.9199 -1.0545 -3.1621
10492TIP3    H252968   3.421   2.215   2.895  0.0933  1.7105  0.5385
10493TIP3   OH252969   0.306   0.390  15.451  0.6478  0.2641  0.4170
10493TIP3    H152970   0.234   0.395  15.513 -0.1691  0.5076 -0.5216
10493TIP3    H252971   0.271   0.428  15.371  1.8845  0.5645 -0.0048
10494TIP3   OH252972   0.256   1.592   5.690 -0.7267 -0.7658 -0.4884
10494TIP3    H152973   0.259   1.586   5.595  2.5048 -1.3004 -0.4930
10494TIP3    H252974   0.204   1.517   5.718 -2.2080 -0.2666 -1.8069
10495TIP3   OH252975   1.865   2.714  16.544  0.0879  0.4848  0.1161
10495TIP3    H152976   1.885   2.679  16.631  2.6686  0.4852 -0.4149
10495TIP3    H252977   1.885   2.807  16.550  2.5769  0.1078 -1.0216
10496TIP3   OH252978   2.780   1.405   5.438 -1.0820  0.3924  0.1304
10496TIP3    H152979   2.779   1.435   5.529 -0.8437  2.0592 -0.3935
10496TIP3    H252980   2.821   1.318   5.442  0.5198  1.1580  1.4141
10497TIP3   OH252981   1.446   3.333   0.433  0.1624  0.6806  0.2634
10497TIP3    H152982   1.367   3.285   0.409  0.5215 -0.1433  0.7064
10497TIP3    H252983   1.478   3.289   0.512  0.9040  1.1936  0.2579
10498TIP3   OH252984   2.378   1.633  11.481 -0.3321 -0.0449  0.1348
10498TIP3    H152985   2.409   1.666  11.396 -0.2231  0.0283  0.2029
10498TIP3    H252986   2.318   1.562  11.459  2.4660 -2.5727  0.0153
10499TIP3   OH252987   6.466   6.495  13.384  0.1113 -0.3631  0.1648
10499TIP3    H152988   6.403   6.451  13.327  1.0350  0.2867 -1.4401
10499TIP3    H252989   6.550   6.454  13.363  0.7064  0.9242 -0.1002
10500TIP3   OH252990   1.436   3.116   5.912 -0.2397 -0.4006 -0.0661
10500TIP3    H152991   1.404   3.164   5.836 -1.8401 -1.5917 -0.1739
10500TIP3    H252992   1.498   3.176   5.953 -1.2425  1.2541 -0.8844
10501TIP3   OH252993   4.793   0.397   0.845 -0.3453 -0.2234 -0.2045
10501TIP3    H152994   4.845   0.474   0.827 -2.2037  1.0248 -0.5280
10501TIP3    H252995   4.843   0.348   0.911  1.5510  0.4750 -1.0716
10502TIP3   OH252996   5.477   0.244  14.399 -0.2388  1.0090  0.3851
10502TIP3    H152997   5.402   0.214  14.452 -1.3053  2.0447 -0.5089
10502TIP3    H252998   5.497   0.331  14.433  0.0189  1.0832  0.0411
10503TIP3   OH252999   1.153   5.335  12.237  0.0200 -0.1200 -0.0829
10503TIP3    H153000   1.170   5.416  12.284 -0.3218 -0.3226  0.3972
10503TIP3    H253001   1.164   5.266  12.303 -3.0086 -0.2576  0.4107
10504TIP3   OH253002   0.251   0.890  16.424 -0.8684  0.4588  0.1068
10504TIP3    H153003   0.283   0.800  16.419 -1.7265  0.1558 -0.0938
10504TIP3    H253004   0.216   0.898  16.513  0.4116  1.0276  0.5867
10505TIP3   OH253005   1.252   6.280  11.893 -0.2238 -0.3557  0.2213
10505TIP3    H153006   1.239   6.288  11.799 -0.1576 -0.0226  0.2399
10505TIP3    H253007   1.305   6.356  11.917 -1.5514  0.4183  0.7828
10506TIP3   OH253008   5.027   4.981   1.935  0.4040  0.0810  0.5144
10506TIP3    H153009   4.952   5.008   1.988 -0.1827  1.7050 -1.0718
10506TIP3    H253010   5.047   5.057   1.880 -1.5524 -2.5767 -4.5113
10507TIP3   OH253011   2.676   1.675   4.180 -0.1599 -0.1800 -0.2878
10507TIP3    H153012   2.608   1.664   4.246  0.2895  0.8104  0.3662
10507TIP3    H253013   2.757   1.684   4.230  0.0498  1.6644 -0.8949
10508TIP3   OH253014   0.473   6.104  16.219 -0.0638  0.3277 -0.0799
10508TIP3    H153015   0.446   6.150  16.299  1.3973 -3.7702  3.2049
10508TIP3    H253016   0.567   6.118  16.214  0.2498 -1.3104  0.4336
10509TIP3   OH253017   1.032   2.569   5.366  0.3480  0.4372 -0.1655
10509TIP3    H153018   0.946   2.596   5.333 -0.3526 -2.2722 -0.7879
10509TIP3    H253019   1.041   2.615   5.449 -2.2965 -0.1219  0.5374
10510TIP3   OH253020   1.974   4.225  11.772  0.5842  0.2503 -0.4264
10510TIP3    H153021   2.066   4.197  11.776  0.4818  0.0238  1.4876
10510TIP3    H253022   1.974   4.297  11.710  2.1925  0.7135  0.0442
10511TIP3   OH253023   2.040   6.069   3.386  0.1981  0.0383  0.4279
10511TIP3    H153024   2.096   6.001   3.423  0.0760 -0.3489 -0.0898
10511TIP3    H253025   2.029   6.132   3.457  2.9255  1.1861 -0.0259
10512TIP3   OH253026   0.674   4.273   2.858 -0.0131 -0.9781 -0.4218
10512TIP3    H153027   0.690   4.317   2.941  0.5030  1.7740 -1.8677
10512TIP3    H253028   0.760   4.246   2.827  0.8680  3.6295 -2.8363
10513TIP3   OH253029   2.858   5.685  11.262  0.4873 -0.4076 -0.1430
10513TIP3    H153030   2.872   5.683  11.167 -1.9989 -1.8742 -0.5970
10513TIP3    H253031   2.896   5.603  11.293  0.1761 -0.5358 -0.0944
10514TIP3   OH253032   5.687   6.337   3.490 -0.3028  0.0568 -0.3586
10514TIP3    H153033   5.600   6.300   3.478  0.4722 -1.4125 -1.9012
10514TIP3    H253034   5.674   6.432   3.486 -1.7455 -0.1577 -1.1966
10515TIP3   OH253035   1.388   5.756   4.925  0.3259 -0.0558  0.0864
10515TIP3    H153036   1.407   5.839   4.970 -0.1024  1.8122 -2.9463
10515TIP3    H253037   1.462   5.744   4.865  1.0092 -2.6042  1.2973
10516TIP3   OH253038   0.702   1.361  11.987  0.4667 -0.0084 -0.5398
10516TIP3    H153039   0.656   1.339  11.906 -0.4615  2.2566 -0.7155
10516TIP3    H253040   0.787   1.318  11.980 -0.1647 -1.0815 -2.0099
10517TIP3   OH253041   3.917   4.018   1.339  0.0372 -0.3719 -0.3695
10517TIP3    H153042   3.882   3.929   1.343 -2.0840  0.4250  0.2250
10517TIP3    H253043   3.908   4.051   1.428 -0.4523  0.8746 -0.8614
10518TIP3   OH253044   3.811   0.906  12.223 -0.1472 -0.1866 -0.1017
10518TIP3    H153045   3.894   0.858  12.213 -0.8594 -1.4394 -0.1354
10518TIP3    H253046   3.773   0.906  12.135  0.7901  2.2966 -0.5937
10519TIP3   OH253047   4.436   3.761  13.951 -0.2139 -0.6652  0.4674
10519TIP3    H153048   4.397   3.810  13.878 -1.1953  0.5455  1.7331
10519TIP3    H253049   4.510   3.715  13.913  1.6625  2.9091 -0.6135
10520TIP3   OH253050   2.349   2.034   5.543  0.5970 -0.3343  0.3448
10520TIP3    H153051   2.394   1.961   5.499  1.1806 -0.1070  0.5477
10520TIP3    H253052   2.381   2.112   5.498 -1.8744 -0.2850 -1.5307
10521TIP3   OH253053   2.325   6.504   0.976 -0.1088 -0.9126 -0.0029
10521TIP3    H153054   2.339   6.596   0.956 -0.8502 -0.6690  0.5712
10521TIP3    H253055   2.414   6.468   0.985  0.1828 -0.1256  0.3593
10522TIP3   OH253056   1.640   1.112  14.770 -0.5500 -0.0922 -0.0450
10522TIP3    H153057   1.623   1.185  14.710  0.0208 -1.5327 -2.0402
10522TIP3    H253058   1.554   1.087  14.802 -0.9130  0.4340 -0.5779
10523TIP3   OH253059   3.225   3.708   5.010  0.2125  0.0803  0.0100
10523TIP3    H153060   3.316   3.740   5.009  0.1172  0.3550 -0.5720
10523TIP3    H253061   3.229   3.622   4.969  0.1030  0.4205 -0.7333
10524TIP3   OH253062   1.230   2.261  12.970  0.2581 -0.3657  0.9078
10524TIP3    H153063   1.253   2.300  12.886 -1.2778  0.0728  0.6606
10524TIP3    H253064   1.138   2.237  12.962  0.2770 -1.0194  2.2113
10525TIP3   OH253065   3.841   0.422  17.071  0.7181 -0.3604 -0.4592
10525TIP3    H153066   3.806   0.333  17.081  0.0251 -0.0549 -0.1043
10525TIP3    H253067   3.832   0.461  17.158 -2.3736  1.2601 -1.3424
10526TIP3   OH253068   1.291   0.023  10.308 -0.0202 -0.3786 -0.1100
10526TIP3    H153069   1.353   0.086  10.273 -0.8159 -0.0342 -0.9400
10526TIP3    H253070   1.302   0.028  10.403  2.7998 -1.9436 -0.2307
10527TIP3   OH253071   5.803   3.882   0.682  0.3367  0.1902 -0.2108
10527TIP3    H153072   5.756   3.851   0.759 -0.1255  1.2708 -0.0436
10527TIP3    H253073   5.774   3.972   0.671 -0.5224 -0.3119 -2.3789
10528TIP3   OH253074   5.780   6.703  13.141  0.3803  0.0325  0.0186
10528TIP3    H153075   5.824   6.773  13.189 -1.1278 -0.7328  2.6543
10528TIP3    H253076   5.757   6.743  13.057  1.4169  2.0279  0.6165
10529TIP3   OH253077   5.424   2.578  13.980 -0.3952 -0.1576 -0.0064
10529TIP3    H153078   5.512   2.562  13.948  1.2935  1.6355  3.2383
10529TIP3    H253079   5.426   2.550  14.071 -2.6267  1.5459  0.6691
10530TIP3   OH253080   3.981   1.315  13.583  0.5402  0.2988  0.0660
10530TIP3    H153081   4.062   1.348  13.624  0.0392  1.0259  0.4887
10530TIP3    H253082   3.911   1.352  13.636 -0.0659 -1.0410  0.2367
10531TIP3   OH253083   4.112   0.976  12.170 -0.5510  0.2281 -0.2784
10531TIP3    H153084   4.093   1.068  12.186 -0.2091  0.3758 -0.7059
10531TIP3    H253085   4.208   0.970  12.175 -0.6533 -0.4443  1.5490
10532TIP3   OH253086   5.917   5.920  16.914  0.1955  0.0241  0.4207
10532TIP3    H153087   5.912   5.826  16.932  1.2367 -0.1049  0.0887
10532TIP3    H253088   5.902   5.961  16.999  1.9175 -0.5084  1.0299
10533TIP3   OH253089   1.689   4.346   0.830 -0.0659  0.3013 -0.1999
10533TIP3    H153090   1.783   4.349   0.812  0.0469  1.4920  0.4949
10533TIP3    H253091   1.681   4.366   0.923 -1.1050  2.4722 -0.6844
10534TIP3   OH253092   5.992   0.329  15.472  0.2343  0.1114  0.2684
10534TIP3    H153093   6.065   0.363  15.525 -1.3656 -0.5680  3.1435
10534TIP3    H253094   5.949   0.266  15.530 -1.4534 -1.0139 -2.0856
10535TIP3   OH253095   1.268   4.616   5.364 -0.3230  0.2841  0.2204
10535TIP3    H153096   1.293   4.699   5.323  1.5134 -0.8112 -1.0401
10535TIP3    H253097   1.211   4.573   5.299 -0.5249  0.1611  0.4742
10536TIP3   OH253098   2.554   3.503   4.447 -0.2946  0.6180 -0.0053
10536TIP3    H153099   2.583   3.478   4.534 -1.0197 -0.6372 -0.0981
10536TIP3    H253100   2.465   3.538   4.460  0.4013  2.4971  0.0151
10537TIP3   OH253101   2.171   2.497   5.509 -0.2807  0.7064  0.6571
10537TIP3    H153102   2.126   2.519   5.427  0.3302 -0.9143 -0.1639
10537TIP3    H253103   2.123   2.422   5.544  0.7930 -0.0495  0.5861
10538TIP3   OH253104   1.598   5.514   2.943 -0.6034 -0.5695 -0.3793
10538TIP3    H153105   1.691   5.525   2.963 -0.7190 -0.3673  0.0588
10538TIP3    H253106   1.583   5.420   2.952 -0.2989 -0.6852 -1.0823
10539TIP3   OH253107   6.307   5.344   4.468  0.0326 -0.4587  0.3696
10539TIP3    H153108   6.382   5.386   4.510  0.1324 -0.3839  0.1161
10539TIP3    H253109   6.235   5.406   4.479 -0.2196 -0.9125  1.3976
10540TIP3   OH253110   4.354   2.999   3.492  0.5619 -0.1680  0.3527
10540TIP3    H153111   4.374   3.057   3.419  0.6807 -0.8348 -0.1637
10540TIP3    H253112   4.263   3.016   3.512  0.0213 -1.1586 -1.0790
10541TIP3   OH253113   2.845   1.838   5.912  0.0552  0.1135  0.4941
10541TIP3    H153114   2.831   1.898   5.985 -0.0219  0.7931 -0.0623
10541TIP3    H253115   2.789   1.872   5.842 -0.1745 -0.7566  0.2467
10542TIP3   OH253116   2.463   3.262   2.418  0.0932 -0.1798  0.0064
10542TIP3    H153117   2.456   3.209   2.338 -0.1724 -1.0451  0.5916
10542TIP3    H253118   2.540   3.317   2.403  1.6875 -2.2245  0.2219
10543TIP3   OH253119   0.567   6.457  13.205  0.0994 -0.1292 -0.0821
10543TIP3    H153120   0.496   6.399  13.232 -0.7835  0.8542 -0.2166
10543TIP3    H253121   0.574   6.443  13.110 -1.4574  1.3607 -0.4740
10544TIP3   OH253122   6.047   0.395  11.295 -0.5419 -0.5649 -0.4849
10544TIP3    H153123   6.051   0.450  11.373 -0.4654 -0.5240 -0.5178
10544TIP3    H253124   6.129   0.345  11.296  0.0637  0.3811 -1.2377
10545TIP3   OH253125   5.796   3.745  10.496 -0.1136  0.3533  0.5615
10545TIP3    H153126   5.872   3.803  10.492 -0.3184  0.6709  1.0834
10545TIP3    H253127   5.833   3.658  10.510  0.1370  0.7138  2.5395
10546TIP3   OH253128   3.384   4.056   3.142  0.0872  0.4545 -1.1574
10546TIP3    H153129   3.295   4.081   3.119 -0.5362 -0.6178 -0.0495
10546TIP3    H253130   3.373   3.985   3.206  1.7168  0.8238 -0.4112
10547TIP3   OH253131   5.293   4.635  14.153 -0.2383 -0.1170  0.3735
10547TIP3    H153132   5.254   4.681  14.078 -0.8372  0.0203  0.7650
10547TIP3    H253133   5.221   4.586  14.191  0.9636 -4.0702 -1.9261
10548TIP3   OH253134   2.047   2.315  16.467 -0.1528  0.1007 -0.2553
10548TIP3    H153135   1.962   2.307  16.509  0.5296 -0.0900  1.1256
10548TIP3    H253136   2.084   2.226  16.468 -0.6223 -0.1889 -2.4297
10549TIP3   OH253137   1.106   3.267  10.593  0.4011  0.0584 -0.4806
10549TIP3    H153138   1.104   3.172  10.580  0.4186  0.0133 -0.1600
10549TIP3    H253139   1.014   3.293  10.593  0.2523 -0.2621  1.5768
10550TIP3   OH253140   0.236   3.672   1.123 -0.1172  0.0594  0.1254
10550TIP3    H153141   0.214   3.686   1.216  0.6735  0.7624  0.2149
10550TIP3    H253142   0.235   3.760   1.085  3.2831  0.3078  0.3199
10551TIP3   OH253143   6.023   3.752  11.083 -0.3996  0.4405  0.1885
10551TIP3    H153144   5.943   3.803  11.074 -0.0890  0.6418 -1.9307
10551TIP3    H253145   6.073   3.772  11.004  2.3275  1.2967  1.9711
10552TIP3   OH253146   1.128   0.211   2.144 -0.0477  0.5073  0.6297
10552TIP3    H153147   1.190   0.162   2.090  2.3775  2.5459  1.4148
10552TIP3    H253148   1.107   0.152   2.216 -0.5705 -0.9027 -0.6070
10553TIP3   OH253149   4.728   4.069   5.362 -0.2287  0.1857 -0.0893
10553TIP3    H153150   4.647   4.024   5.340 -1.0831  2.3167 -1.6465
10553TIP3    H253151   4.704   4.133   5.428  0.7164 -0.7069  1.1787
10554TIP3   OH253152   4.511   4.724  14.827 -0.1034  0.1668 -0.5188
10554TIP3    H153153   4.585   4.785  14.823  0.4217 -0.2173  1.7716
10554TIP3    H253154   4.507   4.684  14.740  2.1184  0.5159 -0.8299
10555TIP3   OH253155   5.662   0.908  11.464 -0.8001  0.3856  0.0855
10555TIP3    H153156   5.695   0.860  11.540  2.1018 -2.4948 -2.6661
10555TIP3    H253157   5.700   0.995  11.473  0.3030 -0.1857  1.4529
10556TIP3   OH253158   6.760   0.808  16.724 -0.6201  0.2643  0.1409
10556TIP3    H153159   6.666   0.815  16.709 -0.2958  1.2413 -1.6144
10556TIP3    H253160   6.778   0.714  16.717 -1.1006  0.2958 -2.0178
10557TIP3   OH253161   6.268   2.778   0.860 -0.7491 -0.1193  0.0214
10557TIP3    H153162   6.221   2.843   0.808 -0.2423 -1.1447 -1.8223
10557TIP3    H253163   6.265   2.698   0.807 -0.5092 -1.3482  1.7581
10558TIP3   OH253164   5.446   0.225  10.446  0.4598 -0.4044 -0.5948
10558TIP3    H153165   5.382   0.206  10.377 -1.4037 -1.9030  1.3881
10558TIP3    H253166   5.485   0.308  10.420 -2.3459  0.6493 -1.9276
10559TIP3   OH253167   6.158   2.581  15.889  0.1974  0.0315  0.2855
10559TIP3    H153168   6.104   2.506  15.862 -0.0379  0.3711 -0.2025
10559TIP3    H253169   6.174   2.566  15.982  1.9455 -1.7496 -0.2296
10560TIP3   OH253170   3.836   1.488   5.794 -0.3033 -0.2321 -0.4718
10560TIP3    H153171   3.791   1.407   5.769  0.5758 -0.3285 -1.8775
10560TIP3    H253172   3.912   1.459   5.844  0.8186 -0.4328 -2.1949
10561TIP3   OH253173   2.803   2.514  14.123 -0.3838 -0.4968 -0.4612
10561TIP3    H153174   2.826   2.582  14.186  0.9345  0.3157 -1.7489
10561TIP3    H253175   2.880   2.506  14.068 -1.0040 -2.1374 -1.1437
10562TIP3   OH253176   0.361   3.663   5.856 -0.8008  0.2703  0.0006
10562TIP3    H153177   0.398   3.577   5.877 -1.3024  0.4518  1.7794
10562TIP3    H253178   0.324   3.694   5.938  1.0252  3.0496 -0.1096
10563TIP3   OH253179   6.280   4.318   0.204 -0.1443 -0.3120 -0.7553
10563TIP3    H153180   6.371   4.309   0.177  0.3194  0.6999  0.3691
10563TIP3    H253181   6.284   4.374   0.282 -1.6484 -0.9880 -0.1688
10564TIP3   OH253182   3.571   6.769  16.051 -0.1593  0.2260 -0.1150
10564TIP3    H153183   3.493   6.733  16.009 -0.9855  2.1698 -0.3590
10564TIP3    H253184   3.538   6.815  16.128  1.0464 -0.9180  1.1605
10565TIP3   OH253185   4.541   2.647  10.542  0.3292  0.0312 -0.1150
10565TIP3    H153186   4.555   2.639  10.636  1.2170  1.6203 -0.0916
10565TIP3    H253187   4.450   2.673  10.533  0.0179 -0.8819  0.2373
10566TIP3   OH253188   2.655   1.193   3.016  0.6363 -0.1912 -0.2599
10566TIP3    H153189   2.580   1.176   3.073 -0.8972  1.0026 -1.8037
10566TIP3    H253190   2.628   1.161   2.931  1.7974  0.4990 -0.9140
10567TIP3   OH253191   3.100   2.011  13.605 -0.3775 -0.2460  0.2809
10567TIP3    H153192   3.103   1.916  13.593 -1.3035 -0.2018 -0.4760
10567TIP3    H253193   3.035   2.040  13.541  0.3779  0.9728  0.0426
10568TIP3   OH253194   0.224   3.660   1.426  0.5149 -0.1893 -0.1632
10568TIP3    H153195   0.136   3.687   1.398  1.1508  3.3024  0.8218
10568TIP3    H253196   0.208   3.595   1.494 -1.3216  0.4136  0.0482
10569TIP3   OH253197   2.313   2.575  14.109  0.2660  0.1991  0.0597
10569TIP3    H153198   2.368   2.624  14.170 -0.0615 -0.6156  1.0530
10569TIP3    H253199   2.224   2.601  14.132  0.1803  0.7341 -0.8467
10570TIP3   OH253200   1.521   5.102  11.735 -0.4092  0.1164 -0.3002
10570TIP3    H153201   1.585   5.115  11.665 -0.9771  1.0043 -0.6724
10570TIP3    H253202   1.500   5.009  11.732 -0.3579  0.1304 -1.2519
10571TIP3   OH253203   5.864   2.722  13.271  0.2529 -0.5581 -0.2008
10571TIP3    H153204   5.901   2.633  13.263 -0.0861 -1.0085  2.4937
10571TIP3    H253205   5.771   2.710  13.255  0.2723 -0.5904 -0.2957
10572TIP3   OH253206   2.328   4.505  11.001 -0.1116  0.5950 -0.1512
10572TIP3    H153207   2.261   4.543  10.944  0.2217  1.9878  0.3498
10572TIP3    H253208   2.341   4.416  10.967 -1.3679  0.6985 -0.9679
10573TIP3   OH253209   1.195   6.688   3.434  0.0223  0.2697  0.5826
10573TIP3    H153210   1.239   6.716   3.353  1.9528 -0.1375  1.4530
10573TIP3    H253211   1.137   6.617   3.406  0.5920  0.1954 -0.4575
10574TIP3   OH253212   1.014   5.838  16.645  0.4264 -0.1131  0.9754
10574TIP3    H153213   0.925   5.804  16.657  0.3992 -0.8030 -0.9729
10574TIP3    H253214   1.043   5.858  16.734 -1.0404 -1.4865  1.8196
10575TIP3   OH253215   0.699   4.386  16.772  0.0393  0.3825  0.2124
10575TIP3    H153216   0.722   4.306  16.819 -1.7780  0.0454  0.5837
10575TIP3    H253217   0.764   4.392  16.701  0.3640 -1.2552  0.3522
10576TIP3   OH253218   4.764   0.983  11.148  0.5630 -0.5935  0.1700
10576TIP3    H153219   4.828   1.025  11.205 -1.0638  0.9044  0.9868
10576TIP3    H253220   4.808   0.975  11.063  1.7766  0.5180  0.6656
10577TIP3   OH253221   2.158   1.703   5.712 -0.1068 -0.6308  0.3507
10577TIP3    H153222   2.079   1.649   5.704 -0.5639 -0.0006  0.6058
10577TIP3    H253223   2.153   1.765   5.639  0.8145 -1.4059 -0.4180
10578TIP3   OH253224   3.342   6.742  13.378  0.2474 -0.1059  0.4053
10578TIP3    H153225   3.296   6.713  13.457 -1.6040 -0.7089 -0.8435
10578TIP3    H253226   3.362   6.834  13.394  0.3032 -0.3151  1.7238
10579TIP3   OH253227   6.589   5.265   0.529 -0.0138 -0.2955 -0.0050
10579TIP3    H153228   6.682   5.254   0.509  0.4949 -0.7787  2.3580
10579TIP3    H253229   6.554   5.311   0.453  1.6976 -1.9161 -1.9022
10580TIP3   OH253230   4.032   0.314  12.818 -1.0421  0.0176 -0.2823
10580TIP3    H153231   4.008   0.341  12.906 -1.6806  0.4688 -0.5894
10580TIP3    H253232   3.949   0.302  12.772 -0.7141  0.5603 -1.0514
10581TIP3   OH253233   2.075   5.296   5.246  0.2540 -0.4287 -0.2934
10581TIP3    H153234   2.067   5.332   5.158 -0.3681 -1.3828 -0.6415
10581TIP3    H253235   2.076   5.372   5.303  0.8954  0.2091 -1.1374
10582TIP3   OH253236   1.638   5.761  13.009 -0.0448  0.0070  0.3023
10582TIP3    H153237   1.696   5.833  12.985 -0.1142  0.0376  0.2272
10582TIP3    H253238   1.696   5.684  13.015  0.3620  0.3939  2.1308
10583TIP3   OH253239   5.101   0.982   1.187  0.1027  0.1527 -0.2630
10583TIP3    H153240   5.183   1.012   1.148 -0.3701  1.2758 -0.4429
10583TIP3    H253241   5.128   0.921   1.256  1.1284  1.0357  0.1535
10584TIP3   OH253242   1.614   3.987   4.152  0.3915  0.4193 -0.3449
10584TIP3    H153243   1.669   4.051   4.196  1.7668 -1.2833  0.5448
10584TIP3    H253244   1.633   3.904   4.196 -1.0465 -0.6911 -1.6670
10585TIP3   OH253245   2.241   2.291  14.074  0.4310 -0.1586  0.1478
10585TIP3    H153246   2.276   2.378  14.054 -0.1887 -0.2521 -1.4862
10585TIP3    H253247   2.232   2.291  14.169  0.7753  1.4322  0.2191
10586TIP3   OH253248   3.044   3.975  14.522  0.3428  0.0836 -0.1020
10586TIP3    H153249   3.008   4.035  14.456  2.6118  0.9621 -0.6365
10586TIP3    H253250   3.055   4.029  14.600 -2.4476 -0.9870  1.1503
10587TIP3   OH253251   5.841   0.695  14.337  0.6851  0.2939 -0.0338
10587TIP3    H153252   5.825   0.630  14.269  1.6554 -0.9732  0.8923
10587TIP3    H253253   5.893   0.763  14.295 -1.8490  1.4779 -1.5036
10588TIP3   OH253254   6.472   3.409   2.978 -0.7236  0.6993  0.0031
10588TIP3    H153255   6.382   3.440   2.977 -1.2896 -0.8548 -0.8582
10588TIP3    H253256   6.525   3.487   2.965 -2.0075  1.4627 -0.8320
10589TIP3   OH253257   5.034   5.570  15.969  0.2505 -0.1280 -0.6916
10589TIP3    H153258   5.026   5.495  15.910  1.8645  1.3997 -3.0064
10589TIP3    H253259   4.963   5.629  15.942 -0.2640 -0.2634  0.3140
10590TIP3   OH253260   6.310   0.475   0.564 -0.1061 -0.3620  0.2411
10590TIP3    H153261   6.347   0.465   0.476  1.2364 -0.2325  0.7669
10590TIP3    H253262   6.216   0.479   0.550 -0.0177 -1.8248 -1.0532
10591TIP3   OH253263   0.339   1.029  17.169 -0.2855  0.1350  0.4595
10591TIP3    H153264   0.361   1.122  17.158  1.3033 -0.2723 -0.0875
10591TIP3    H253265   0.367   1.008  17.258 -3.5506  0.8727  1.8363
10592TIP3   OH253266   1.136   2.189   4.183 -0.6310  0.3801 -0.3293
10592TIP3    H153267   1.204   2.134   4.144 -0.0155  0.2119  0.9452
10592TIP3    H253268   1.173   2.277   4.182  0.1325  0.1198  1.4239
10593TIP3   OH253269   3.085   1.855   1.720 -0.2751 -0.0954 -0.5482
10593TIP3    H153270   3.137   1.844   1.800 -1.1828 -0.3616  0.0229
10593TIP3    H253271   3.008   1.904   1.748  1.0013  2.9902 -1.9414
10594TIP3   OH253272   4.391   4.936   0.880 -0.6964  0.2659 -0.3792
10594TIP3    H153273   4.416   4.900   0.964 -1.4088  0.7308  0.0447
10594TIP3    H253274   4.310   4.890   0.857  0.1215 -0.7437 -1.4129
10595TIP3   OH253275   6.494   5.218  10.624 -0.0350  0.2405 -0.1582
10595TIP3    H153276   6.583   5.185  10.639 -0.1280 -0.1398 -0.4080
10595TIP3    H253277   6.465   5.173  10.544  0.3272  1.9338 -1.2912
10596TIP3   OH253278   6.083   0.314   5.536  0.5518 -0.6851 -0.1173
10596TIP3    H153279   6.151   0.248   5.551 -0.5349 -1.3573  2.2753
10596TIP3    H253280   6.010   0.266   5.497  0.2912 -0.6004  0.2646
10597TIP3   OH253281   3.902   1.374  15.772 -0.2142 -0.3054 -0.0491
10597TIP3    H153282   3.988   1.417  15.778  0.4928 -1.7737  1.0516
10597TIP3    H253283   3.901   1.335  15.685  0.3206 -0.4568  0.0092
10598TIP3   OH253284   3.316   6.303  16.132 -0.2349  0.6501 -0.0254
10598TIP3    H153285   3.371   6.370  16.173 -1.0434  0.8525  0.7937
10598TIP3    H253286   3.338   6.223  16.178  1.4273  0.1196 -1.6594
10599TIP3   OH253287   0.646   5.416   0.009 -0.2395  0.0860  0.3502
10599TIP3    H153288   0.701   5.473  -0.044 -0.3015 -0.2085 -0.0365
10599TIP3    H253289   0.568   5.468   0.027 -0.6052 -0.1200 -0.5955
10600TIP3   OH253290   5.759   6.818  16.135 -0.3507  0.5958 -0.4342
10600TIP3    H153291   5.735   6.905  16.168 -1.8715 -0.2120  0.7585
10600TIP3    H253292   5.820   6.784  16.200 -0.2715  0.5152 -0.5508
10601TIP3   OH253293   6.435   4.586   2.999  0.3785 -0.0584 -0.5465
10601TIP3    H153294   6.362   4.597   2.937  0.4193 -1.1521 -0.8088
10601TIP3    H253295   6.396   4.601   3.085 -0.5408 -2.0592 -0.5472
10602TIP3   OH253296   2.292   1.224   0.096 -0.1580  0.0434 -0.6503
10602TIP3    H153297   2.326   1.143   0.133 -2.3348 -0.4597  0.3547
10602TIP3    H253298   2.256   1.198   0.011 -1.2131 -0.1419 -0.1554
10603TIP3   OH253299   5.209   6.688   5.502  0.7628  0.1313 -0.8895
10603TIP3    H153300   5.207   6.615   5.564  3.3340  0.7973  0.1044
10603TIP3    H253301   5.265   6.656   5.430  1.7900  1.0405 -0.5132
10604TIP3   OH253302   1.421   1.512   4.208  0.2911  0.3548 -0.3826
10604TIP3    H153303   1.456   1.495   4.121  0.2391  0.8125 -0.4962
10604TIP3    H253304   1.463   1.594   4.235 -0.6670  0.8957 -0.5104
10605TIP3   OH253305   3.920   0.139   4.269 -0.1368  0.0895 -0.4210
10605TIP3    H153306   3.896   0.232   4.261 -0.2169 -0.0079 -1.5036
10605TIP3    H253307   4.014   0.137   4.249 -0.1050 -0.0471 -0.2581
10606TIP3   OH253308   6.707   0.440  12.664  0.4510 -0.6077  0.3977
10606TIP3    H153309   6.669   0.358  12.634 -0.7776  0.5809 -1.4505
10606TIP3    H253310   6.719   0.492  12.585  1.8455  0.7748  1.4388
10607TIP3   OH253311   1.175   0.644  11.994 -0.3443  0.5033  0.7526
10607TIP3    H153312   1.202   0.557  11.963  0.6601  1.2724 -0.6206
10607TIP3    H253313   1.237   0.704  11.954 -0.3151  1.7909  2.5859
10608TIP3   OH253314   0.457   4.790  12.654  0.4488 -0.5537  0.2277
10608TIP3    H153315   0.502   4.801  12.570 -0.1980  1.6064  0.1058
10608TIP3    H253316   0.403   4.712  12.642 -0.0708  0.0333 -1.5920
10609TIP3   OH253317   3.880   5.295  12.505  0.4495 -0.7806  0.1089
10609TIP3    H153318   3.842   5.216  12.543  0.1674  0.3255  2.3444
10609TIP3    H253319   3.804   5.350  12.484  0.6466  0.1924  1.7171
10610TIP3   OH253320   5.478   0.357  13.864  0.3306  0.2387 -0.2078
10610TIP3    H153321   5.436   0.436  13.898 -1.6489 -0.9907  0.3867
10610TIP3    H253322   5.484   0.299  13.940 -0.8889 -1.2339 -1.1922
10611TIP3   OH253323   3.097   5.854   2.573 -0.2605 -0.2234 -0.2189
10611TIP3    H153324   3.159   5.783   2.554  0.3370  0.3155 -0.3164
10611TIP3    H253325   3.046   5.822   2.647  0.9070 -0.2311  0.6191
10612TIP3   OH253326   6.198   2.242   2.019 -0.4009  0.0860  0.5742
10612TIP3    H153327   6.267   2.247   1.953 -1.2711  0.9078 -0.3102
10612TIP3    H253328   6.184   2.148   2.031  0.2145 -0.0798  0.0628
10613TIP3   OH253329   2.548   0.755   1.403  0.4486 -0.4869 -0.9830
10613TIP3    H153330   2.515   0.726   1.488 -1.2973  0.3874 -1.3184
10613TIP3    H253331   2.629   0.705   1.390 -0.3620 -2.1975  0.2127
10614TIP3   OH253332   1.928   0.401  11.041  0.5861 -0.4949 -0.0275
10614TIP3    H153333   1.900   0.412  10.950  2.4884 -0.3296 -0.6300
10614TIP3    H253334   1.846   0.399  11.091 -0.4651  0.2768 -1.6346
10615TIP3   OH253335   3.811   1.933  14.284 -0.3151  0.0316  0.7944
10615TIP3    H153336   3.778   1.848  14.311 -1.2048 -1.2716 -3.6054
10615TIP3    H253337   3.736   1.992  14.291 -0.2426  0.0152  1.9016
10616TIP3   OH253338   1.188   5.543   0.395  0.2325 -0.3871 -0.0167
10616TIP3    H153339   1.158   5.499   0.475  0.7934 -0.4373  0.1717
10616TIP3    H253340   1.168   5.481   0.325 -1.4895  0.2091 -0.0956
10617TIP3   OH253341   3.502   6.560   5.220 -0.3046  0.1462  0.3392
10617TIP3    H153342   3.480   6.467   5.230 -2.5823  0.6196  0.2615
10617TIP3    H253343   3.481   6.598   5.305  0.0743  0.7072  0.1830
10618TIP3   OH253344   5.775   0.903   4.062  0.0740 -0.0101 -0.2530
10618TIP3    H153345   5.802   0.811   4.062 -0.5211 -0.1968 -0.6140
10618TIP3    H253346   5.735   0.915   3.976  1.2932  0.9411 -0.7061
10619TIP3   OH253347   1.720   0.858  11.293 -0.6829 -0.5076 -0.4684
10619TIP3    H153348   1.751   0.776  11.333 -0.0406 -0.2744 -0.4942
10619TIP3    H253349   1.641   0.880  11.343  0.7549  0.4225  1.5188
10620TIP3   OH253350   5.832   0.253   2.484  0.2966 -0.3473 -0.2310
10620TIP3    H153351   5.749   0.271   2.528  0.1016 -0.1435 -0.6764
10620TIP3    H253352   5.808   0.200   2.407  0.5085  0.2109 -0.6875
10621TIP3   OH253353   4.321   4.725   2.887  0.1005 -0.1607  0.3664
10621TIP3    H153354   4.293   4.680   2.807 -0.9792 -1.0385  1.2128
10621TIP3    H253355   4.414   4.708   2.893  0.4633  0.9150 -1.3197
10622TIP3   OH253356   4.687   2.086   4.002  0.0610 -0.2784 -1.1954
10622TIP3    H153357   4.677   2.136   3.921  0.5435  2.2587  0.2054
10622TIP3    H253358   4.598   2.064   4.028 -0.2473  0.7572 -1.3362
10623TIP3   OH253359   3.233   4.707   3.257 -0.0837  0.8163 -0.2565
10623TIP3    H153360   3.252   4.613   3.260 -1.0763  0.6128  2.3084
10623TIP3    H253361   3.180   4.719   3.179  0.0389 -0.7515 -0.6085
10624TIP3   OH253362   6.222   2.822  12.415 -0.2956  0.0194  0.1082
10624TIP3    H153363   6.192   2.910  12.392 -0.3829  0.4761  1.8505
10624TIP3    H253364   6.203   2.813  12.508 -1.3057 -2.2844 -0.2542
10625TIP3   OH253365   3.611   4.830   3.663 -0.1239 -0.3978 -0.1233
10625TIP3    H153366   3.622   4.735   3.673  0.3148 -0.5180 -1.5124
10625TIP3    H253367   3.634   4.847   3.572  0.4562  1.1448  0.2844
10626TIP3   OH253368   6.787   4.529   3.745 -0.5929  0.1661  0.2273
10626TIP3    H153369   6.720   4.495   3.685 -1.5642  2.6281 -0.1864
10626TIP3    H253370   6.746   4.606   3.786  1.7985  1.4685  0.3399
10627TIP3   OH253371   5.703   2.611  16.012 -0.0499 -0.0365 -0.1730
10627TIP3    H153372   5.750   2.537  16.050 -0.3504 -0.4735 -0.6364
10627TIP3    H253373   5.730   2.611  15.920 -0.9547 -0.2892 -0.4426
10628TIP3   OH253374   0.130   2.107  17.129  0.0835 -0.1584 -0.3698
10628TIP3    H153375   0.046   2.086  17.088 -1.2364  2.0396  0.9863
10628TIP3    H253376   0.169   2.173  17.072 -0.8100  1.4043  0.7543
10629TIP3   OH253377   4.456   2.697  15.258  0.2076 -0.5865 -0.4837
10629TIP3    H153378   4.500   2.677  15.176  1.5260  0.2173  0.0032
10629TIP3    H253379   4.523   2.739  15.312 -1.2906  1.2374  0.0641
10630TIP3   OH253380   6.719   1.871   5.229 -0.0736 -0.0991 -0.4978
10630TIP3    H153381   6.703   1.791   5.280 -0.7915 -0.6586 -1.5744
10630TIP3    H253382   6.701   1.942   5.291 -0.5929 -0.7574  0.1371
10631TIP3   OH253383   6.751   0.291  13.358  0.3242 -0.3854  0.1990
10631TIP3    H153384   6.769   0.215  13.302 -0.2903  0.3975 -1.1029
10631TIP3    H253385   6.686   0.341  13.310 -0.3329  0.2572  1.7071
10632TIP3   OH253386   5.051   1.527  15.918 -0.3374 -0.1562 -0.0482
10632TIP3    H153387   5.050   1.439  15.957 -0.6401  0.3657  1.1732
10632TIP3    H253388   5.136   1.532  15.874  1.6329  0.3468  3.3830
10633TIP3   OH253389   2.296   5.603   1.440 -0.1070  0.3602  0.2086
10633TIP3    H153390   2.346   5.632   1.516 -1.7656  0.8831  1.1598
10633TIP3    H253391   2.214   5.652   1.446 -0.9187 -0.7974 -1.0175
10634TIP3   OH253392   2.103   1.621  14.096  0.1845  0.1779 -0.1176
10634TIP3    H153393   2.076   1.540  14.053  0.4821 -0.9981  1.7901
10634TIP3    H253394   2.060   1.690  14.045 -4.0640 -1.3574  0.9409
10635TIP3   OH253395   3.568   3.708  15.765  0.6144 -0.0236  0.0900
10635TIP3    H153396   3.651   3.716  15.812  0.6600  1.5827 -0.2047
10635TIP3    H253397   3.501   3.730  15.829  0.4274 -0.8661  0.2027
10636TIP3   OH253398   6.793   6.372   2.295 -0.1264  0.2099  0.0048
10636TIP3    H153399   6.825   6.423   2.221  1.7765 -1.7664 -0.6293
10636TIP3    H253400   6.872   6.342   2.340 -1.2059 -0.5104  1.5349
10637TIP3   OH253401   1.234   0.224  17.002  0.3514 -0.5559 -0.3529
10637TIP3    H153402   1.291   0.274  16.943 -0.1902 -1.0739 -1.3260
10637TIP3    H253403   1.232   0.277  17.082 -0.2259  1.0329 -1.3612
10638TIP3   OH253404   6.626   4.785  12.816  0.3373 -0.0785  0.0246
10638TIP3    H153405   6.706   4.750  12.777  0.8918  1.5560 -0.3702
10638TIP3    H253406   6.652   4.868  12.855 -0.7473 -0.4713  1.7145
10639TIP3   OH253407   6.656   2.912  11.418  0.0078 -0.0759  0.0340
10639TIP3    H153408   6.635   2.835  11.471 -0.8397 -0.0887 -0.3127
10639TIP3    H253409   6.750   2.904  11.401  0.0716 -0.6443  0.6141
10640TIP3   OH253410   6.103   4.528  16.404 -0.5237 -0.5862 -0.9245
10640TIP3    H153411   6.163   4.580  16.458 -0.6597 -0.3830 -0.9696
10640TIP3    H253412   6.156   4.453  16.375 -0.2405 -0.3172 -1.1074
10641TIP3   OH253413   5.857   2.851   5.969  0.6622  0.7837 -0.1289
10641TIP3    H153414   5.908   2.883   6.044 -0.7787  0.7186  0.9211
10641TIP3    H253415   5.772   2.892   5.979 -0.5588 -1.6193  0.0417
10642TIP3   OH253416   2.647   6.671  15.476  0.6750  0.0388 -0.0112
10642TIP3    H153417   2.690   6.679  15.561 -2.2351  0.4752  1.5426
10642TIP3    H253418   2.623   6.579  15.469 -1.7327  0.4770  1.1757
10643TIP3   OH253419   1.487   1.870   5.979 -0.4858 -0.2519  0.0547
10643TIP3    H153420   1.489   1.902   5.889  1.4245 -0.6561 -0.0887
10643TIP3    H253421   1.500   1.948   6.033 -2.2783  0.0945  0.0740
10644TIP3   OH253422   1.163   2.510   5.836  0.2747 -0.5489  0.4000
10644TIP3    H153423   1.166   2.596   5.877 -1.5988  0.8968 -2.1706
10644TIP3    H253424   1.133   2.451   5.905  1.7452  0.7916  2.2556
10645TIP3   OH253425   1.540   2.668   3.502  0.1675  0.5896  0.2570
10645TIP3    H153426   1.548   2.741   3.440 -0.8422  0.8509  0.4217
10645TIP3    H253427   1.447   2.646   3.501  0.1319  0.6046  1.6985
10646TIP3   OH253428   4.048   6.011   6.060  0.3406 -0.4435  0.0215
10646TIP3    H153429   4.021   6.100   6.036  1.4398 -0.5387 -1.7558
10646TIP3    H253430   4.052   6.012   6.155 -2.7294  0.4582  0.2743
10647TIP3   OH253431   2.543   2.421  15.258  0.0777  0.1041 -0.1178
10647TIP3    H153432   2.627   2.380  15.239 -0.5383 -1.8047  1.0615
10647TIP3    H253433   2.483   2.349  15.273 -0.4501  1.2099  4.8099
10648TIP3   OH253434   4.533   3.757   5.697  0.1570 -0.1858  0.4379
10648TIP3    H153435   4.566   3.750   5.607 -2.0156  2.4214 -0.7133
10648TIP3    H253436   4.598   3.811   5.742  0.2306  0.2571 -0.1879
10649TIP3   OH253437   0.931   2.380   5.134  0.2784 -0.0219  0.3912
10649TIP3    H153438   0.997   2.314   5.113 -1.1754 -1.7539  1.0161
10649TIP3    H253439   0.955   2.411   5.221  1.4388  0.9212 -0.2386
10650TIP3   OH253440   0.559   5.986   4.313  0.0780  0.0735  0.0565
10650TIP3    H153441   0.621   6.008   4.243 -0.6651 -0.7413 -0.8912
10650TIP3    H253442   0.498   6.060   4.314  0.0254  0.0368 -0.2444
10651TIP3   OH253443   6.374   1.752  12.381 -0.3469 -0.6265  0.4058
10651TIP3    H153444   6.311   1.700  12.432 -1.1327 -0.2221 -0.1245
10651TIP3    H253445   6.352   1.733  12.290 -0.1540  0.0586  0.2106
10652TIP3   OH253446   3.395   0.539   6.330  0.1030  0.5196  0.0700
10652TIP3    H153447   3.310   0.509   6.298  0.8518 -0.9689 -0.6693
10652TIP3    H253448   3.453   0.529   6.254  1.6721 -1.9552  1.4543
10653TIP3   OH253449   0.408   1.577   0.105 -1.0582 -0.3404  0.4272
10653TIP3    H153450   0.402   1.652   0.164 -2.2314  1.6822 -2.0392
10653TIP3    H253451   0.317   1.550   0.092 -0.9544  0.0204 -1.2678
10654TIP3   OH253452   6.312   5.200  15.064 -0.1577 -0.0694 -0.1328
10654TIP3    H153453   6.232   5.229  15.020 -0.0747 -0.0785 -0.2926
10654TIP3    H253454   6.282   5.141  15.133 -0.5783  2.5300  2.0782
10655TIP3   OH253455   0.556   1.419  11.539  0.5168 -0.1887 -0.7417
10655TIP3    H153456   0.514   1.476  11.474  0.2887 -0.6592 -1.0119
10655TIP3    H253457   0.483   1.374  11.581  0.7797 -1.9044 -2.0326
10656TIP3   OH253458   4.940   1.981  14.856  0.2669 -0.2655 -0.2835
10656TIP3    H153459   4.950   1.960  14.949 -1.0859 -0.3213 -0.1351
10656TIP3    H253460   4.899   2.067  14.855  1.8122  0.4984 -0.8674
10657TIP3   OH253461   2.237   0.821  10.619  0.2318  0.0240  0.4160
10657TIP3    H153462   2.149   0.836  10.584  0.3859 -0.5758 -0.2575
10657TIP3    H253463   2.264   0.906  10.652 -1.2312 -0.1244  2.1285
10658TIP3   OH253464   1.674   4.238  13.679 -0.1876  0.1000 -0.0489
10658TIP3    H153465   1.765   4.263  13.696 -0.6885  1.9319  0.1683
10658TIP3    H253466   1.623   4.290  13.741 -1.3899 -1.0060 -0.0675
10659TIP3   OH253467   1.803   1.768   4.395 -0.2882  0.0605  0.7983
10659TIP3    H153468   1.746   1.720   4.456  1.9763 -1.3362  1.9820
10659TIP3    H253469   1.880   1.790   4.447  0.0065  2.5365 -0.5272
10660TIP3   OH253470   2.939   4.504  12.673 -0.8067 -0.4688 -0.1074
10660TIP3    H153471   2.926   4.498  12.768  0.4808 -0.5966  0.0724
10660TIP3    H253472   2.902   4.423  12.639 -0.0273 -1.0670  0.4329
10661TIP3   OH253473   1.004   2.861  15.619  0.1677 -0.0485 -0.3035
10661TIP3    H153474   1.059   2.936  15.639  1.6366 -0.5294 -2.2923
10661TIP3    H253475   0.968   2.834  15.704  3.4721 -0.0902  1.2343
10662TIP3   OH253476   6.024   2.776  11.100 -0.4727  0.1325  0.1753
10662TIP3    H153477   6.104   2.769  11.048  0.3174 -0.9899  1.4781
10662TIP3    H253478   6.040   2.849  11.159 -0.4889  0.0426  0.2918
10663TIP3   OH253479   0.660   0.879  13.200  0.2738  0.0654 -0.0070
10663TIP3    H153480   0.614   0.814  13.147 -0.0825 -0.6380  1.1295
10663TIP3    H253481   0.750   0.847  13.205 -0.2456 -1.2768  1.8961
10664TIP3   OH253482   2.935   5.168  11.817  0.3186 -0.5479 -0.3718
10664TIP3    H153483   3.003   5.234  11.805  0.5841 -0.2281  2.2919
10664TIP3    H253484   2.891   5.164  11.732  0.9818  2.2821 -0.9718
10665TIP3   OH253485   2.065   2.120  11.315 -0.1206 -0.2851 -0.2234
10665TIP3    H153486   2.135   2.114  11.380  0.9995  0.6122 -1.2927
10665TIP3    H253487   2.082   2.049  11.254 -0.4140 -0.3374 -0.2467
10666TIP3   OH253488   4.793   3.428  12.396 -0.2673  0.1303  0.6062
10666TIP3    H153489   4.765   3.391  12.312  1.0488 -3.0730  1.4217
10666TIP3    H253490   4.857   3.495  12.371  0.0332 -0.6774 -1.0015
10667TIP3   OH253491   0.390   0.542  14.346 -0.0855  0.4250  0.2314
10667TIP3    H153492   0.468   0.514  14.298 -1.2910  0.7953 -2.0952
10667TIP3    H253493   0.351   0.462  14.379  0.1432  0.0198 -0.4614
10668TIP3   OH253494   6.224   0.041   2.204 -0.3137 -0.2740  0.5155
10668TIP3    H153495   6.156  -0.025   2.189 -1.6495  0.6830  2.0438
10668TIP3    H253496   6.260   0.019   2.290 -1.2585  1.3362  1.3608
10669TIP3   OH253497   5.205   4.492  14.653 -0.2714  0.1319 -0.2283
10669TIP3    H153498   5.225   4.406  14.692 -0.7009 -0.2355 -0.8051
10669TIP3    H253499   5.267   4.500  14.581  0.2094  0.6055  0.2308
10670TIP3   OH253500   2.512   0.008   1.161  0.1860  0.2023  0.0772
10670TIP3    H153501   2.416   0.007   1.156  0.0669 -0.2102  1.6839
10670TIP3    H253502   2.539   0.065   1.090 -1.2663  0.4263 -0.3338
10671TIP3   OH253503   0.418   5.623   4.896  0.0190 -0.7009 -0.4692
10671TIP3    H153504   0.431   5.566   4.972  0.3889 -2.5715 -1.8593
10671TIP3    H253505   0.336   5.593   4.858  0.9320 -1.3414 -2.0319
10672TIP3   OH253506   3.682   3.020   5.463  0.1105  0.3631  0.0429
10672TIP3    H153507   3.690   2.942   5.518 -0.6260  1.5307  1.9080
10672TIP3    H253508   3.663   2.986   5.375 -0.0861 -1.5439  0.7867
10673TIP3   OH253509   1.804   4.469   2.512  0.2996  0.4200  0.0058
10673TIP3    H153510   1.847   4.384   2.530  0.6724  0.5733 -0.1472
10673TIP3    H253511   1.874   4.524   2.478 -0.2799  0.3090 -1.4137
10674TIP3   OH253512   0.304   0.447  11.314  0.0386 -0.3723 -0.7459
10674TIP3    H153513   0.357   0.396  11.376  1.1222  0.9025 -0.5471
10674TIP3    H253514   0.214   0.427  11.336  0.4350 -1.6342 -0.2154
10675TIP3   OH253515   5.983   0.293  13.497  0.1803  0.5706 -0.6288
10675TIP3    H153516   6.047   0.273  13.428 -0.5927  2.4297 -1.9800
10675TIP3    H253517   5.909   0.235  13.479 -0.6496  2.0709 -2.3935
10676TIP3   OH253518   3.837   5.697   1.530  0.2903 -0.8265 -0.5927
10676TIP3    H153519   3.821   5.629   1.596 -0.1314  0.1854  0.3852
10676TIP3    H253520   3.776   5.767   1.553  0.0635 -0.4857 -2.1424
10677TIP3   OH253521   0.056   5.591   4.213 -0.0939  0.5882  0.2130
10677TIP3    H153522  -0.020   5.549   4.254  0.7774 -0.0445  1.2505
10677TIP3    H253523   0.036   5.685   4.216 -1.5981  0.3498 -1.1649
10678TIP3   OH253524   0.441   3.415   1.435  0.2108 -0.0184  0.3949
10678TIP3    H153525   0.494   3.465   1.497  2.3186 -1.0008 -0.5203
10678TIP3    H253526   0.404   3.482   1.377  0.2696  0.7066  1.1679
10679TIP3   OH253527   6.458   3.130  11.935 -0.4418  0.5349  0.1332
10679TIP3    H153528   6.432   3.216  11.903 -1.9361 -0.1951 -0.7627
10679TIP3    H253529   6.402   3.069  11.887  1.4659 -1.0429 -0.2438
10680TIP3   OH253530   4.623   5.553  13.722  0.0645 -0.2401  0.1993
10680TIP3    H153531   4.680   5.622  13.687 -0.3503  0.2071  0.3948
10680TIP3    H253532   4.574   5.596  13.792  0.1101 -0.8507  0.6155
10681TIP3   OH253533   3.999   3.588  14.714  0.0245  0.4145  0.6651
10681TIP3    H153534   4.079   3.552  14.676 -1.0277 -1.4022  0.0444
10681TIP3    H253535   4.024   3.616  14.802  1.5063  0.6553  0.1898
10682TIP3   OH253536   1.571   5.035   3.756  0.0480  0.1561  0.3121
10682TIP3    H153537   1.541   4.944   3.759 -1.6412  0.6807  0.7662
10682TIP3    H253538   1.490   5.086   3.753  0.9592  1.6571  0.3656
10683TIP3   OH253539   1.240   1.407  11.333  0.1256  0.3166  0.1835
10683TIP3    H153540   1.245   1.497  11.365  0.1257  0.8158 -1.1707
10683TIP3    H253541   1.225   1.415  11.239 -0.4168 -1.1039  0.1141
10684TIP3   OH253542   0.808   1.518   1.454  0.1960  0.2395  0.9877
10684TIP3    H153543   0.853   1.555   1.378  0.9720 -0.8466  0.8941
10684TIP3    H253544   0.717   1.546   1.444  0.4991  1.0187  0.2475
10685TIP3   OH253545   0.753   6.107   4.169 -0.2529 -0.0952 -0.1922
10685TIP3    H153546   0.818   6.048   4.131 -0.9609 -1.1136  0.1176
10685TIP3    H253547   0.799   6.190   4.181  0.1566  0.1175 -2.7015
10686TIP3   OH253548   6.428   1.949   5.073 -0.3046 -0.4245  0.2809
10686TIP3    H153549   6.517   1.927   5.099 -0.0125  1.8667  1.5129
10686TIP3    H253550   6.419   2.042   5.093 -2.0665  0.1286 -2.4851
10687TIP3   OH253551   1.390   3.611  10.810  0.2843  0.3807  0.3507
10687TIP3    H153552   1.482   3.583  10.806  0.6320  1.4678  0.4909
10687TIP3    H253553   1.340   3.530  10.799  1.2010  0.1215 -3.0619
10688TIP3   OH253554   0.823   2.611   5.062 -0.3264 -0.1524 -0.4110
10688TIP3    H153555   0.796   2.654   5.144  0.5166 -0.6697  0.1575
10688TIP3    H253556   0.865   2.530   5.091 -0.5085 -0.6065 -1.3977
10689TIP3   OH253557   1.299   2.805  11.613  0.5356 -0.0110 -0.1255
10689TIP3    H153558   1.316   2.887  11.661  0.8222  0.9977 -1.8694
10689TIP3    H253559   1.385   2.777  11.581  0.0439  0.9660 -2.5053
10690TIP3   OH253560   3.681   1.807  12.724  0.3894 -0.7163  0.6697
10690TIP3    H153561   3.642   1.801  12.811 -0.2778 -2.3976  0.2755
10690TIP3    H253562   3.608   1.827  12.666  0.8016  0.2024  0.4540
10691TIP3   OH253563   6.519   3.147  14.608 -0.0932  0.0617 -0.5283
10691TIP3    H153564   6.608   3.181  14.599 -0.3698  1.1870  0.6472
10691TIP3    H253565   6.478   3.162  14.523  0.7823 -0.3186 -1.0239
10692TIP3   OH253566   5.623   3.359   5.100 -0.0050  0.0849 -0.6858
10692TIP3    H153567   5.668   3.404   5.028 -0.7519  1.9033 -0.0783
10692TIP3    H253568   5.551   3.417   5.123 -1.4240 -1.7782 -0.2507
10693TIP3   OH253569   4.400   4.068  14.522 -0.1328 -0.4101 -0.0533
10693TIP3    H153570   4.447   3.998  14.477 -0.0073 -1.9594  2.2995
10693TIP3    H253571   4.465   4.105  14.582 -0.2571  1.6537 -1.1103
10694TIP3   OH253572   0.718   4.393   1.331 -0.8035 -0.5077 -0.0529
10694TIP3    H153573   0.813   4.405   1.332 -1.0978  2.8646 -0.9285
10694TIP3    H253574   0.702   4.327   1.263  0.8836 -0.9439 -0.0535
10695TIP3   OH253575   0.550   6.458   4.281 -0.5536  0.2064 -0.1372
10695TIP3    H153576   0.543   6.412   4.198  0.4361  0.7134 -0.5237
10695TIP3    H253577   0.460   6.486   4.301 -0.5922  1.5969 -1.9360
10696TIP3   OH253578   4.946   0.786   5.672 -0.5507 -0.2936 -0.4651
10696TIP3    H153579   4.963   0.726   5.599  1.7049 -2.2981  1.5134
10696TIP3    H253580   4.896   0.734   5.735 -2.4511  1.3895 -0.5028
10697TIP3   OH253581   3.557   1.270   4.496 -0.2135  0.3594 -0.3267
10697TIP3    H153582   3.543   1.178   4.516 -2.4256  1.0580  1.7797
10697TIP3    H253583   3.642   1.290   4.535  0.5198 -0.8696 -1.2337
10698TIP3   OH253584   6.132   2.281  14.935  0.2999 -0.0751  0.5456
10698TIP3    H153585   6.193   2.352  14.915  1.1310 -1.0676 -0.5908
10698TIP3    H253586   6.118   2.287  15.030  0.2365  1.6688  0.4512
10699TIP3   OH253587   5.321   5.811   4.742 -0.0760  0.4681 -0.1064
10699TIP3    H153588   5.409   5.815   4.704 -0.2318  1.1141 -0.4290
10699TIP3    H253589   5.293   5.721   4.729  0.6474  0.1894  0.2432
10700TIP3   OH253590   2.156   2.091  15.338 -0.1111 -0.6118 -0.5679
10700TIP3    H153591   2.238   2.041  15.329  0.9790  0.8286  0.8780
10700TIP3    H253592   2.184   2.182  15.341 -1.8549 -0.0474 -0.6559
10701TIP3   OH253593   0.811   5.149   1.621  0.0434 -0.5229  0.3411
10701TIP3    H153594   0.727   5.195   1.629  0.7019  0.6920  0.4642
10701TIP3    H253595   0.876   5.212   1.652  1.3639 -0.1854 -2.7311
10702TIP3   OH253596   6.452   2.302   0.874  0.6796  0.3179  0.4425
10702TIP3    H153597   6.537   2.307   0.832  0.3826  1.0786 -0.0928
10702TIP3    H253598   6.402   2.375   0.837 -0.4014 -0.4659  0.2966
10703TIP3   OH253599   5.979   1.046   0.195  0.9368  0.2369  0.2244
10703TIP3    H153600   6.035   1.124   0.190  1.6974 -0.2751  0.6094
10703TIP3    H253601   5.934   1.054   0.280  0.9898  0.2728  0.2490
10704TIP3   OH253602   3.471   2.609  11.339 -0.0360 -0.0386  0.1749
10704TIP3    H153603   3.427   2.607  11.254  0.0028  1.0953  0.1234
10704TIP3    H253604   3.427   2.679  11.387 -0.8759 -1.4207  1.5504
10705TIP3   OH253605   4.063   5.409  12.732  1.1643  0.3739  0.1053
10705TIP3    H153606   4.010   5.377  12.659 -2.9460  1.1103  2.4714
10705TIP3    H253607   4.081   5.500  12.710 -1.8274  1.2232  0.7306
10706TIP3   OH253608   3.723   5.224   4.486 -0.2790  0.3647  0.1578
10706TIP3    H153609   3.736   5.318   4.484 -0.6967  0.4186 -0.0055
10706TIP3    H253610   3.642   5.209   4.438  0.5001 -0.2041 -1.0375
10707TIP3   OH253611   5.750   0.674   4.819 -0.7101  0.2617  0.3112
10707TIP3    H153612   5.729   0.583   4.798  0.3632  0.3839 -1.5137
10707TIP3    H253613   5.750   0.719   4.734  0.4173  1.6085  0.9821
10708TIP3   OH253614   3.525   4.545   3.597 -0.2843 -0.2853  0.2210
10708TIP3    H153615   3.460   4.604   3.558 -1.2830 -0.4987  1.4734
10708TIP3    H253616   3.542   4.480   3.528  0.1379  0.9001 -0.8401
10709TIP3   OH253617   1.149   3.104  15.654  0.4832  0.1163  0.5557
10709TIP3    H153618   1.064   3.148  15.658 -0.2778 -1.0129 -1.8035
10709TIP3    H253619   1.205   3.165  15.606  0.7524  0.4074  1.2161
10710TIP3   OH253620   2.474   6.411  12.579  0.2368  0.1673  0.4073
10710TIP3    H153621   2.529   6.484  12.605 -0.6318  0.8741  0.3236
10710TIP3    H253622   2.447   6.370  12.661  0.2474  0.3076  0.4808
10711TIP3   OH253623   0.254   5.264  16.562 -0.1250  0.1274 -0.5530
10711TIP3    H153624   0.191   5.217  16.508 -0.6247 -0.7090  0.7075
10711TIP3    H253625   0.201   5.318  16.620  0.4430  2.7181 -2.2929
10712TIP3   OH253626   2.631   4.562   4.140  0.0862 -0.6623 -0.2884
10712TIP3    H153627   2.626   4.631   4.206 -4.8820  0.5903 -1.5137
10712TIP3    H253628   2.657   4.607   4.060  0.6165 -1.0164 -0.3168
10713TIP3   OH253629   2.444   2.681  12.933  0.0008  0.1389  0.1026
10713TIP3    H153630   2.349   2.677  12.918  0.2554 -2.0304 -1.4499
10713TIP3    H253631   2.467   2.773  12.920 -1.5506  0.3070 -1.9533
10714TIP3   OH253632   1.492   3.351  11.705  0.0333  0.1333 -0.0072
10714TIP3    H153633   1.490   3.310  11.619  1.1958 -0.2620  0.1462
10714TIP3    H253634   1.584   3.349  11.732 -0.4065 -0.4769  1.5988
10715TIP3   OH253635   0.879   4.483  17.075 -0.0243  0.2697 -0.3369
10715TIP3    H153636   0.886   4.515  16.985 -1.6995  0.9741 -0.2536
10715TIP3    H253637   0.823   4.406  17.068 -1.5411  1.2683  0.2598
10716TIP3   OH253638   2.657   6.021   4.746  0.4099  0.1214 -0.5960
10716TIP3    H153639   2.673   5.941   4.796 -2.5405 -0.0058  0.3394
10716TIP3    H253640   2.619   5.990   4.664  0.4864  0.4940 -0.7701
10717TIP3   OH253641   4.606   5.491  14.339  0.3350  0.3618 -0.5226
10717TIP3    H153642   4.535   5.427  14.336  1.5010 -1.0275 -0.1059
10717TIP3    H253643   4.667   5.461  14.271  1.5143  0.2251  0.5474
10718TIP3   OH253644   6.642   0.664  12.878  0.1119  0.3747 -0.7411
10718TIP3    H153645   6.581   0.686  12.807 -0.3157  1.6139 -0.0387
10718TIP3    H253646   6.728   0.666  12.838 -0.0210  2.1629 -1.0407
10719TIP3   OH253647   1.472   5.512  14.645  0.3539  0.0185  0.0707
10719TIP3    H153648   1.544   5.575  14.647  0.4932 -0.1170 -0.4879
10719TIP3    H253649   1.393   5.566  14.633  0.4363  0.1126 -0.0475
10720TIP3   OH253650   3.016   6.746   0.429 -0.0044 -0.3112 -0.2221
10720TIP3    H153651   3.080   6.677   0.410  0.0615 -0.3001 -0.0446
10720TIP3    H253652   3.067   6.817   0.467 -0.1688 -0.4479  0.2699
10721TIP3   OH253653   1.269   0.960  12.219 -0.0591 -0.6833 -0.1260
10721TIP3    H153654   1.350   0.987  12.177  0.5837 -3.5381 -0.8645
10721TIP3    H253655   1.202   0.968  12.151  0.1744 -1.1946 -0.4179
10722TIP3   OH253656   3.201   0.943   5.039  0.5500  0.2036  0.0867
10722TIP3    H153657   3.219   1.035   5.021 -0.8540  0.9796  2.1270
10722TIP3    H253658   3.130   0.920   4.979  1.7518  0.0372 -1.3023
10723TIP3   OH253659   0.647   5.298  16.252  0.1045 -0.4031  0.3409
10723TIP3    H153660   0.724   5.355  16.259  0.4628 -0.8355  0.0303
10723TIP3    H253661   0.594   5.320  16.328 -1.0976  2.2647 -1.1283
10724TIP3   OH253662   4.435   2.883  13.810 -0.6929  0.2043 -0.0096
10724TIP3    H153663   4.402   2.920  13.728  2.9478  2.7106 -0.5920
10724TIP3    H253664   4.389   2.933  13.878 -2.5937 -0.8205 -0.4493
10725TIP3   OH253665   5.470   3.658  11.821 -0.7938 -0.3719 -0.4842
10725TIP3    H153666   5.507   3.672  11.734  0.3623  0.9033  0.1709
10725TIP3    H253667   5.376   3.667  11.808 -0.7421 -1.3705 -1.7915
10726TIP3   OH253668   3.878   3.626   0.635  0.3140  0.2753 -0.1642
10726TIP3    H153669   3.964   3.586   0.644  0.6689  1.2487  1.1819
10726TIP3    H253670   3.830   3.597   0.713 -0.8015 -0.7191 -1.1729
10727TIP3   OH253671   6.287   3.248  15.337  0.2225  0.1735 -0.6000
10727TIP3    H153672   6.345   3.226  15.410 -0.4913 -0.9418 -0.3393
10727TIP3    H253673   6.295   3.342  15.328  0.7007  0.2726  0.6154
10728TIP3   OH253674   5.071   6.655  16.381  0.0972 -0.3823 -0.2093
10728TIP3    H153675   5.028   6.738  16.401 -0.9722 -1.1009  0.5690
10728TIP3    H253676   5.121   6.672  16.302 -2.5111  0.2215 -1.8390
10729TIP3   OH253677   6.227   1.553  13.999 -0.4998 -0.1877 -0.4027
10729TIP3    H153678   6.204   1.640  14.032 -0.0699 -0.2766  0.1421
10729TIP3    H253679   6.144   1.505  14.002 -0.1119 -0.8653  2.6719
10730TIP3   OH253680   1.907   6.783   5.901  0.0493  0.2573 -0.0158
10730TIP3    H153681   1.969   6.809   5.833 -0.6033  2.4915  0.1672
10730TIP3    H253682   1.898   6.688   5.890  1.0416  0.3467 -2.1111
10731TIP3   OH253683   4.349   5.483   4.404  0.5417 -0.0738  0.7573
10731TIP3    H153684   4.293   5.551   4.441 -0.9483  0.8302 -2.7064
10731TIP3    H253685   4.437   5.521   4.405  0.2854  0.5239  1.8399
10732TIP3   OH253686   4.603   2.505  12.199  0.4722 -0.0906  0.2127
10732TIP3    H153687   4.552   2.547  12.131  0.0480 -0.9786 -0.0356
10732TIP3    H253688   4.573   2.414  12.199 -0.0111  0.0204  2.0169
10733TIP3   OH253689   0.728   5.014  12.680  0.1984  0.3724  0.4955
10733TIP3    H153690   0.672   4.997  12.756  2.0871 -1.6944  1.5398
10733TIP3    H253691   0.804   4.957  12.693  0.8974  0.4084 -2.6583
10734TIP3   OH253692   3.824   1.198  12.943  0.6673  0.1836  0.8064
10734TIP3    H153693   3.752   1.173  12.884  1.7438  0.8383 -0.8525
10734TIP3    H253694   3.882   1.251  12.889  1.7477  0.7758  2.4750
10735TIP3   OH253695   6.716   6.512  11.795  0.3407 -0.4734 -0.6429
10735TIP3    H153696   6.749   6.475  11.713 -0.7718 -0.5627 -1.0644
10735TIP3    H253697   6.653   6.448  11.827 -0.0161  0.0592 -0.2659
10736TIP3   OH253698   3.562   6.630   5.505 -0.3826 -0.7084 -0.0998
10736TIP3    H153699   3.523   6.707   5.547 -0.2681 -0.3662 -0.6024
10736TIP3    H253700   3.562   6.562   5.573  0.4851  0.0414  0.6789
10737TIP3   OH253701   3.244   2.474  12.178  0.7589  0.0397 -0.1905
10737TIP3    H153702   3.270   2.464  12.270  2.3980 -1.8489 -0.7868
10737TIP3    H253703   3.152   2.448  12.176  1.0588 -1.2050  0.7453
10738TIP3   OH253704   1.627   4.914   2.986 -0.0033 -0.3189 -0.2189
10738TIP3    H153705   1.629   4.820   2.967  2.1329 -0.1221 -1.2639
10738TIP3    H253706   1.669   4.922   3.072 -0.4017 -0.3343 -0.0214
10739TIP3   OH253707   4.847   1.432  15.589  0.0104  0.3003 -0.4095
10739TIP3    H153708   4.817   1.360  15.644  0.4940  1.1311  1.0070
10739TIP3    H253709   4.847   1.508  15.647  0.0045  1.3481 -1.7212
10740TIP3   OH253710   5.922   1.549   4.419 -0.0217 -0.1138  0.0132
10740TIP3    H153711   5.904   1.535   4.326  1.5219  1.3596 -0.5599
10740TIP3    H253712   5.942   1.642   4.425  0.6662 -0.3446  1.7010
10741TIP3   OH253713   5.381   1.448  15.146  0.5727 -0.2786  0.3866
10741TIP3    H153714   5.447   1.384  15.171  2.6244  1.3714 -0.5131
10741TIP3    H253715   5.393   1.460  15.051  0.0795  1.2527  0.4893
10742TIP3   OH253716   0.386   0.952   5.168 -0.5986 -0.3867 -0.1811
10742TIP3    H153717   0.463   1.002   5.142 -1.5681  1.0071 -0.4424
10742TIP3    H253718   0.348   0.920   5.085 -1.1157  0.1715 -0.1646
10743TIP3   OH253719   1.590   4.182   1.936  0.6857  0.0866 -0.3156
10743TIP3    H153720   1.582   4.087   1.932 -0.6638  0.1791 -0.2183
10743TIP3    H253721   1.543   4.214   1.859 -0.0859  0.7157  0.3947
10744TIP3   OH253722   1.846   2.741   0.234 -0.2249 -0.2723  0.0059
10744TIP3    H153723   1.809   2.660   0.269 -0.8213  0.5713  1.4432
10744TIP3    H253724   1.875   2.719   0.146 -3.0807 -1.3146 -0.7772
10745TIP3   OH253725   1.365   6.211   0.945 -0.3695 -0.6856  0.5664
10745TIP3    H153726   1.302   6.277   0.972 -0.4352 -0.9355  1.0300
10745TIP3    H253727   1.318   6.158   0.881  0.2491  0.7987 -1.1881
10746TIP3   OH253728   0.578   5.282  10.528  0.2632  0.1603  0.1996
10746TIP3    H153729   0.542   5.330  10.453 -0.0345  0.7989  0.7369
10746TIP3    H253730   0.527   5.201  10.530  1.1426 -0.4668 -1.0465
10747TIP3   OH253731   3.888   0.967   1.660 -0.2800  0.2872  0.2180
10747TIP3    H153732   3.850   0.988   1.745 -1.7184 -0.4793 -0.2028
10747TIP3    H253733   3.952   0.898   1.678 -0.2387  0.4565  0.7344
10748TIP3   OH253734   3.585   1.316  15.082 -0.4401 -0.1160  0.1094
10748TIP3    H153735   3.604   1.297  14.990 -0.0519 -1.5098  0.4525
10748TIP3    H253736   3.491   1.302  15.091 -0.9725  2.3961 -0.5733
10749TIP3   OH253737   0.469   0.709  13.049 -0.0453 -0.2512 -0.2978
10749TIP3    H153738   0.381   0.672  13.043  0.3739 -1.5651  0.8381
10749TIP3    H253739   0.511   0.658  13.119  1.0336  1.5604  0.4481
10750TIP3   OH253740   3.195   2.258   0.865  0.3438 -0.2807  0.9663
10750TIP3    H153741   3.101   2.257   0.884  0.5151  0.7502  2.0727
10750TIP3    H253742   3.204   2.213   0.782 -1.1523 -0.2793  0.7767
10751TIP3   OH253743   1.900   6.431  12.947 -0.3910 -0.7859 -0.0607
10751TIP3    H153744   1.831   6.498  12.946 -0.3552 -0.6937 -2.3283
10751TIP3    H253745   1.861   6.358  12.995 -2.1883 -0.8122 -1.4314
10752TIP3   OH253746   2.998   2.857   0.998 -0.3895 -0.3229  0.1014
10752TIP3    H153747   2.921   2.905   1.028 -0.2218  0.2422 -0.3480
10752TIP3    H253748   2.989   2.853   0.903  0.8167  0.9869 -0.0974
10753TIP3   OH253749   2.946   1.854  10.542 -0.0042 -0.4544  0.2870
10753TIP3    H153750   3.003   1.795  10.592 -0.7978 -2.3474 -0.9041
10753TIP3    H253751   2.987   1.860  10.456 -1.2849 -1.4700 -0.4412
10754TIP3   OH253752   5.045   2.465  15.916 -0.1185  0.3137 -0.1349
10754TIP3    H153753   4.988   2.405  15.964  1.7433 -0.6788  0.9677
10754TIP3    H253754   5.054   2.425  15.829 -1.5597  0.8148 -0.5302
10755TIP3   OH253755   1.963   1.298  11.361 -0.5629  0.3325  0.7468
10755TIP3    H153756   1.979   1.206  11.341  0.3721  0.7297 -0.4716
10755TIP3    H253757   1.886   1.321  11.308 -0.9531  0.1911  1.2490
10756TIP3   OH253758   1.387   0.341  12.441 -0.5117  0.2525  0.2702
10756TIP3    H153759   1.470   0.353  12.488  0.2325 -1.4913 -0.4777
10756TIP3    H253760   1.326   0.401  12.483  0.7143  0.4152  1.9263
10757TIP3   OH253761   3.265   5.187  12.015 -0.1665 -0.9223 -0.3727
10757TIP3    H153762   3.312   5.180  11.932 -0.1345 -1.5528 -0.3052
10757TIP3    H253763   3.325   5.237  12.072 -1.9154  3.5324 -1.9727
10758TIP3   OH253764   3.592   2.991   0.917  0.1390  0.0126  0.0866
10758TIP3    H153765   3.637   2.907   0.910  1.5901  0.7945 -0.5739
10758TIP3    H253766   3.549   3.003   0.832 -1.0669 -0.5853  0.6017
10759TIP3   OH253767   0.825   5.898   2.343 -0.2536 -0.2550 -0.7263
10759TIP3    H153768   0.892   5.948   2.297 -0.4088 -0.1345 -0.8244
10759TIP3    H253769   0.864   5.877   2.428 -0.0207 -0.3535 -0.8563
10760TIP3   OH253770   1.436   3.453   1.700  0.4402  0.1313 -0.4793
10760TIP3    H153771   1.508   3.505   1.663 -1.1147  2.1128 -0.9138
10760TIP3    H253772   1.475   3.403   1.771  1.9641  2.2568  0.2418
10761TIP3   OH253773   3.446   5.812  15.705 -0.1700 -0.1433  1.0527
10761TIP3    H153774   3.370   5.837  15.651 -0.1184 -0.5243  0.7952
10761TIP3    H253775   3.412   5.809  15.794  0.3843  3.2812  1.5041
10762TIP3   OH253776   0.888   3.771  10.507 -0.6629  0.1065  0.2665
10762TIP3    H153777   0.954   3.707  10.480  0.2770  1.7398 -1.6089
10762TIP3    H253778   0.831   3.779  10.431 -2.5915 -0.6422  1.5624
10763TIP3   OH253779   3.714   5.882   0.096  0.9572  0.1835  0.4912
10763TIP3    H153780   3.704   5.942   0.169 -0.9057  0.9788 -0.3542
10763TIP3    H253781   3.645   5.817   0.108  1.4034 -0.3850  0.0752
10764TIP3   OH253782   1.544   0.782  16.977  0.3048  0.2031  0.1399
10764TIP3    H153783   1.501   0.715  17.031  1.1351  0.4862  1.1785
10764TIP3    H253784   1.500   0.775  16.892  0.1144 -1.4106  0.3276
10765TIP3   OH253785   5.135   5.548   3.543 -0.3093 -0.4836 -0.1441
10765TIP3    H153786   5.192   5.616   3.580 -0.1646 -0.5035 -0.3318
10765TIP3    H253787   5.181   5.467   3.561  0.2670 -0.4238 -1.2795
10766TIP3   OH253788   6.086   4.485   1.534  0.0267  0.0619 -0.5205
10766TIP3    H153789   6.141   4.506   1.458 -0.7485  1.4021 -0.7586
10766TIP3    H253790   6.084   4.390   1.537  1.0517 -0.0115 -1.4644
10767TIP3   OH253791   0.044   4.831   1.938 -0.0330 -0.3789 -0.2292
10767TIP3    H153792  -0.049   4.807   1.933 -0.1675  0.2256 -0.7053
10767TIP3    H253793   0.089   4.749   1.957 -0.5101 -0.9712 -1.5705
10768TIP3   OH253794   5.539   1.932  15.393 -0.3947 -0.1382  0.2142
10768TIP3    H153795   5.634   1.923  15.391 -0.4225 -0.3933 -0.5117
10768TIP3    H253796   5.506   1.844  15.371 -0.7910 -0.0227  0.3334
10769TIP3   OH253797   4.042   3.798  14.408 -0.3790  0.2275 -0.5947
10769TIP3    H153798   4.074   3.880  14.444 -1.5673  0.1522  0.7198
10769TIP3    H253799   4.095   3.731  14.450 -0.7368  0.2243 -0.1420
10770TIP3   OH253800   0.115   1.148   0.940 -0.3526 -0.3450 -0.5026
10770TIP3    H153801   0.109   1.088   1.014 -4.9967  0.1565 -0.1216
10770TIP3    H253802   0.162   1.224   0.974  0.5651 -1.4524  0.8087
10771TIP3   OH253803   0.288   4.917   4.908 -0.1750 -0.2304  0.0190
10771TIP3    H153804   0.378   4.913   4.941 -1.0929 -2.6246  2.6673
10771TIP3    H253805   0.242   4.970   4.973 -0.9914 -0.4915 -0.3462
10772TIP3   OH253806   1.985   0.438  11.760  0.1301  0.5039 -0.2379
10772TIP3    H153807   1.897   0.441  11.798  0.0831 -0.3652 -0.2585
10772TIP3    H253808   1.975   0.474  11.672 -0.1642  0.6021 -0.1650
10773TIP3   OH253809   0.271   0.521  15.869  0.3765 -0.2112 -0.2204
10773TIP3    H153810   0.353   0.472  15.877  1.3703  1.1106 -1.5385
10773TIP3    H253811   0.228   0.511  15.953  2.3910 -0.1185  0.8802
10774TIP3   OH253812   2.072   0.908  16.495 -0.4555  0.6646 -0.0685
10774TIP3    H153813   2.116   0.955  16.424  3.0437 -0.7593  0.9437
10774TIP3    H253814   2.053   0.976  16.560  0.1084  1.4051 -0.6560
10775TIP3   OH253815   6.225   1.437   1.684  0.1079 -0.5429  0.0273
10775TIP3    H153816   6.195   1.482   1.605 -0.0514 -0.9125 -0.1250
10775TIP3    H253817   6.233   1.506   1.749  0.4721 -0.1945 -0.3771
10776TIP3   OH253818   6.315   1.513  16.732 -0.3150 -0.3386 -0.2852
10776TIP3    H153819   6.397   1.555  16.759 -0.1294 -1.5322  1.1838
10776TIP3    H253820   6.325   1.500  16.637  1.2154 -0.4650 -0.1381
10777TIP3   OH253821   4.160   5.918  15.309 -0.5296 -0.0782 -0.0418
10777TIP3    H153822   4.104   5.995  15.301 -0.7440 -0.1642  0.6062
10777TIP3    H253823   4.135   5.878  15.392  0.1285 -0.4120  0.0037
10778TIP3   OH253824   6.205   2.298  12.566 -0.5552  0.1003 -0.0662
10778TIP3    H153825   6.216   2.286  12.471 -0.0527 -0.7459  0.0870
10778TIP3    H253826   6.257   2.228  12.605 -0.3052  0.7730  0.8553
10779TIP3   OH253827   3.689   5.974   4.791 -0.2807  0.5683  0.1714
10779TIP3    H153828   3.674   5.988   4.698 -0.0672 -0.2392  0.0081
10779TIP3    H253829   3.603   5.947   4.825 -0.5719  1.7259  0.3902
10780TIP3   OH253830   1.842   5.662   3.828  0.3708  0.2370  0.7400
10780TIP3    H153831   1.787   5.587   3.847 -2.5120  2.0612  0.2455
10780TIP3    H253832   1.817   5.728   3.893 -0.3750  2.1669 -1.3493
10781TIP3   OH253833   4.526   1.391  14.108  0.5285 -0.6366 -0.2494
10781TIP3    H153834   4.531   1.451  14.183 -1.1847 -0.7881  0.0332
10781TIP3    H253835   4.497   1.445  14.035 -1.3613 -1.1142  0.0851
10782TIP3   OH253836   0.466   5.350   0.477 -0.2621 -0.0347  0.1177
10782TIP3    H153837   0.515   5.424   0.512 -0.5472  1.5504 -2.5593
10782TIP3    H253838   0.531   5.281   0.465  0.1808  0.0528  1.8014
10783TIP3   OH253839   4.760   2.244  11.431  0.0448 -0.2035 -0.1332
10783TIP3    H153840   4.793   2.178  11.370  1.6644  0.9191 -0.5388
10783TIP3    H253841   4.822   2.241  11.504 -0.5266  0.0927  0.3714
10784TIP3   OH253842   5.770   4.932  12.064  0.2131  0.2185  0.1700
10784TIP3    H153843   5.808   4.949  11.978 -2.1671  3.1513 -0.4866
10784TIP3    H253844   5.680   4.906  12.046 -0.1431  0.2369  1.7437
10785TIP3   OH253845   3.561   6.311   3.551 -0.5711  0.2605 -0.0553
10785TIP3    H153846   3.571   6.233   3.496 -0.2609 -0.0458  0.4261
10785TIP3    H253847   3.648   6.327   3.586 -1.2395 -1.1497  2.4801
10786TIP3   OH253848   1.233   5.367  15.815  0.0906  0.3030 -0.1555
10786TIP3    H153849   1.254   5.328  15.899 -2.0399 -1.3518 -0.2857
10786TIP3    H253850   1.157   5.317  15.784 -2.1685  3.8361 -0.9098
10787TIP3   OH253851   2.212   4.255  16.562  0.1023 -0.4087  0.6943
10787TIP3    H153852   2.222   4.302  16.645 -0.4296 -1.3597  1.3207
10787TIP3    H253853   2.204   4.163  16.588 -1.8095 -0.5598 -0.2848
10788TIP3   OH253854   4.547   0.463  10.172  0.2852 -0.0970 -0.2955
10788TIP3    H153855   4.640   0.457  10.196 -0.0760 -0.3733  1.1771
10788TIP3    H253856   4.522   0.373  10.152 -0.1568 -0.4099  1.4632
10789TIP3   OH253857   0.705   1.558   3.868 -0.4449 -0.7910 -0.3888
10789TIP3    H153858   0.745   1.628   3.817 -0.6561 -1.1653 -1.0834
10789TIP3    H253859   0.778   1.514   3.912 -0.0405 -1.6216 -1.8363
10790TIP3   OH253860   0.769   5.445  15.404 -0.6026 -0.5065 -0.5874
10790TIP3    H153861   0.808   5.531  15.424  0.1794 -1.6106  3.5545
10790TIP3    H253862   0.842   5.391  15.376 -0.6287 -0.4907 -0.6860
10791TIP3   OH253863   6.681   3.197  15.083  0.2423 -0.1263  0.6058
10791TIP3    H153864   6.656   3.233  15.168 -0.9388 -2.2268  1.2171
10791TIP3    H253865   6.617   3.128  15.067  0.2211  0.4535 -2.1923
10792TIP3   OH253866   1.354   2.950   4.530 -0.3281 -0.7692 -0.2809
10792TIP3    H153867   1.338   2.862   4.566  0.5895 -0.2321  1.5614
10792TIP3    H253868   1.331   3.010   4.601 -0.9848  0.5101 -1.5271
10793TIP3   OH253869   2.064   5.553   1.948  0.1999 -0.5863  0.5258
10793TIP3    H153870   2.003   5.559   2.021 -0.1937 -1.4637  0.2837
10793TIP3    H253871   2.044   5.469   1.907  1.1383 -0.5921  0.0529
10794TIP3   OH253872   4.843   0.122  14.336 -0.4329  0.3983  0.4669
10794TIP3    H153873   4.778   0.162  14.278  0.4640 -2.6103 -2.9780
10794TIP3    H253874   4.925   0.166  14.314  0.0975 -1.4385 -1.4700
10795TIP3   OH253875   6.163   6.743  12.959 -0.1510  0.0166 -0.0494
10795TIP3    H153876   6.189   6.752  12.867 -1.2222 -2.3557 -0.6543
10795TIP3    H253877   6.235   6.694  12.999 -1.1202 -1.7665 -0.4253
10796TIP3   OH253878   1.435   5.898  16.458  0.5421  0.2163 -0.4650
10796TIP3    H153879   1.407   5.839  16.387 -0.2149 -0.0006  0.0016
10796TIP3    H253880   1.508   5.852  16.499 -1.5940 -1.6975  1.5089
10797TIP3   OH253881   1.911   1.253   5.023 -0.2754 -0.1258  0.0649
10797TIP3    H153882   1.975   1.188   5.050  0.3018 -0.2083 -1.4311
10797TIP3    H253883   1.851   1.205   4.965  0.6945  0.8204 -1.8124
10798TIP3   OH253884   4.866   3.959  13.886  0.1511  0.8396 -0.5985
10798TIP3    H153885   4.873   3.886  13.825  0.6700 -0.2917  0.7452
10798TIP3    H253886   4.782   3.947  13.929  1.2171 -0.4202  1.3024
10799TIP3   OH253887   0.286   4.632  15.656  0.6817 -0.3245  0.0542
10799TIP3    H153888   0.193   4.614  15.640  0.8720 -1.9124  0.5724
10799TIP3    H253889   0.318   4.556  15.704  1.8638  0.9597  1.4369
10800TIP3   OH253890   0.250   3.164  13.135  0.0225 -1.0327 -0.0938
10800TIP3    H153891   0.311   3.174  13.063 -0.2882 -1.5949 -0.4421
10800TIP3    H253892   0.165   3.150  13.093 -0.3150 -0.4785  0.3826
10801TIP3   OH253893   2.148   0.092  13.200  0.2613 -0.2948  0.0088
10801TIP3    H153894   2.133   0.020  13.139 -1.7160 -0.0802  0.1707
10801TIP3    H253895   2.071   0.149  13.190  0.7307  0.6626  1.4276
10802TIP3   OH253896   3.484   3.627   1.223  0.2664  0.8179  0.2045
10802TIP3    H153897   3.535   3.599   1.299  1.2972 -1.2106 -1.1357
10802TIP3    H253898   3.395   3.600   1.242  1.0751 -3.0880 -0.6724
10803TIP3   OH253899   2.898   4.245  15.965  0.1376  0.2057  0.1490
10803TIP3    H153900   2.921   4.313  15.901  0.8070 -0.4927 -0.3888
10803TIP3    H253901   2.856   4.292  16.036 -1.8202  0.8722 -1.3617
10804TIP3   OH253902   6.201   2.900  16.727 -0.0011 -0.1770  0.2987
10804TIP3    H153903   6.141   2.971  16.751  0.4581  0.2293  0.2555
10804TIP3    H253904   6.233   2.866  16.811 -0.9202 -0.9570  0.3564
10805TIP3   OH253905   6.513   1.716   5.819 -0.1390  0.2535  0.0527
10805TIP3    H153906   6.521   1.765   5.737  0.5832 -0.3820 -0.2650
10805TIP3    H253907   6.598   1.726   5.862 -0.3851  0.2571  0.5517
10806TIP3   OH253908   5.141   1.377  13.814  0.1036 -0.4528 -0.3621
10806TIP3    H153909   5.067   1.393  13.756 -0.8943 -1.4575  0.5712
10806TIP3    H253910   5.170   1.465  13.841  1.1374  0.0948 -2.9232
10807TIP3   OH253911   3.836   0.088  11.620  0.2391  0.8787  0.2144
10807TIP3    H153912   3.779   0.122  11.689 -1.0175  0.8051 -0.7494
10807TIP3    H253913   3.924   0.090  11.658 -0.4632  0.4368  1.9625
10808TIP3   OH253914   2.768   0.569   2.352  0.3043 -0.1945  0.9151
10808TIP3    H153915   2.736   0.576   2.263 -0.4411 -0.3186  1.1655
10808TIP3    H253916   2.796   0.658   2.375  0.0702 -0.0680  0.7157
10809TIP3   OH253917   1.617   0.891  14.492  0.4935  0.1646 -0.2239
10809TIP3    H153918   1.618   0.799  14.465  0.8918  0.4054 -1.0883
10809TIP3    H253919   1.678   0.894  14.566 -2.5803 -1.0008  2.6231
10810TIP3   OH253920   6.586   5.989  11.998 -1.0029 -0.4276  0.3047
10810TIP3    H153921   6.552   6.051  12.062  0.6912 -0.2271  1.0425
10810TIP3    H253922   6.668   5.958  12.035  0.8671  0.8768 -2.4257
10811TIP3   OH253923   4.318   2.253   5.931  0.5199 -0.5536 -0.1192
10811TIP3    H153924   4.320   2.271   6.025  0.2585 -0.2911 -0.1622
10811TIP3    H253925   4.326   2.158   5.924 -0.0304 -0.6229  0.1876
10812TIP3   OH253926   6.292   3.555   1.635 -0.0087 -0.3504 -0.7442
10812TIP3    H153927   6.256   3.641   1.612 -2.7291 -1.3939 -0.7173
10812TIP3    H253928   6.345   3.531   1.559 -1.1338  0.3467 -1.7865
10813TIP3   OH253929   4.803   1.455  14.035  0.0521  0.0634  0.1890
10813TIP3    H153930   4.846   1.427  14.116 -0.5949  0.8044  0.8177
10813TIP3    H253931   4.714   1.421  14.043  0.6117 -1.9351 -1.3497
10814TIP3   OH253932   0.036   4.857   5.827  0.3053 -0.1598 -0.3783
10814TIP3    H153933   0.099   4.922   5.796  1.2095 -0.8360 -0.0008
10814TIP3    H253934   0.086   4.802   5.887 -0.4026 -1.2984 -0.8051
10815TIP3   OH253935   2.556   4.795   6.037  0.7374 -0.2556  0.6376
10815TIP3    H153936   2.532   4.827   6.124  1.1661  1.6007  0.1028
10815TIP3    H253937   2.576   4.702   6.051 -3.6134 -1.2547  1.6885
10816TIP3   OH253938   6.279   2.568  16.916  0.1645  0.0322  0.4663
10816TIP3    H153939   6.266   2.520  16.834  0.4272  1.2075 -0.2863
10816TIP3    H253940   6.193   2.570  16.958 -0.1735  0.2019 -0.2273
10817TIP3   OH253941   4.895   4.946   0.844 -0.4061  0.1322  0.5802
10817TIP3    H153942   4.875   4.964   0.935 -1.4353 -0.6647  0.5297
10817TIP3    H253943   4.809   4.932   0.802  0.1281 -1.5974 -0.0381
10818TIP3   OH253944   6.454   6.821   0.873 -0.4109  0.3871  0.3041
10818TIP3    H153945   6.530   6.764   0.872 -1.0562 -0.4901  0.6691
10818TIP3    H253946   6.419   6.816   0.784 -0.5544  0.1004  0.3778
10819TIP3   OH253947   4.658   1.462   5.831 -0.0953 -0.0141  0.1970
10819TIP3    H153948   4.693   1.534   5.779 -1.6992  0.8473  0.2499
10819TIP3    H253949   4.695   1.383   5.791  0.0854  0.7203 -1.1269
10820TIP3   OH253950   5.517   3.510  12.709  0.0389  0.0130  0.4763
10820TIP3    H153951   5.424   3.488  12.716 -0.5565  1.2337 -2.2412
10820TIP3    H253952   5.535   3.560  12.788 -1.4805 -0.6227  1.2764
10821TIP3   OH253953   2.729   4.582   4.558  0.2291 -0.2191  0.0069
10821TIP3    H153954   2.706   4.603   4.467 -0.5988 -0.1023  0.2354
10821TIP3    H253955   2.814   4.623   4.571 -0.4305  1.2868 -0.2015
10822TIP3   OH253956   2.790   2.280  15.178  0.2387  0.0902 -0.0469
10822TIP3    H153957   2.710   2.231  15.198  0.6549 -0.5079  0.1517
10822TIP3    H253958   2.804   2.267  15.084  1.2947 -1.6121  0.3125
10823TIP3   OH253959   6.772   5.992  11.375 -0.0741 -0.4773 -0.0579
10823TIP3    H153960   6.703   6.057  11.389  0.4882  0.1068  0.0598
10823TIP3    H253961   6.754   5.956  11.289 -0.2572  0.0128 -0.2271
10824TIP3   OH253962   2.814   2.032  11.944 -0.6407 -0.3823 -0.3195
10824TIP3    H153963   2.818   1.998  11.855 -0.5770  0.6861 -0.7306
10824TIP3    H253964   2.901   2.017  11.980 -0.7143 -0.9633 -0.3717
10825TIP3   OH253965   5.248   4.919  14.660  0.8472  0.2449 -0.0314
10825TIP3    H153966   5.331   4.917  14.708  1.1905 -2.0360 -0.6067
10825TIP3    H253967   5.274   4.927  14.568  0.4784 -0.8329 -0.2437
10826TIP3   OH253968   4.759   2.816  14.107  0.0481  0.1432 -0.0413
10826TIP3    H153969   4.814   2.739  14.124 -1.3833 -0.8396  0.2652
10826TIP3    H253970   4.702   2.822  14.183 -0.7527  0.7254 -0.6772
10827TIP3   OH253971   0.356   1.410  13.205  0.1050 -0.8365 -0.7467
10827TIP3    H153972   0.408   1.482  13.241 -2.5944  0.8205  0.1756
10827TIP3    H253973   0.385   1.333  13.254  0.1816  0.4321  1.3544
10828TIP3   OH253974   0.842   5.003   5.493  0.3591  0.0329  0.2695
10828TIP3    H153975   0.872   4.917   5.465  2.0309  0.6364  0.0747
10828TIP3    H253976   0.888   5.018   5.576 -1.6607 -0.1832  1.4688
10829TIP3   OH253977   4.245   6.307  15.021 -0.9667 -0.4193 -0.1465
10829TIP3    H153978   4.159   6.277  14.993 -0.0971 -1.0153 -2.4416
10829TIP3    H253979   4.231   6.344  15.108 -3.7013  0.3469 -0.8150
10830TIP3   OH253980   1.469   4.346  13.843  0.0031  0.1469 -0.1218
10830TIP3    H153981   1.410   4.339  13.918 -0.0676  0.5346 -0.1428
10830TIP3    H253982   1.436   4.281  13.781 -0.9988  1.0490 -0.5435
10831TIP3   OH253983   0.123   0.829   1.595  0.2133  0.5794 -0.1277
10831TIP3    H153984   0.130   0.757   1.532  1.5889  0.1612  0.4604
10831TIP3    H253985   0.211   0.836   1.632 -0.3121  1.5185  0.9774
10832TIP3   OH253986   3.460   4.339   2.432 -0.0780  0.4511 -0.0243
10832TIP3    H153987   3.495   4.271   2.374 -0.7875  1.8075 -2.1540
10832TIP3    H253988   3.537   4.389   2.460  0.1533  0.6067 -0.9188
10833TIP3   OH253989   4.767   0.982  12.339  0.2578 -0.7167  0.4704
10833TIP3    H153990   4.711   1.053  12.370  2.3247  1.0040  0.5025
10833TIP3    H253991   4.752   0.978  12.244 -0.4025 -0.7587  0.5731
10834TIP3   OH253992   4.883   6.212   1.866 -0.2829  0.0123  0.0273
10834TIP3    H153993   4.827   6.288   1.851  1.1355  0.9137 -1.0839
10834TIP3    H253994   4.910   6.219   1.958 -0.1565  0.8734 -0.0696
10835TIP3   OH253995   6.278   6.124   1.212  0.2139 -0.2824 -0.0071
10835TIP3    H153996   6.267   6.198   1.152 -0.8546 -0.0422  0.4515
10835TIP3    H253997   6.350   6.149   1.268  0.1214  0.2400 -0.1153
10836TIP3   OH253998   2.981   3.097  14.364  0.3207  0.3301  0.3045
10836TIP3    H153999   2.904   3.145  14.333 -0.5985 -0.7651  0.8358
10836TIP3    H254000   3.024   3.068  14.284 -0.2223  0.3341  0.0047
10837TIP3   OH254001   4.086   6.113   5.190  0.0755 -0.6129  0.5633
10837TIP3    H154002   4.043   6.165   5.257  1.6090 -1.5531  2.3899
10837TIP3    H254003   4.145   6.174   5.145 -0.0209 -0.2366  0.9503
10838TIP3   OH254004   5.244   5.705  11.366 -0.0007 -0.0088 -0.2389
10838TIP3    H154005   5.177   5.773  11.360 -0.1108  0.0561  1.2692
10838TIP3    H254006   5.226   5.661  11.450  0.0461 -1.9206 -1.1729
10839TIP3   OH254007   5.664   0.996   4.853  0.3992 -0.2855 -0.2125
10839TIP3    H154008   5.733   1.014   4.916  1.9934 -2.2699 -1.2740
10839TIP3    H254009   5.632   0.909   4.877 -0.9965  0.1493 -0.4115
10840TIP3   OH254010   2.510   5.364   3.687 -0.2084  0.3171 -0.0981
10840TIP3    H154011   2.530   5.362   3.780  0.0436  0.1732 -0.1536
10840TIP3    H254012   2.462   5.446   3.674  0.5665  0.7948  0.0042
10841TIP3   OH254013   0.272   6.013  14.192 -0.1219 -0.4790  0.5299
10841TIP3    H154014   0.326   5.945  14.232 -0.2473 -0.0142  1.5183
10841TIP3    H254015   0.261   6.079  14.260 -0.5628  0.2224 -0.1908
10842TIP3   OH254016   0.004   0.478  10.724 -0.6782 -0.2351 -0.1084
10842TIP3    H154017  -0.026   0.549  10.780 -1.5962  0.6036 -1.5829
10842TIP3    H254018   0.054   0.521  10.655 -0.1165 -1.1600 -0.3017
10843TIP3   OH254019   4.446   1.122  16.536  0.5044  0.0752  0.1978
10843TIP3    H154020   4.460   1.074  16.618 -1.9556  1.7214  1.7042
10843TIP3    H254021   4.453   1.214  16.561  0.1992  0.6088 -1.5715
10844TIP3   OH254022   3.732   3.796   5.050  0.5977  0.2126 -0.0961
10844TIP3    H154023   3.773   3.711   5.067  0.5161 -0.1661 -1.6342
10844TIP3    H254024   3.801   3.850   5.012 -0.2037 -0.3866 -2.5737
10845TIP3   OH254025   3.549   2.052  14.695  0.0897 -0.2203  0.1983
10845TIP3    H154026   3.465   2.085  14.727 -0.4100 -1.4903  0.2336
10845TIP3    H254027   3.614   2.106  14.739 -0.6886  0.5999  0.3776
10846TIP3   OH254028   6.245   5.944   7.011  1.2942  0.4161  0.1685
10846TIP3    H154029   6.252   5.952   6.916 -0.3142  1.3928  0.1029
10846TIP3    H254030   6.159   5.904   7.026  1.8474 -0.4436  1.1991
10847TIP3   OH254031   6.193   5.500   2.290  0.5232  0.6343 -0.1530
10847TIP3    H154032   6.106   5.533   2.266  0.0985 -0.0461  0.4100
10847TIP3    H254033   6.192   5.500   2.386  1.3123  1.0354 -0.1372
10848TIP3   OH254034   3.694   1.043  12.636  0.2569 -0.2900  0.3098
10848TIP3    H154035   3.790   1.042  12.635  0.2922  0.8950 -0.5148
10848TIP3    H254036   3.669   1.003  12.553  0.1127  0.9204 -0.2637
10849TIP3   OH254037   5.875   4.008   1.376 -0.1856  0.2850  0.5710
10849TIP3    H154038   5.860   3.918   1.347  0.5442 -0.1630  1.5073
10849TIP3    H254039   5.959   4.032   1.339 -1.3865  1.4355 -1.5614
10850TIP3   OH254040   3.058   4.538  17.018 -0.0118  0.5913  0.6625
10850TIP3    H154041   2.989   4.472  17.031 -2.0023  1.9717 -1.8303
10850TIP3    H254042   3.124   4.493  16.965 -0.6251  0.1372  0.2579
10851TIP3   OH254043   4.463   2.169  16.978  0.5111 -0.0101 -0.0482
10851TIP3    H154044   4.450   2.197  16.888  0.8559  0.7376  0.1235
10851TIP3    H254045   4.375   2.162  17.014  0.4194  1.4660  0.0698
10852TIP3   OH254046   0.886   4.175   4.029  0.9838 -0.4185  0.0208
10852TIP3    H154047   0.966   4.196   3.981  0.3722  0.6277 -0.5801
10852TIP3    H254048   0.894   4.222   4.112  1.2484 -0.7879  0.2061
10853TIP3   OH254049   1.912   2.169   6.692 -0.4202 -0.0144  0.3246
10853TIP3    H154050   1.931   2.104   6.624 -1.4295 -0.5737  0.5672
10853TIP3    H254051   1.829   2.209   6.666  0.5793  1.8178 -0.2764
10854TIP3   OH254052   0.911   1.840  16.832 -0.1126  0.3220 -0.1672
10854TIP3    H154053   0.923   1.791  16.751  0.1623  0.3759 -0.1608
10854TIP3    H254054   0.845   1.906  16.810 -2.5917 -1.7101  0.5342
10855TIP3   OH254055   3.298   1.235  15.496 -0.3506 -0.5086  0.2262
10855TIP3    H154056   3.369   1.200  15.549 -0.8054 -0.9450  0.5672
10855TIP3    H254057   3.275   1.318  15.537 -2.3775 -1.9606  2.3433
10856TIP3   OH254058   1.663   2.251   6.613 -0.0560  0.0947 -0.4001
10856TIP3    H154059   1.612   2.295   6.546 -1.0046  0.4767  0.5348
10856TIP3    H254060   1.603   2.242   6.687  1.5144  1.5419  1.1626
10857TIP3   OH254061   1.995   2.829  11.881  0.3473 -0.2894  0.2444
10857TIP3    H154062   1.963   2.918  11.896 -1.6062 -0.7719 -0.7577
10857TIP3    H254063   2.008   2.793  11.969  0.7277  0.8177  0.6599
10858TIP3   OH254064   3.622   2.131  12.306  0.1652 -0.2170  0.2539
10858TIP3    H154065   3.572   2.185  12.245  1.8819  0.7095 -0.3881
10858TIP3    H254066   3.628   2.183  12.386  2.0440  0.7621 -0.4507
10859TIP3   OH254067   1.084   3.027   3.635 -0.2687 -0.0247  0.3309
10859TIP3    H154068   1.177   3.008   3.643  0.7196  1.8362 -3.9952
10859TIP3    H254069   1.057   2.982   3.555 -2.4929  1.2946  0.2570
10860TIP3   OH254070   5.071   5.813   3.896  0.1892 -0.1443  0.3683
10860TIP3    H154071   5.059   5.889   3.838  1.1632  0.1172  0.4951
10860TIP3    H254072   4.984   5.798   3.933 -0.3322  0.0121 -0.7573
10861TIP3   OH254073   2.388   5.161  14.811 -0.1155 -0.3620  0.2601
10861TIP3    H154074   2.334   5.139  14.735  0.4367  0.6472 -0.4531
10861TIP3    H254075   2.334   5.221  14.863  0.8972  2.1840 -1.4084
10862TIP3   OH254076   1.362   4.293   3.947  0.0605 -0.3557 -0.3486
10862TIP3    H154077   1.304   4.365   3.921  1.4493  0.6653 -0.7441
10862TIP3    H254078   1.449   4.333   3.951  1.0214 -2.2160 -1.4532
10863TIP3   OH254079   0.270   1.828  14.527  0.5439 -0.0556 -0.7256
10863TIP3    H154080   0.330   1.842  14.601 -2.2768  1.3919  1.4745
10863TIP3    H254081   0.213   1.757  14.557  0.4994 -0.7503 -2.3766
10864TIP3   OH254082   6.566   5.264  14.954  0.7533 -0.2269 -0.2747
10864TIP3    H154083   6.490   5.232  15.003  0.5251  0.2930 -0.2795
10864TIP3    H254084   6.591   5.344  15.000  0.7911  0.0420 -0.7661
10865TIP3   OH254085   1.816   5.042   6.236 -0.0469  0.0425 -0.3631
10865TIP3    H154086   1.794   5.126   6.277  0.1547  0.3069 -0.7806
10865TIP3    H254087   1.907   5.054   6.206 -0.5934  0.3297 -2.0122
10866TIP3   OH254088   5.029   0.738  15.521  0.2728 -0.8230 -0.1308
10866TIP3    H154089   5.091   0.761  15.452 -0.9853 -0.2310 -1.0765
10866TIP3    H254090   4.986   0.659  15.489 -1.4598  0.3425 -0.8112
10867TIP3   OH254091   5.460   5.343   4.211  0.1163  0.4860  0.7180
10867TIP3    H154092   5.484   5.283   4.281 -0.2830 -0.3937  0.1262
10867TIP3    H254093   5.391   5.398   4.249 -0.7355 -0.5805  0.7593
10868TIP3   OH254094   3.556   2.444   5.365 -0.2484 -0.0979  0.2601
10868TIP3    H154095   3.637   2.477   5.404  0.0480 -1.3288  0.7449
10868TIP3    H254096   3.551   2.353   5.393 -1.1227 -0.4277 -0.8566
10869TIP3   OH254097   1.736   6.358  15.648  1.0590  0.3940 -0.5116
10869TIP3    H154098   1.764   6.285  15.593  0.5328 -2.0802  2.2562
10869TIP3    H254099   1.815   6.385  15.694  0.7051 -0.5964  0.7408
10870TIP3   OH254100   1.666   4.171  14.400  0.1372 -0.1469  0.4026
10870TIP3    H154101   1.607   4.097  14.384 -0.9790  0.6396  0.8006
10870TIP3    H254102   1.639   4.238  14.338  3.0852 -1.0270 -2.1326
10871TIP3   OH254103   2.676   1.734  14.117  0.3585 -0.0816  0.3728
10871TIP3    H154104   2.630   1.803  14.164 -1.1358 -1.8361  1.5813
10871TIP3    H254105   2.615   1.661  14.114  1.4914 -1.0448 -1.7923
10872TIP3   OH254106   2.748   3.069   5.548  0.7787 -0.0034 -0.1342
10872TIP3    H154107   2.742   3.039   5.457 -0.6994  0.4701 -0.2110
10872TIP3    H254108   2.662   3.106   5.567  2.2335  3.5370  0.1981
10873TIP3   OH254109   1.500   5.701   2.632  0.7746 -0.3191 -0.0069
10873TIP3    H154110   1.428   5.725   2.691 -0.4137  1.4283 -2.0145
10873TIP3    H254111   1.463   5.636   2.573  0.7418  0.6468 -1.1040
10874TIP3   OH254112   2.355   0.418   2.261  0.2105 -0.0051 -0.0464
10874TIP3    H154113   2.429   0.396   2.319  0.0194 -0.0381  0.1870
10874TIP3    H254114   2.278   0.409   2.317 -0.1396 -1.6776 -0.7501
10875TIP3   OH254115   0.093   3.666  15.000  0.0647  0.4470 -0.3845
10875TIP3    H154116   0.032   3.733  14.969 -0.8256 -0.4088 -0.5300
10875TIP3    H254117   0.156   3.656  14.929 -0.7423 -0.0024 -1.0592
10876TIP3   OH254118   1.172   0.347   3.971 -0.1203 -0.1379  0.4573
10876TIP3    H154119   1.102   0.329   4.035 -0.8965 -0.8721 -0.5732
10876TIP3    H254120   1.132   0.407   3.908  0.3232 -0.2053  0.1075
10877TIP3   OH254121   3.852   0.839  17.027  0.1609  0.2246  0.5136
10877TIP3    H154122   3.888   0.798  16.948  1.0415 -0.5857  1.3120
10877TIP3    H254123   3.906   0.806  17.098 -0.7186  0.8224  1.4874
10878TIP3   OH254124   3.971   4.508  11.985  0.2065 -0.0987 -0.1189
10878TIP3    H154125   3.939   4.439  12.044  0.5498  0.3449  0.5910
10878TIP3    H254126   3.937   4.483  11.899  1.0841 -1.6590 -0.0519
10879TIP3   OH254127   1.799   6.402  11.923  0.5545  0.0067 -0.2166
10879TIP3    H154128   1.870   6.416  11.985 -1.8685  1.6580  2.3778
10879TIP3    H254129   1.831   6.440  11.841  3.1840 -0.6802  0.3886
10880TIP3   OH254130   5.041   4.622   4.956 -0.1849  0.1424 -0.5060
10880TIP3    H154131   5.048   4.562   5.030 -0.4187  1.1324  0.3304
10880TIP3    H254132   5.052   4.566   4.879  1.9982 -0.6479  0.3055
10881TIP3   OH254133   3.439   3.913   1.975  0.7253 -0.3345 -0.3026
10881TIP3    H154134   3.437   3.903   1.880 -0.3650 -0.4248 -0.2812
10881TIP3    H254135   3.443   4.008   1.989  1.3829 -0.3367 -0.4314
10882TIP3   OH254136   5.561   5.596   4.461 -0.1045  0.3435 -0.4593
10882TIP3    H154137   5.589   5.507   4.482  0.3845  0.7151  0.5321
10882TIP3    H254138   5.466   5.590   4.450 -0.0597 -0.3173 -0.4984
10883TIP3   OH254139   6.087   6.649   2.139 -0.1855  0.4736 -0.0259
10883TIP3    H154140   6.032   6.659   2.062  2.3545  2.2149 -1.7669
10883TIP3    H254141   6.158   6.592   2.111 -0.1689 -0.3830  1.6299
10884TIP3   OH254142   1.225   4.089  15.028 -0.1895  0.7594 -0.0936
10884TIP3    H154143   1.250   4.061  15.116  1.4964 -2.0625 -1.3564
10884TIP3    H254144   1.135   4.057  15.018  0.5793 -1.4459 -0.3364
10885TIP3   OH254145   4.476   5.053  12.462 -0.0634  0.2175 -0.0321
10885TIP3    H154146   4.471   5.111  12.386 -0.1664 -0.7497 -0.7775
10885TIP3    H254147   4.400   4.996  12.453 -0.0111  0.0196  0.7417
10886TIP3   OH254148   3.209   0.505  16.414 -0.1999  0.7255  0.5200
10886TIP3    H154149   3.210   0.415  16.383 -1.0768  0.2979  1.6773
10886TIP3    H254150   3.302   0.527  16.426  0.0052 -0.1581  0.5964
10887TIP3   OH254151   2.276   3.567   6.060  0.5095  0.2829  0.0422
10887TIP3    H154152   2.250   3.655   6.087 -1.3399 -0.5136  1.0200
10887TIP3    H254153   2.336   3.538   6.130  0.8560  0.6344 -0.1069
10888TIP3   OH254154   2.437   6.054   2.533  0.7296  0.1623  0.2705
10888TIP3    H154155   2.416   6.113   2.605 -0.7547  0.7523 -0.5977
10888TIP3    H254156   2.533   6.055   2.528  0.7909  3.2910 -0.2886
10889TIP3   OH254157   3.056   6.444   5.306 -0.2550  0.5679 -0.1605
10889TIP3    H154158   3.122   6.503   5.342 -1.2312  1.4762  0.2066
10889TIP3    H254159   3.012   6.494   5.238 -0.9701  0.2044  0.0175
10890TIP3   OH254160   4.145   1.610   0.348 -0.8400 -0.2168 -0.7824
10890TIP3    H154161   4.093   1.666   0.407 -2.6069  0.1232 -2.5636
10890TIP3    H254162   4.219   1.665   0.323 -2.3864  1.3157 -2.2654
10891TIP3   OH254163   5.106   1.798  11.452  0.0876 -0.0525 -0.2207
10891TIP3    H154164   5.084   1.731  11.387  1.6007 -0.2642 -0.5356
10891TIP3    H254165   5.148   1.868  11.401  2.5337 -0.8019  0.6568
10892TIP3   OH254166   3.136   6.504   3.809  0.2152  0.0833  0.0248
10892TIP3    H154167   3.148   6.471   3.720  0.3274  0.3524 -0.0592
10892TIP3    H254168   3.149   6.598   3.802 -3.4279  0.7061 -0.3566
10893TIP3   OH254169   0.676   3.708  16.249 -0.2528 -0.0373  0.0325
10893TIP3    H154170   0.755   3.740  16.207 -0.2388  0.7301  0.6175
10893TIP3    H254171   0.694   3.616  16.270  0.4620  0.1193  0.1140
10894TIP3   OH254172   0.173   4.035   1.163 -0.0447 -0.3060  0.0475
10894TIP3    H154173   0.221   3.978   1.103  1.2321  0.5185  0.2577
10894TIP3    H254174   0.163   4.117   1.115  0.3334  0.1177  0.6809
10895TIP3   OH254175   6.443   2.009  13.134 -0.2266  0.6040 -0.1896
10895TIP3    H154176   6.354   1.987  13.161 -0.3924 -1.8728 -2.4073
10895TIP3    H254177   6.489   1.925  13.131  1.8590  1.6803 -0.3408
10896TIP3   OH254178   2.710   4.106  13.640  0.1619  0.1891  0.3215
10896TIP3    H154179   2.739   4.043  13.574  0.8165 -0.9442  1.6560
10896TIP3    H254180   2.672   4.052  13.710  0.7748  1.2612  1.5196
10897TIP3   OH254181   6.620   5.695   6.184  0.0730 -0.0421  0.2362
10897TIP3    H154182   6.632   5.696   6.090  2.1264 -0.1265  0.4599
10897TIP3    H254183   6.605   5.786   6.208  2.0640  0.3633  0.0764
10898TIP3   OH254184   6.006   5.311   6.466 -0.2929  0.3537 -0.3312
10898TIP3    H154185   6.015   5.272   6.553  1.3805 -1.4891 -1.2574
10898TIP3    H254186   6.056   5.392   6.471  1.1137 -0.4923  0.0427
10899TIP3   OH254187   4.664   2.333   2.425 -0.2417 -0.0647  0.3234
10899TIP3    H154188   4.624   2.417   2.447 -3.3613 -1.2411 -0.3344
10899TIP3    H254189   4.677   2.338   2.330  0.9727  0.1905  0.4917
10900TIP3   OH254190   0.556   1.192   1.246 -0.1309 -0.6944 -0.6245
10900TIP3    H154191   0.601   1.146   1.317 -1.9069 -0.9104  0.3961
10900TIP3    H254192   0.489   1.244   1.290 -0.5444  0.0407 -2.0713
10901TIP3   OH254193   0.100   2.930   1.718  0.3646 -0.1421  0.0238
10901TIP3    H154194   0.025   2.987   1.732  0.7744  0.1862  0.9865
10901TIP3    H254195   0.083   2.854   1.774  1.7931  0.9631  2.0962
10902TIP3   OH254196   0.867   6.699   1.058 -0.9257  0.4257  0.2009
10902TIP3    H154197   0.893   6.732   0.973 -2.3924 -1.4268 -1.0599
10902TIP3    H254198   0.809   6.766   1.094  1.1099  2.0690  0.6513
10903TIP3   OH254199   4.550   0.116  14.803 -0.5823  0.2866 -0.1854
10903TIP3    H154200   4.495   0.145  14.730  0.7369  0.0384 -1.3298
10903TIP3    H254201   4.638   0.111  14.766 -0.0820 -1.1365  1.0750
10904TIP3   OH254202   3.822   5.827   2.348 -0.0377 -0.0179  0.2596
10904TIP3    H154203   3.868   5.776   2.415 -1.0003 -1.0757  0.1329
10904TIP3    H254204   3.881   5.826   2.273  0.2552 -0.3385  0.4906
10905TIP3   OH254205   2.451   0.981  13.130 -0.3789 -0.4108 -0.6476
10905TIP3    H154206   2.496   0.970  13.214 -0.7953 -0.3306 -0.4120
10905TIP3    H254207   2.512   0.945  13.065  0.6598  1.0057 -0.5058
10906TIP3   OH254208   5.807   3.403   5.584 -0.1769 -0.0406  0.8363
10906TIP3    H154209   5.899   3.397   5.559 -0.2389  0.4596  0.4704
10906TIP3    H254210   5.772   3.315   5.569  0.2761 -0.2665  1.1148
10907TIP3   OH254211   1.189   1.387  12.459  0.4883 -0.3773 -0.6958
10907TIP3    H154212   1.261   1.337  12.498  0.8591 -0.0256 -0.9121
10907TIP3    H254213   1.169   1.454  12.523 -0.5099 -1.2416 -0.0815
10908TIP3   OH254214   4.586   4.404   1.126  0.2715 -0.1135 -0.2010
10908TIP3    H154215   4.508   4.410   1.069  0.7265 -1.0155 -0.9591
10908TIP3    H254216   4.628   4.323   1.099  1.1616  0.0589  0.6255
10909TIP3   OH254217   3.066   2.285   3.311 -0.2553  0.4422  0.3815
10909TIP3    H154218   3.059   2.318   3.222 -0.3996  2.5440  1.1155
10909TIP3    H254219   3.117   2.204   3.303 -0.7443  0.2835 -1.6405
10910TIP3   OH254220   1.340   0.004   2.425  0.1123  0.3073  0.2041
10910TIP3    H154221   1.381  -0.034   2.503  0.7002 -1.3046 -0.8243
10910TIP3    H254222   1.255   0.035   2.455  0.4520  0.0104  1.5449
10911TIP3   OH254223   1.256   0.750  16.529 -0.2242  0.2042  0.3263
10911TIP3    H154224   1.270   0.704  16.612  0.4664 -1.4490 -0.6564
10911TIP3    H254225   1.281   0.841  16.547  0.2074 -0.1888  1.8341
10912TIP3   OH254226   5.394   3.486   6.494 -0.1223  0.4188  0.5489
10912TIP3    H154227   5.422   3.551   6.558  2.3162 -1.3154  1.3834
10912TIP3    H254228   5.331   3.431   6.541 -0.0035  0.4521  0.7438
10913TIP3   OH254229   0.686   5.148   0.534  0.1151 -0.3082 -0.1321
10913TIP3    H154230   0.639   5.065   0.520  0.4343 -0.7436  1.2159
10913TIP3    H254231   0.719   5.142   0.624  1.2538  0.7339 -0.4460
10914TIP3   OH254232   1.528   1.296   4.358 -0.2358  0.4535 -0.0803
10914TIP3    H154233   1.602   1.252   4.315  0.9040  0.9355  1.3205
10914TIP3    H254234   1.475   1.329   4.286  0.4046 -0.7146 -1.1315
10915TIP3   OH254235   5.411   4.043   2.052  0.1123 -0.2617  0.8587
10915TIP3    H154236   5.342   4.099   2.088 -0.5268  0.0786 -0.8134
10915TIP3    H254237   5.375   3.954   2.060 -0.8265 -0.0381 -0.5693
10916TIP3   OH254238   2.157   0.010   5.184  0.1386 -0.2771  0.4339
10916TIP3    H154239   2.208   0.017   5.265  0.4133  1.0281  0.1713
10916TIP3    H254240   2.204  -0.055   5.132  0.4071 -0.5478  1.0003
10917TIP3   OH254241   1.770   0.043   2.521 -0.0981 -0.3380  0.4432
10917TIP3    H154242   1.795   0.015   2.433 -0.5572 -1.7889  0.7414
10917TIP3    H254243   1.767   0.139   2.516  0.9125 -0.3462 -0.8196
10918TIP3   OH254244   4.021   1.775   0.074  0.3532 -0.2486 -0.1701
10918TIP3    H154245   4.028   1.690   0.117 -2.1788  0.4627  1.9153
10918TIP3    H254246   3.928   1.795   0.073  0.6229  1.4740 -2.8426
10919TIP3   OH254247   1.647   4.753  12.705 -0.2830 -0.0603 -0.2867
10919TIP3    H154248   1.609   4.836  12.733  1.8968  0.4576  1.3506
10919TIP3    H254249   1.718   4.777  12.646  2.3975 -0.4502  2.5595
10920TIP3   OH254250   6.650   2.616   4.301 -0.2954 -0.7269  0.3097
10920TIP3    H154251   6.608   2.668   4.370 -0.3883 -2.1848  1.3828
10920TIP3    H254252   6.681   2.537   4.346  3.1738  0.0167 -0.5002
10921TIP3   OH254253   2.882   5.010  16.610 -0.5664  0.0341 -0.1377
10921TIP3    H154254   2.949   4.942  16.616 -0.6881 -0.1091 -0.3729
10921TIP3    H254255   2.867   5.019  16.516 -0.1726  0.7560 -0.1353
10922TIP3   OH254256   1.726   1.135   4.861 -0.3411  0.3112  0.1260
10922TIP3    H154257   1.655   1.088   4.903 -0.0829 -1.4917 -1.3252
10922TIP3    H254258   1.685   1.180   4.787 -0.0345 -0.6531 -0.6551
10923TIP3   OH254259   5.924   1.316  12.076  0.3051  0.0115  0.5048
10923TIP3    H154260   5.913   1.407  12.103  0.7473  0.5406 -1.0217
10923TIP3    H254261   5.870   1.306  11.998  1.6535 -0.5022 -0.4121
10924TIP3   OH254262   5.578   6.455   1.772  0.3632  0.2116  0.4068
10924TIP3    H154263   5.547   6.459   1.862  0.2067  1.0099  0.3273
10924TIP3    H254264   5.652   6.516   1.770  1.5851 -1.2291  0.4530
10925TIP3   OH254265   4.093   5.601   0.584 -0.5296 -0.4023  0.6267
10925TIP3    H154266   4.056   5.584   0.671  0.1816 -0.0893  1.0010
10925TIP3    H254267   4.172   5.547   0.580  0.6921  1.2778  1.0785
10926TIP3   OH254268   4.513   5.683   3.454 -0.1088  0.0769  0.0185
10926TIP3    H154269   4.562   5.712   3.377 -1.4287 -0.4750 -1.0682
10926TIP3    H254270   4.517   5.587   3.450 -0.3101  0.0396  0.5718
10927TIP3   OH254271   3.876   2.405  15.396 -0.4228 -0.2612 -0.8846
10927TIP3    H154272   3.843   2.409  15.485 -1.5469  0.0495 -1.2926
10927TIP3    H254273   3.930   2.484  15.387  1.1493 -1.1902  0.0407
10928TIP3   OH254274   1.193   4.149   0.234 -0.4210 -0.4295 -0.1500
10928TIP3    H154275   1.153   4.066   0.207 -0.2649  0.0279 -1.9307
10928TIP3    H254276   1.270   4.158   0.177  0.4042  0.2513  1.0202
10929TIP3   OH254277   3.438   1.228  11.828  0.4412  0.0135 -0.3654
10929TIP3    H154278   3.434   1.312  11.783 -0.7134  0.0416 -0.2294
10929TIP3    H254279   3.450   1.251  11.920 -0.7702  0.0629 -0.2130
10930TIP3   OH254280   0.143   3.072  11.068  0.4070  0.5097  0.1500
10930TIP3    H154281   0.072   3.120  11.025  0.3049 -0.7848 -1.2163
10930TIP3    H254282   0.223   3.116  11.038  0.2562  0.7783  0.1404
10931TIP3   OH254283   4.477   6.474  14.203 -0.2361  0.0722 -0.0491
10931TIP3    H154284   4.491   6.529  14.126 -3.2371  0.0726 -0.6856
10931TIP3    H254285   4.424   6.401  14.172 -2.3246  0.5419  2.1369
10932TIP3   OH254286   2.832   4.681  17.160 -0.1151  0.3503 -0.5367
10932TIP3    H154287   2.886   4.747  17.204 -0.2117  1.0547 -1.4474
10932TIP3    H254288   2.894   4.613  17.134  0.5455  1.6236 -2.4712
10933TIP3   OH254289   4.306   1.739  16.447 -0.0081  0.1151  0.0624
10933TIP3    H154290   4.399   1.740  16.426 -0.0479  0.2134 -0.1053
10933TIP3    H254291   4.261   1.746  16.363 -0.1911 -1.5649 -0.0190
10934TIP3   OH254292   2.088   2.192  15.813 -0.1221  0.4288  0.1231
10934TIP3    H154293   2.022   2.128  15.839 -0.0654  0.5806  0.6461
10934TIP3    H254294   2.172   2.150  15.833 -0.0906  0.8241  0.8588
10935TIP3   OH254295   3.069   2.483  13.375  0.4105  0.2058  0.4701
10935TIP3    H154296   3.099   2.393  13.364  1.5783  0.3086  2.3540
10935TIP3    H254297   3.074   2.521  13.287 -0.4822 -1.6528 -0.4324
10936TIP3   OH254298   1.417   5.190   5.429 -0.0600 -0.2763  0.1453
10936TIP3    H154299   1.446   5.280   5.445  1.0627 -1.0192  2.7904
10936TIP3    H254300   1.324   5.190   5.452 -0.1902  0.3179 -0.3703
10937TIP3   OH254301   0.321   1.928   3.856 -0.1556 -0.2243 -0.3643
10937TIP3    H154302   0.384   1.866   3.893  0.8125  0.1719 -1.2905
10937TIP3    H254303   0.276   1.878   3.787 -1.4258 -0.7352  0.7912
10938TIP3   OH254304   4.826   0.369   3.607 -0.1403  0.0573 -0.3188
10938TIP3    H154305   4.791   0.352   3.694 -1.5183  1.9173 -0.4504
10938TIP3    H254306   4.778   0.310   3.549 -1.6028  1.0968 -0.2105
10939TIP3   OH254307   5.583   1.788  13.154  0.3421 -0.0134 -0.5782
10939TIP3    H154308   5.569   1.794  13.249  1.4079 -0.3771 -0.3784
10939TIP3    H254309   5.531   1.712  13.127  1.1054 -0.7605 -0.0330
10940TIP3   OH254310   0.450   5.508   3.214  0.6065 -0.0430  0.5052
10940TIP3    H154311   0.497   5.589   3.195 -1.2904  1.0147 -0.0400
10940TIP3    H254312   0.403   5.488   3.133 -1.6367  0.2767  1.6217
10941TIP3   OH254313   5.145   2.366   3.120  0.2856 -0.0282 -0.2966
10941TIP3    H154314   5.184   2.453   3.109 -1.3752  0.5722 -1.7663
10941TIP3    H254315   5.085   2.356   3.047 -0.6422 -1.8600  0.6302
10942TIP3   OH254316   3.634   3.335   0.287  0.1344  0.4035 -0.1393
10942TIP3    H154317   3.620   3.337   0.192  2.5806 -3.1450 -0.7750
10942TIP3    H254318   3.558   3.288   0.321  0.6419 -0.9285 -0.7908
10943TIP3   OH254319   4.939   3.921   0.114 -0.3501  0.2734  0.5014
10943TIP3    H154320   5.033   3.907   0.114 -0.2204  1.0891  1.2321
10943TIP3    H254321   4.910   3.898   0.202 -1.0106 -0.9941 -0.0167
10944TIP3   OH254322   1.388   6.323  12.672  0.0770 -0.6068 -0.5981
10944TIP3    H154323   1.429   6.318  12.585  0.5536 -0.6546 -0.3740
10944TIP3    H254324   1.379   6.232  12.699 -0.2407 -0.5985 -0.6720
10945TIP3   OH254325   0.773   3.075  15.043  0.3481  0.2243 -0.6994
10945TIP3    H154326   0.863   3.046  15.029  0.3771  0.5518 -1.2111
10945TIP3    H254327   0.742   3.101  14.956 -0.0341  0.6975 -0.4292
10946TIP3   OH254328   3.723   3.591   1.052 -0.2806 -0.4177 -0.3738
10946TIP3    H154329   3.670   3.539   1.112 -0.0471 -0.3338 -0.0853
10946TIP3    H254330   3.809   3.548   1.053 -0.5685 -1.0279 -1.4634
10947TIP3   OH254331   6.729   4.055   1.863  0.1312  0.8519  0.1980
10947TIP3    H154332   6.810   4.089   1.826  1.1697  0.8412  2.2735
10947TIP3    H254333   6.737   3.960   1.855  0.3122  0.8544  0.3345
10948TIP3   OH254334   1.168   0.850  12.447  0.3621  0.3094  0.1657
10948TIP3    H154335   1.168   0.774  12.389  0.5549 -0.1794  0.8045
10948TIP3    H254336   1.209   0.919  12.395 -0.5624  0.2174 -0.7208
10949TIP3   OH254337   5.091   4.287   0.725  0.1556 -0.1290 -0.0287
10949TIP3    H154338   5.101   4.239   0.807 -0.3954 -0.4982 -0.1702
10949TIP3    H254339   5.010   4.337   0.736  0.7490  0.8155  0.1333
10950TIP3   OH254340   1.091   3.630   5.500 -0.1713  0.1801 -0.0831
10950TIP3    H154341   1.179   3.625   5.537 -0.3275 -1.0986  0.1671
10950TIP3    H254342   1.034   3.592   5.567 -0.6659 -0.6971 -0.9815
10951TIP3   OH254343   5.278   6.830   2.925  0.0909  0.4522  0.5620
10951TIP3    H154344   5.295   6.745   2.886  0.5898 -0.1005  1.9270
10951TIP3    H254345   5.186   6.848   2.905  0.2598  0.1023 -0.6237
10952TIP3   OH254346   2.722   1.192   3.821  0.0751  0.0691  0.1746
10952TIP3    H154347   2.650   1.136   3.792  0.4513 -0.4059  0.1588
10952TIP3    H254348   2.737   1.252   3.748  0.5127 -0.6280 -0.3191
10953TIP3   OH254349   5.394   6.637   5.312 -0.3988 -0.4082  0.2525
10953TIP3    H154350   5.474   6.673   5.350 -0.8447  1.5942 -0.5799
10953TIP3    H254351   5.424   6.571   5.249  0.6427  0.7388 -0.4738
10954TIP3   OH254352   1.817   5.875   6.137 -1.0113 -0.0281 -0.4126
10954TIP3    H154353   1.781   5.948   6.087  0.2352  0.6499 -0.3578
10954TIP3    H254354   1.817   5.905   6.228 -1.2042 -0.3980 -0.2873
10955TIP3   OH254355   6.450   4.652  10.579  0.2552 -0.2251  0.1997
10955TIP3    H154356   6.455   4.747  10.582  0.9586 -0.2299 -0.4729
10955TIP3    H254357   6.541   4.623  10.589  0.4220 -0.7154 -2.1533
10956TIP3   OH254358   5.791   3.849   5.694 -0.0141 -0.4746  0.1185
10956TIP3    H154359   5.852   3.844   5.768 -0.3994 -2.4363  0.3712
10956TIP3    H254360   5.746   3.764   5.695 -1.4817  0.2467 -1.1463
10957TIP3   OH254361   2.985   1.259  13.687  0.0467 -0.2751  0.6195
10957TIP3    H154362   2.913   1.321  13.676 -0.3404 -0.2086  3.0778
10957TIP3    H254363   3.060   1.302  13.647 -0.3891  1.4561  1.5971
10958TIP3   OH254364   5.266   6.699   1.461 -0.6456  0.2120  0.4188
10958TIP3    H154365   5.338   6.723   1.403 -0.3936 -0.1430  0.5850
10958TIP3    H254366   5.231   6.619   1.424  0.5658 -0.9470  1.6561
10959TIP3   OH254367   3.456   5.729  14.170 -0.6170 -0.3095 -0.4884
10959TIP3    H154368   3.372   5.753  14.130 -0.0018  0.2371 -1.5016
10959TIP3    H254369   3.476   5.643  14.135 -1.0493 -0.7125  0.2449
10960TIP3   OH254370   4.807   4.799  16.306 -0.7590  0.2345  0.6634
10960TIP3    H154371   4.810   4.836  16.394 -2.9399 -0.7322  1.2190
10960TIP3    H254372   4.867   4.724  16.309  1.7786  2.1061  0.2450
10961TIP3   OH254373   3.073   0.245   4.847 -0.0756  0.2395 -0.4635
10961TIP3    H154374   3.131   0.308   4.891 -0.2795  0.5430 -0.6301
10961TIP3    H254375   3.083   0.264   4.754  1.0913 -1.0289 -0.6404
10962TIP3   OH254376   4.013   5.579   4.211  0.0925  0.1443  0.4331
10962TIP3    H154377   3.932   5.629   4.199  0.0940 -0.1392 -0.9428
10962TIP3    H254378   4.018   5.523   4.134  0.6642 -1.2024  1.4159
10963TIP3   OH254379   5.304   1.415   5.388  0.1840  0.2837 -0.0087
10963TIP3    H154380   5.391   1.455   5.383  0.2240  0.2398  0.3413
10963TIP3    H254381   5.316   1.327   5.350  0.1009  0.5856 -0.7553
10964TIP3   OH254382   0.253   3.471   0.261  0.4782  0.5357  0.5009
10964TIP3    H154383   0.184   3.443   0.202  1.0771 -0.2841  0.1622
10964TIP3    H254384   0.296   3.544   0.215 -0.2622  1.1776  0.8002
10965TIP3   OH254385   0.734   3.099   1.249 -0.5159  0.1200  0.1334
10965TIP3    H154386   0.666   3.046   1.291  0.1185 -0.5291  0.3652
10965TIP3    H254387   0.695   3.186   1.240 -0.4549  0.5218  2.7764
10966TIP3   OH254388   3.380   4.263  14.740  0.5700 -0.1701 -0.7472
10966TIP3    H154389   3.357   4.210  14.817 -0.2256 -0.5457 -1.2254
10966TIP3    H254390   3.408   4.200  14.675  0.9782  0.1256 -0.8622
10967TIP3   OH254391   4.035   3.568  12.934  0.2900  0.1560  0.3169
10967TIP3    H154392   4.121   3.555  12.893 -0.3915 -0.1685 -1.0440
10967TIP3    H254393   4.013   3.659  12.914  0.7349  0.5699  1.5495
10968TIP3   OH254394   0.450   3.872  12.303  0.0413 -0.6051 -0.0339
10968TIP3    H154395   0.532   3.921  12.298  0.1747 -0.9239 -1.8535
10968TIP3    H254396   0.468   3.802  12.367  0.2356  0.9372  1.6751
10969TIP3   OH254397   3.693   0.354  13.583 -0.5984  0.3535  0.7281
10969TIP3    H154398   3.670   0.443  13.610  0.9005  1.1310 -0.4133
10969TIP3    H254399   3.658   0.346  13.495  0.4786  0.3596  0.2755
10970TIP3   OH254400   6.197   1.108   1.422 -0.3221  0.4183 -0.1617
10970TIP3    H154401   6.140   1.097   1.347 -0.0668  2.1202 -0.6419
10970TIP3    H254402   6.139   1.136   1.493 -0.3027  0.6388 -0.2326
10971TIP3   OH254403   3.780   1.475  14.190 -0.3356  0.5651 -0.3452
10971TIP3    H154404   3.789   1.444  14.280  0.1069 -0.0799 -0.6016
10971TIP3    H254405   3.767   1.569  14.198 -1.6910  0.3407  0.4558
10972TIP3   OH254406   4.876   0.471   0.082  0.2853  0.3141 -0.1821
10972TIP3    H154407   4.835   0.530   0.018 -0.2735 -1.0013 -1.0691
10972TIP3    H254408   4.852   0.383   0.053  2.0511 -0.4256  0.4536
10973TIP3   OH254409   3.353   3.410  11.766  0.3248  0.1287  0.2601
10973TIP3    H154410   3.264   3.376  11.755  0.4275 -0.0168 -0.1481
10973TIP3    H254411   3.401   3.374  11.692  0.5785  0.7056  0.1456
10974TIP3   OH254412   1.011   0.634   0.549  0.0423  0.4962 -0.0578
10974TIP3    H154413   1.000   0.616   0.456  2.6554 -2.4466  0.0322
10974TIP3    H254414   1.082   0.698   0.553  0.8342 -0.3632 -0.1015
10975TIP3   OH254415   5.615   5.216   4.980  0.1938  0.1843 -0.2302
10975TIP3    H154416   5.564   5.297   4.978  0.5509  0.5803  2.5803
10975TIP3    H254417   5.550   5.147   4.972 -0.7819  0.7067  2.2136
10976TIP3   OH254418   5.014   1.599  15.315 -0.2406 -0.1351 -0.0279
10976TIP3    H154419   4.960   1.649  15.376  0.1444  0.1140  0.1123
10976TIP3    H254420   4.951   1.552  15.260 -0.6433  1.1794 -0.7395
10977TIP3   OH254421   3.143   2.604  16.187 -0.0160  0.1981  0.1531
10977TIP3    H154422   3.086   2.604  16.110  0.4401 -2.0020 -0.2433
10977TIP3    H254423   3.100   2.544  16.247  0.1605  1.1411  1.2610
10978TIP3   OH254424   2.413   1.772   0.220  0.1361 -0.6482  0.4923
10978TIP3    H154425   2.350   1.777   0.148 -0.5095 -0.6076  1.0526
10978TIP3    H254426   2.402   1.683   0.255  0.3575 -0.6251  0.6217
10979TIP3   OH254427   2.427   0.462  16.689 -0.3089  0.2932  0.3104
10979TIP3    H154428   2.470   0.459  16.775 -0.7514  0.6142  0.5454
10979TIP3    H254429   2.488   0.511  16.634  0.1466 -0.2316  0.3431
10980TIP3   OH254430   1.221   4.847   5.211  0.2049 -0.1129  0.7832
10980TIP3    H154431   1.312   4.876   5.214  0.0873  0.4933 -0.4384
10980TIP3    H254432   1.171   4.923   5.241  0.0172  0.2132 -0.3096
10981TIP3   OH254433   5.681   3.540   4.838  0.2778 -0.3233 -0.3473
10981TIP3    H154434   5.712   3.589   4.762 -1.0163 -1.1335 -1.4544
10981TIP3    H254435   5.587   3.530   4.822 -0.0904 -0.1696  1.5771
10982TIP3   OH254436   6.799   5.222   2.231 -0.4159 -0.1205 -0.7390
10982TIP3    H154437   6.823   5.303   2.185 -0.4212  0.5077  0.3302
10982TIP3    H254438   6.879   5.170   2.230  0.5427  1.1922  1.2017
10983TIP3   OH254439   2.836   0.886  15.463 -0.3004  0.5430 -0.1534
10983TIP3    H154440   2.896   0.830  15.413 -0.1115  1.3961 -0.9109
10983TIP3    H254441   2.873   0.887  15.552 -0.0453 -0.1360 -0.2410
10984TIP3   OH254442   6.664   0.659  11.516 -0.2306 -0.0133  0.2215
10984TIP3    H154443   6.717   0.642  11.438 -0.3511  1.9866 -0.3436
10984TIP3    H254444   6.727   0.692  11.580 -0.3509 -0.3476  0.5112
10985TIP3   OH254445   1.742   4.930  16.543  0.0294  0.4062  0.3557
10985TIP3    H154446   1.743   4.847  16.495  0.5479  0.3229  0.5024
10985TIP3    H254447   1.811   4.920  16.609 -0.4686  0.6354  0.9173
10986TIP3   OH254448   5.858   2.051   4.421  0.2043  0.2029  0.3563
10986TIP3    H154449   5.764   2.054   4.439 -0.4205 -3.7380 -1.1374
10986TIP3    H254450   5.900   2.084   4.500 -2.4327  0.6524  1.6455
10987TIP3   OH254451   3.709   2.881   3.129 -0.0243  0.7646 -0.6978
10987TIP3    H154452   3.776   2.917   3.187  0.4425  0.3376 -0.9518
10987TIP3    H254453   3.689   2.952   3.068 -1.9937  1.9107  1.1756
10988TIP3   OH254454   0.907   3.939   2.324  0.1906 -0.1372  0.5514
10988TIP3    H154455   0.843   3.987   2.272 -0.8212 -1.8549  0.1514
10988TIP3    H254456   0.869   3.934   2.411  0.5324  0.1858  0.7262
10989TIP3   OH254457   6.539   5.350  11.545 -0.0750  0.5456 -0.9796
10989TIP3    H154458   6.576   5.372  11.630  0.4646 -0.9023 -0.8057
10989TIP3    H254459   6.454   5.394  11.544  0.0505  0.8491  0.1766
10990TIP3   OH254460   3.654   4.316  16.364 -0.2994  0.0934  0.9870
10990TIP3    H154461   3.717   4.247  16.385 -0.6349 -0.2149  0.9812
10990TIP3    H254462   3.588   4.274  16.309 -0.0046  0.6452  0.1861
10991TIP3   OH254463   2.194   6.228   5.279  0.2238  0.1831 -0.0600
10991TIP3    H154464   2.112   6.201   5.321  0.3504 -0.1214 -0.0075
10991TIP3    H254465   2.166   6.284   5.206  0.0549  2.2350  1.4903
10992TIP3   OH254466   3.931   2.430   0.081 -0.8736  0.0626  0.7105
10992TIP3    H154467   3.982   2.359   0.117  0.3520  1.1048  1.0934
10992TIP3    H254468   3.862   2.446   0.145  1.6362  2.3225  3.1382
10993TIP3   OH254469   3.439   4.006   5.871  0.1496 -0.3457 -0.2460
10993TIP3    H154470   3.456   4.073   5.938 -3.3289  2.2685 -1.6897
10993TIP3    H254471   3.399   3.934   5.920 -0.8288  0.8306  0.7693
10994TIP3   OH254472   5.671   2.087  12.879  0.3363 -0.1693 -0.3708
10994TIP3    H154473   5.714   2.056  12.800  0.3029  0.9917 -0.8614
10994TIP3    H254474   5.583   2.049  12.876  0.0016  0.6460 -1.4101
10995TIP3   OH254475   5.955   5.419   4.891 -0.8566 -0.1078  0.3090
10995TIP3    H154476   5.923   5.361   4.960  2.9090 -2.1571  0.6250
10995TIP3    H254477   5.985   5.360   4.822 -0.7370  1.7076 -1.2721
10996TIP3   OH254478   4.783   5.723  10.475 -0.0053 -0.2639 -0.7134
10996TIP3    H154479   4.853   5.681  10.524  2.0498  1.3252 -2.1129
10996TIP3    H254480   4.733   5.650  10.437  0.6862 -1.4458  0.5641
10997TIP3   OH254481   5.379   5.493  14.437 -0.3931  0.3419  0.2482
10997TIP3    H154482   5.290   5.480  14.403 -0.2312  1.4985 -0.7162
10997TIP3    H254483   5.408   5.405  14.462 -0.9838 -0.4239 -1.5591
10998TIP3   OH254484   5.482   0.603   2.717 -0.3875  0.1438  0.0809
10998TIP3    H154485   5.436   0.681   2.748  0.6638  0.4214  0.9896
10998TIP3    H254486   5.514   0.627   2.630 -0.7423  0.4339  0.0257
10999TIP3   OH254487   1.949   3.797  13.055  0.4820  0.1811 -0.3153
10999TIP3    H154488   1.953   3.810  13.150  1.0540 -1.6847 -0.0374
10999TIP3    H254489   1.979   3.880  13.018  0.7268  0.7798  1.1415
11000TIP3   OH254490   6.722   0.432  11.980 -0.4582  0.1810 -0.0763
11000TIP3    H154491   6.814   0.404  11.984 -0.2312  0.8708 -0.1878
11000TIP3    H254492   6.721   0.515  12.028 -1.1346 -0.0821  0.3771
11001TIP3   OH254493   2.148   3.021  14.087 -0.3558 -1.0590  0.7236
11001TIP3    H154494   2.075   2.987  14.036  1.0863 -0.4181 -1.9478
11001TIP3    H254495   2.164   2.953  14.153 -1.9519 -2.2222 -0.0112
11002TIP3   OH254496   2.198   5.891  15.563 -0.0005 -0.2216  0.0931
11002TIP3    H154497   2.129   5.831  15.590 -1.4985  1.6530  0.6338
11002TIP3    H254498   2.223   5.860  15.476  0.2313 -2.3723  0.8542
11003TIP3   OH254499   4.962   4.366  10.777  0.0556 -0.1027 -0.2268
11003TIP3    H154500   4.943   4.459  10.767  0.3554  0.3339  2.4007
11003TIP3    H254501   4.949   4.329  10.690  0.9739  2.5577 -1.6098
11004TIP3   OH254502   3.659   1.627  10.825 -0.5541 -0.2280 -0.3178
11004TIP3    H154503   3.667   1.538  10.791 -3.6053 -0.5913 -0.4469
11004TIP3    H254504   3.656   1.682  10.746  0.9728 -0.0133 -0.2492
11005TIP3   OH254505   3.956   5.062  13.641 -0.2357 -0.0626 -0.1888
11005TIP3    H154506   4.041   5.032  13.607 -0.6151  0.5248 -1.7349
11005TIP3    H254507   3.970   5.071  13.735  0.8143 -1.9505 -0.1116
11006TIP3   OH254508   5.191   2.678   6.517 -0.2486 -0.0886 -0.1976
11006TIP3    H154509   5.257   2.635   6.572  0.6638  0.7549 -0.6256
11006TIP3    H254510   5.216   2.770   6.517 -0.4393 -0.0240 -1.7630
11007TIP3   OH254511   0.128   2.945   0.150 -0.0947  0.3149  0.0445
11007TIP3    H154512   0.195   2.915   0.089 -0.9060  2.0922 -1.8634
11007TIP3    H254513   0.136   3.041   0.149 -0.6325  0.4436  2.2275
11008TIP3   OH254514   2.007   2.884  14.367  0.5175  0.3407  0.3454
11008TIP3    H154515   2.016   2.945  14.441 -1.3617  1.1273 -0.0151
11008TIP3    H254516   2.081   2.905  14.309  0.4132  1.6662  0.6654
11009TIP3   OH254517   4.258   4.661  15.553  0.4009 -0.1910 -0.2549
11009TIP3    H154518   4.167   4.690  15.556  1.0180  1.8905  1.4764
11009TIP3    H254519   4.268   4.606  15.631  1.2636  2.1887  1.4833
11010TIP3   OH254520   0.349   0.833  14.331  0.3495  0.6914 -0.2684
11010TIP3    H154521   0.365   0.739  14.330  0.7845  0.7475  0.4206
11010TIP3    H254522   0.255   0.842  14.315  0.5910  0.2327 -2.1096
11011TIP3   OH254523   1.020   0.491   3.759  0.3790 -0.1147  0.2874
11011TIP3    H154524   0.952   0.501   3.825  0.3311 -1.0376  0.3932
11011TIP3    H254525   0.972   0.476   3.677  0.4432  0.6826  0.0938
11012TIP3   OH254526   0.342   0.693  15.363  0.2166 -0.3105  0.6639
11012TIP3    H154527   0.351   0.778  15.321  2.3293 -1.5200 -1.6326
11012TIP3    H254528   0.260   0.657  15.327 -0.5404  0.6061  1.4330
11013TIP3   OH254529   5.123   0.274  15.714  0.0180 -0.0777 -0.0157
11013TIP3    H154530   5.033   0.255  15.739 -0.1690 -0.5737 -0.9963
11013TIP3    H254531   5.170   0.281  15.797 -0.7426 -0.7051  0.4894
11014TIP3   OH254532   3.116   3.548  16.129 -0.3248 -0.3187  0.1095
11014TIP3    H154533   3.094   3.494  16.053  0.8845  0.6109 -0.9445
11014TIP3    H254534   3.170   3.492  16.184 -2.9837 -1.7457  1.4452
11015TIP3   OH254535   3.947   1.435   6.410  0.1052 -0.2213 -0.3022
11015TIP3    H154536   3.978   1.524   6.393  0.1364 -0.5681 -2.3210
11015TIP3    H254537   3.927   1.400   6.324 -0.9087 -1.8338  0.5332
11016TIP3   OH254538   1.748   0.173   3.164 -0.0966  0.8325 -0.3499
11016TIP3    H154539   1.818   0.232   3.193 -0.2641  0.3545  1.1382
11016TIP3    H254540   1.671   0.202   3.214 -0.1731 -0.6302  0.4262
11017TIP3   OH254541   5.828   6.319   0.973  0.2694 -0.2002 -0.5275
11017TIP3    H154542   5.875   6.354   0.898 -0.8262  0.1291 -1.0843
11017TIP3    H254543   5.740   6.303   0.941 -0.1459 -0.3281  0.6130
11018TIP3   OH254544   1.286   2.363  14.349  0.0076 -0.1210  0.1116
11018TIP3    H154545   1.371   2.407  14.347  0.0481 -0.1929  0.2205
11018TIP3    H254546   1.243   2.388  14.267  0.3411 -0.4895 -0.1784
11019TIP3   OH254547   0.952   6.078  16.004  0.4395 -0.0526  0.2984
11019TIP3    H154548   0.894   6.116  15.938 -0.0936  0.1406  0.8662
11019TIP3    H254549   1.040   6.104  15.977  0.0992  1.6046  0.6766
11020TIP3   OH254550   4.309   1.060  13.274 -0.3875  0.1387  0.2248
11020TIP3    H154551   4.335   0.987  13.219  0.6406  0.8235 -0.2376
11020TIP3    H254552   4.299   1.134  13.213 -1.8933  0.2845  0.6098
11021TIP3   OH254553   1.645   0.126   5.619  0.0532  0.4045 -0.1244
11021TIP3    H154554   1.607   0.086   5.698  1.9663 -0.8576  0.2285
11021TIP3    H254555   1.730   0.159   5.647 -0.6298  3.0733 -0.9122
11022TIP3   OH254556   5.332   2.316  11.296  0.0970  0.0058  0.2517
11022TIP3    H154557   5.385   2.386  11.333  0.0610  0.2915 -0.2339
11022TIP3    H254558   5.304   2.349  11.210 -2.2970  0.5886  1.1659
11023TIP3   OH254559   1.126   2.922  12.806  0.6780  0.1753  0.0312
11023TIP3    H154560   1.049   2.865  12.813  1.1044 -0.2379  1.6439
11023TIP3    H254561   1.125   2.952  12.715 -1.1988 -0.0836 -0.0723
11024TIP3   OH254562   4.512   3.257   1.758  0.6329  0.4709 -0.5152
11024TIP3    H154563   4.443   3.319   1.735  0.1639  0.3802  0.5728
11024TIP3    H254564   4.582   3.312   1.793  0.5221  0.4424 -0.2515
11025TIP3   OH254565   6.429   0.876  14.972 -0.2305 -0.1406 -0.4153
11025TIP3    H154566   6.418   0.899  15.064  1.0723  0.7127 -0.4487
11025TIP3    H254567   6.388   0.790  14.963 -1.5089  0.3165  0.6603
11026TIP3   OH254568   6.461   4.550   3.735 -0.1667 -0.3798 -0.1828
11026TIP3    H154569   6.458   4.615   3.805  1.3927 -0.3165 -0.1387
11026TIP3    H254570   6.396   4.484   3.760 -0.7560  0.4375  0.4925
11027TIP3   OH254571   0.038   5.019  11.300 -0.3360 -0.1197  0.2402
11027TIP3    H154572   0.015   5.079  11.229 -0.0091 -1.5676 -1.1546
11027TIP3    H254573  -0.046   4.986  11.331 -0.4334 -0.8289 -0.7242
11028TIP3   OH254574   3.917   0.047   0.332  0.3313 -0.0802 -0.4661
11028TIP3    H154575   3.843  -0.011   0.311  1.6391 -1.5659 -1.1735
11028TIP3    H254576   3.909   0.118   0.268  0.4699 -1.1424 -1.7220
11029TIP3   OH254577   4.649   1.715  15.551  0.1690 -0.8578  0.4432
11029TIP3    H154578   4.737   1.752  15.558  0.4111 -1.4435  0.5311
11029TIP3    H254579   4.629   1.720  15.458  1.4130 -3.2027 -0.0419
11030TIP3   OH254580   4.045   6.795  11.379 -0.2612 -0.2931  0.1353
11030TIP3    H154581   3.961   6.820  11.340 -0.1063  2.0758  1.1108
11030TIP3    H254582   4.023   6.768  11.468  0.0362  1.4788  0.8019
11031TIP3   OH254583   3.972   6.254   4.907 -0.4643 -0.1974  0.1920
11031TIP3    H154584   3.906   6.300   4.959  0.2216  0.0418  0.8727
11031TIP3    H254585   3.987   6.311   4.832 -1.1962 -0.3684 -0.0909
11032TIP3   OH254586   0.544   0.906   2.025 -0.3545  1.1801  0.2221
11032TIP3    H154587   0.627   0.901   1.977 -0.4736 -0.5418  0.1370
11032TIP3    H254588   0.561   0.864   2.109 -1.2394  0.4368  0.0488
11033TIP3   OH254589   4.287   2.159   3.759  0.0062  0.1450 -0.0399
11033TIP3    H154590   4.359   2.124   3.707 -1.0251 -0.4456 -1.1287
11033TIP3    H254591   4.209   2.140   3.707 -0.8850  1.3072  0.8225
11034TIP3   OH254592   2.515   1.142  12.755 -0.1609 -0.4030 -0.6511
11034TIP3    H154593   2.597   1.101  12.782 -0.8538 -0.2975  1.8538
11034TIP3    H254594   2.529   1.166  12.664  2.4682 -0.6451 -0.3805
11035TIP3   OH254595   5.000   2.473  16.817  0.1811  0.3189 -0.4742
11035TIP3    H154596   5.019   2.472  16.911  2.0302 -0.4967 -0.8002
11035TIP3    H254597   4.920   2.421  16.808  0.4798 -0.3546  0.5721
11036TIP3   OH254598   0.536   5.238   4.229 -0.2157  0.5315  0.5365
11036TIP3    H154599   0.572   5.301   4.166  2.4369  0.0372  1.4056
11036TIP3    H254600   0.603   5.232   4.297 -0.9085 -2.2995  1.1110
11037TIP3   OH254601   0.894   2.056  10.984  0.5922 -0.6634 -0.0315
11037TIP3    H154602   0.812   2.085  11.024  1.4128  1.6774  0.1168
11037TIP3    H254603   0.894   1.961  10.995 -1.6823 -0.6322  0.7239
11038TIP3   OH254604   6.191   1.397   3.075  0.0198 -0.3309 -0.0348
11038TIP3    H154605   6.145   1.370   3.154  0.6327  0.1327  0.4925
11038TIP3    H254606   6.284   1.390   3.098  0.2185 -0.8253 -0.9281
11039TIP3   OH254607   2.383   0.529   2.689 -0.0122 -0.3906  0.1742
11039TIP3    H154608   2.458   0.563   2.640  1.2852 -2.8299  0.2940
11039TIP3    H254609   2.411   0.532   2.780 -0.0877 -1.2255  0.2301
11040TIP3   OH254610   3.216   6.051   1.575  0.1942  0.6120  0.3950
11040TIP3    H154611   3.270   6.125   1.547  0.4125  0.3586  0.1376
11040TIP3    H254612   3.274   5.996   1.627  0.0519  0.5841  0.5259
11041TIP3   OH254613   1.120   1.068  16.566  0.4578 -0.2261  0.3145
11041TIP3    H154614   1.114   1.015  16.645 -1.1653  0.0460  0.3991
11041TIP3    H254615   1.046   1.127  16.571 -0.3603 -0.9533 -1.9495
11042TIP3   OH254616   4.409   1.508   4.723 -0.3465  0.0750 -0.1011
11042TIP3    H154617   4.402   1.516   4.818 -1.2259 -1.8738  0.0592
11042TIP3    H254618   4.325   1.541   4.691  0.1088  1.1172 -0.2566
11043TIP3   OH254619   4.937   5.222  13.861  0.2381  0.4818 -0.1141
11043TIP3    H154620   4.978   5.307  13.845  0.2849  0.7221  1.1542
11043TIP3    H254621   4.864   5.218  13.799  1.3934  0.5843 -1.5361
11044TIP3   OH254622   4.186   6.576   5.506  0.1665  0.0709 -0.4553
11044TIP3    H154623   4.118   6.527   5.552  2.4975 -1.8391  1.2278
11044TIP3    H254624   4.187   6.662   5.547 -0.5626 -0.2027  0.1601
11045TIP3   OH254625   1.624   6.617  11.914  0.0380 -0.7929  0.7040
11045TIP3    H154626   1.692   6.648  11.854 -1.4695  3.4832  0.8680
11045TIP3    H254627   1.663   6.623  12.001 -0.2901  1.2643  0.7616
11046TIP3   OH254628   1.385   0.546   6.551  0.0804  0.6390 -0.6390
11046TIP3    H154629   1.344   0.519   6.634 -0.2385  0.4276 -0.8620
11046TIP3    H254630   1.458   0.486   6.539  0.1413  0.6844 -0.5015
11047TIP3   OH254631   0.110   5.059   5.601 -0.3219  0.1632  0.4692
11047TIP3    H154632   0.194   5.046   5.645  0.0608  0.7930 -0.0461
11047TIP3    H254633   0.058   5.111   5.663 -1.0940 -1.9059  1.6382
11048TIP3   OH254634   4.130   5.627  13.195 -0.2087  0.4630  0.7167
11048TIP3    H154635   4.071   5.631  13.120  0.5778 -0.0078  0.0589
11048TIP3    H254636   4.074   5.598  13.267 -0.4181 -2.1639 -0.3634
11049TIP3   OH254637   0.184   4.451   3.235  0.3438 -0.1965  0.2524
11049TIP3    H154638   0.259   4.410   3.278  0.4810  0.6300  0.8207
11049TIP3    H254639   0.119   4.460   3.305  0.0151 -0.1608 -0.0536
11050TIP3   OH254640   2.054   1.800   3.719 -0.2252  0.3280  0.3301
11050TIP3    H154641   2.136   1.788   3.671 -0.0725  0.6125  0.5233
11050TIP3    H254642   1.986   1.790   3.652 -0.1351 -1.7849  0.4633
11051TIP3   OH254643   6.182   4.113   3.858  0.1287 -0.6402  0.1719
11051TIP3    H154644   6.195   4.034   3.805  3.0911  0.3050 -0.7029
11051TIP3    H254645   6.193   4.083   3.948  0.3303 -1.3763 -0.0908
11052TIP3   OH254646   4.757   1.614  12.818  0.4057 -0.0395 -0.1744
11052TIP3    H154647   4.833   1.638  12.764  0.0566  0.7460 -0.3379
11052TIP3    H254648   4.730   1.529  12.786  1.5172 -0.5537  0.2141
11053TIP3   OH254649   6.092   2.119  12.917  0.0957  0.0447 -0.3988
11053TIP3    H154650   6.098   2.033  12.959 -0.9435 -0.1130 -0.5341
11053TIP3    H254651   6.158   2.172  12.960  1.5697 -1.1296 -1.1037
11054TIP3   OH254652   2.029   2.166  13.487 -0.1935  0.3079 -0.1777
11054TIP3    H154653   2.109   2.130  13.524 -0.4735 -0.0356  0.1031
11054TIP3    H254654   2.038   2.261  13.498 -0.6102  0.1976  1.5219
11055TIP3   OH254655   4.528   1.959   0.012 -0.4743 -0.1714  0.2688
11055TIP3    H154656   4.586   1.951   0.087 -0.9681  1.4123  0.8592
11055TIP3    H254657   4.445   1.921   0.041 -0.3534 -0.5387  0.1418
11056TIP3   OH254658   1.237   2.800   1.662 -0.2450 -0.2869  0.0260
11056TIP3    H154659   1.191   2.833   1.739 -1.3018 -0.1418 -0.6458
11056TIP3    H254660   1.329   2.794   1.689  0.4880  4.9509 -0.2935
11057TIP3   OH254661   2.468   3.839  13.608 -0.0467  1.0230  0.2247
11057TIP3    H154662   2.416   3.845  13.527 -0.0814  1.9213  0.3030
11057TIP3    H254663   2.458   3.749  13.636 -0.3216  0.7895 -0.5929
11058TIP3   OH254664   0.521   1.235  14.435 -0.3385  0.1565 -0.3328
11058TIP3    H154665   0.436   1.271  14.462 -1.3357 -2.0609 -0.3478
11058TIP3    H254666   0.539   1.165  14.497  0.9085 -0.2085 -1.0695
11059TIP3   OH254667   0.795   2.552   1.099 -0.2232 -0.3650  0.0443
11059TIP3    H154668   0.826   2.637   1.130 -0.3146 -0.2331 -0.2231
11059TIP3    H254669   0.700   2.555   1.111 -0.3382 -0.0492 -0.8803
11060TIP3   OH254670   6.601   5.519   0.638 -0.2579 -0.2389 -0.5967
11060TIP3    H154671   6.574   5.440   0.591  0.1502 -0.3176 -0.6999
11060TIP3    H254672   6.637   5.576   0.570 -1.2786  0.3705 -0.6517
11061TIP3   OH254673   1.966   0.614   2.787  0.3939 -0.3886 -0.2547
11061TIP3    H154674   2.006   0.660   2.713  0.0943  0.3682  0.0444
11061TIP3    H254675   1.879   0.652   2.795  0.5364 -0.2385  0.6809
11062TIP3   OH254676   3.685   2.658  12.756  0.2599  0.1880  0.3348
11062TIP3    H154677   3.767   2.675  12.803  1.5974 -0.3606 -1.6605
11062TIP3    H254678   3.713   2.638  12.667 -2.1406  1.0171 -0.6748
11063TIP3   OH254679   3.874   2.070   5.027 -0.1069  0.1924 -0.1412
11063TIP3    H154680   3.924   2.116   5.095  0.6229  1.5503 -1.5140
11063TIP3    H254681   3.791   2.117   5.023 -0.6509 -0.6709  0.6266
11064TIP3   OH254682   2.854   4.001  16.826  0.1393 -0.2771  0.8583
11064TIP3    H154683   2.891   3.917  16.855 -0.3185 -1.0787 -0.7746
11064TIP3    H254684   2.914   4.066  16.861  1.2013 -1.3583  1.1249
11065TIP3   OH254685   3.615   6.725  17.143 -0.7237  0.0567  0.3106
11065TIP3    H154686   3.597   6.814  17.174 -1.9249 -0.4434  1.1138
11065TIP3    H254687   3.582   6.724  17.053 -2.7515 -0.1686  0.9986
11066TIP3   OH254688   5.428   3.149   2.533 -0.1688 -0.0146 -0.4338
11066TIP3    H154689   5.483   3.100   2.471  0.5111 -0.1154  0.2446
11066TIP3    H254690   5.417   3.091   2.608 -0.3954  0.3860 -0.1501
11067TIP3   OH254691   0.937   1.810   1.667  0.0766 -0.3412 -0.1699
11067TIP3    H154692   0.917   1.718   1.684  0.2339 -0.5433 -1.0335
11067TIP3    H254693   0.999   1.834   1.736  0.8066 -1.1687 -0.5167
11068TIP3   OH254694   6.310   4.743   6.714  0.3255 -0.0880 -0.9518
11068TIP3    H154695   6.393   4.754   6.760  1.6110 -1.6962 -2.7456
11068TIP3    H254696   6.334   4.714   6.627 -2.1373 -0.3826 -1.6222
11069TIP3   OH254697   5.046   5.613  16.493  0.3982 -0.4391  0.2625
11069TIP3    H154698   5.011   5.699  16.470  0.8652  0.9560  4.1375
11069TIP3    H254699   5.129   5.608  16.446 -0.1769  0.6473 -0.9419
11070TIP3   OH254700   4.971   3.936  15.966 -0.0630 -0.2756 -0.2987
11070TIP3    H154701   4.894   3.902  16.012 -0.4129 -1.6328 -1.7932
11070TIP3    H254702   4.935   3.981  15.889  0.5184  1.6857  0.5170
11071TIP3   OH254703   1.449   5.251  16.301  0.1717 -0.1792 -0.0123
11071TIP3    H154704   1.375   5.242  16.361  0.7490 -0.8525  0.6237
11071TIP3    H254705   1.409   5.259  16.215 -0.6461 -0.6872  0.3034
11072TIP3   OH254706   5.434   5.091   0.274 -0.1548 -0.6129 -0.0966
11072TIP3    H154707   5.363   5.145   0.240 -1.2592 -1.5886  0.5678
11072TIP3    H254708   5.429   5.009   0.224 -0.5352 -1.2925  1.0114
11073TIP3   OH254709   3.983   5.168   0.930  0.0045  0.1618 -0.3258
11073TIP3    H154710   3.932   5.232   0.880 -0.6673 -0.3465 -0.2965
11073TIP3    H254711   4.065   5.214   0.950 -0.5617  1.1009 -0.0916
11074TIP3   OH254712   0.765   2.322   3.976  0.4683 -0.4256 -0.4370
11074TIP3    H154713   0.749   2.284   4.062  2.3547 -0.9605 -0.2974
11074TIP3    H254714   0.856   2.302   3.956  0.2736  0.2746 -2.2767
11075TIP3   OH254715   3.907   1.648   5.333  0.2012 -0.3517 -0.2406
11075TIP3    H154716   3.855   1.727   5.319 -0.6180 -0.9742 -0.8100
11075TIP3    H254717   3.981   1.677   5.386 -0.4967  0.6406  0.2221
11076TIP3   OH254718   4.102   5.295  13.243  0.2809  0.4483  0.0580
11076TIP3    H154719   4.186   5.288  13.289  0.0176 -0.1401  0.4522
11076TIP3    H254720   4.126   5.321  13.154  0.8280  1.0978  0.3809
11077TIP3   OH254721   0.281   6.144   4.869 -0.5600  0.2756 -0.1686
11077TIP3    H154722   0.195   6.172   4.901  0.3103  0.8851  1.7524
11077TIP3    H254723   0.280   6.049   4.879 -1.4752  0.1303 -1.4267
11078TIP3   OH254724   0.566   1.425  12.214 -0.1154  0.3479 -0.1751
11078TIP3    H154725   0.500   1.392  12.154  1.0948  0.7760 -1.8154
11078TIP3    H254726   0.648   1.418  12.166  0.7383  1.9010  0.9553
11079TIP3   OH254727   5.890   1.048  16.260  0.3339 -0.2975  0.5431
11079TIP3    H154728   5.985   1.051  16.249  0.3537 -0.7255  0.5798
11079TIP3    H254729   5.856   1.103  16.189  0.5938 -0.4014  0.3347
11080TIP3   OH254730   2.281   2.857  12.476 -0.1471  0.0918  0.0812
11080TIP3    H154731   2.266   2.880  12.567  0.9820 -0.3971  0.4090
11080TIP3    H254732   2.359   2.802  12.477 -0.9922 -1.2144 -1.0128
11081TIP3   OH254733   1.815   5.579  16.490 -0.1076 -0.0255  0.3958
11081TIP3    H154734   1.732   5.571  16.442 -0.5705 -0.1584  1.1883
11081TIP3    H254735   1.880   5.538  16.434 -0.1190  2.0906 -1.3214
11082TIP3   OH254736   1.421   3.331   2.124 -0.0204 -0.0803 -0.4728
11082TIP3    H154737   1.472   3.348   2.045 -0.7262 -1.5713 -1.2929
11082TIP3    H254738   1.483   3.287   2.183  0.2694  0.2434 -0.5303
11083TIP3   OH254739   0.227   3.222   6.680  0.2745 -0.3576  1.0566
11083TIP3    H154740   0.270   3.259   6.602  1.1321 -0.4932  1.4593
11083TIP3    H254741   0.207   3.132   6.656  0.4946 -0.3859  0.9787
11084TIP3   OH254742   6.671   3.006   4.705  0.2239  0.2122  0.3869
11084TIP3    H154743   6.661   2.998   4.610  1.8228  0.9453  0.1204
11084TIP3    H254744   6.608   2.944   4.741  0.9003 -1.5020 -1.2038
11085TIP3   OH254745   1.040   5.507  12.737 -0.0720 -0.0459  0.0148
11085TIP3    H154746   1.049   5.499  12.642  1.1203  0.4566  0.0736
11085TIP3    H254747   0.960   5.457  12.757 -1.2476  1.1581 -1.4279
11086TIP3   OH254748   1.023   1.939   4.064  0.0780 -1.0100 -0.2254
11086TIP3    H154749   1.029   1.992   4.144  0.0309 -0.4820 -0.5660
11086TIP3    H254750   1.104   1.959   4.017 -0.2524 -0.7166 -0.6733
11087TIP3   OH254751   6.813   1.723  11.237  0.0712 -0.2863  0.1082
11087TIP3    H154752   6.841   1.767  11.157 -1.1384  0.4404  0.0616
11087TIP3    H254753   6.740   1.667  11.210 -0.0212 -0.4129  0.6072
11088TIP3   OH254754   1.519   3.852   2.905  0.1899 -0.2192  0.2325
11088TIP3    H154755   1.539   3.768   2.948  0.1747  0.1517  0.9845
11088TIP3    H254756   1.429   3.870   2.929  0.3767  0.2987  0.5693
11089TIP3   OH254757   1.709   3.416  12.433 -0.9748 -0.6011 -0.0565
11089TIP3    H154758   1.639   3.452  12.378 -0.8625  0.9133  0.7379
11089TIP3    H254759   1.669   3.342  12.477 -2.5814  1.0806  1.4721
11090TIP3   OH254760   3.507   1.077   0.046 -0.1029 -0.6110  0.3733
11090TIP3    H154761   3.588   1.072  -0.006 -0.7889  0.1665 -0.8234
11090TIP3    H254762   3.493   0.988   0.077 -0.5421 -1.5342 -2.1832
11091TIP3   OH254763   6.824   1.880   3.678 -0.2085  0.9603  0.6078
11091TIP3    H154764   6.745   1.853   3.631  0.3824  2.3226 -1.2721
11091TIP3    H254765   6.792   1.936   3.748 -0.9051  4.0380 -1.9236
11092TIP3   OH254766   0.281   5.755   5.757  0.6696 -0.1383  0.0100
11092TIP3    H154767   0.259   5.707   5.837 -0.1087  1.9166  1.1223
11092TIP3    H254768   0.369   5.726   5.734  0.7555 -1.0576  1.3869
11093TIP3   OH254769   4.543   2.366  12.926 -0.8584 -0.5407  0.4373
11093TIP3    H154770   4.624   2.368  12.977 -2.1102 -1.1842  2.6131
11093TIP3    H254771   4.526   2.458  12.903 -0.6504 -0.1013  1.9357
11094TIP3   OH254772   2.197   6.624   6.131 -0.1469  0.0236  0.5083
11094TIP3    H154773   2.194   6.577   6.215  0.2531 -1.1966 -0.1330
11094TIP3    H254774   2.181   6.557   6.065 -0.4360  0.9645 -0.4106
11095TIP3   OH254775   4.950   0.630   6.183 -0.3456  0.6848  0.2276
11095TIP3    H154776   5.017   0.567   6.209  1.1319  1.3579 -1.6392
11095TIP3    H254777   4.881   0.577   6.142  0.9084  0.2184 -1.3865
11096TIP3   OH254778   4.578   5.261  13.903 -0.9195  0.1032  0.2456
11096TIP3    H154779   4.570   5.166  13.898  0.0563 -0.0125  0.6672
11096TIP3    H254780   4.501   5.294  13.856 -1.4067 -0.8868  0.3126
11097TIP3   OH254781   3.978   0.312   5.597 -0.0676  0.4076 -0.1667
11097TIP3    H154782   3.949   0.292   5.686 -0.6328 -0.7035 -0.5868
11097TIP3    H254783   3.989   0.227   5.556  3.4981  0.7199 -0.1755
11098TIP3   OH254784   6.262   0.962   1.731 -1.2215  0.8732 -0.7665
11098TIP3    H154785   6.232   1.038   1.780 -0.0617  0.4105  0.7422
11098TIP3    H254786   6.199   0.893   1.751 -0.9500  0.7874 -0.1837
11099TIP3   OH254787   4.043   4.702   2.699  0.1632  0.0146 -0.0199
11099TIP3    H154788   3.974   4.769   2.697 -0.3960 -0.5664 -0.6656
11099TIP3    H254789   4.119   4.746   2.663  0.2859  0.8091  1.1323
11100TIP3   OH254790   6.150   3.274   3.050 -0.3981 -0.3335 -0.5027
11100TIP3    H154791   6.183   3.213   2.985 -0.1313 -0.1618 -0.5317
11100TIP3    H254792   6.173   3.361   3.016  1.0388 -0.2853  0.5005
11101TIP3   OH254793   2.494   4.044   1.979 -0.2397  0.2949  0.8846
11101TIP3    H154794   2.551   4.092   2.039 -0.9530 -0.4945  2.2268
11101TIP3    H254795   2.513   4.082   1.893  2.2990  0.0690  1.2566
11102TIP3   OH254796   5.248   1.234  12.272  0.4924  0.5615  0.1126
11102TIP3    H154797   5.316   1.184  12.316 -0.4011 -0.2055  0.6464
11102TIP3    H254798   5.221   1.300  12.337 -0.8300 -0.5740  0.7613
11103TIP3   OH254799   6.684   6.224   5.205  0.4570 -0.1730  0.0035
11103TIP3    H154800   6.691   6.190   5.294  0.1802  1.0205  0.5053
11103TIP3    H254801   6.619   6.168   5.163 -1.0474  0.5781  1.2413
11104TIP3   OH254802   4.986   1.208   1.282 -0.0168  0.1663  0.5585
11104TIP3    H154803   5.054   1.269   1.255 -2.0943  1.7493 -1.5052
11104TIP3    H254804   5.009   1.126   1.239  0.6491  0.6483 -0.0371
11105TIP3   OH254805   4.021   1.080   3.530 -1.1467  0.3302  0.5035
11105TIP3    H154806   3.931   1.091   3.561 -0.9752  2.0543  0.4936
11105TIP3    H254807   4.072   1.142   3.581  0.1230 -0.8630  0.7503
11106TIP3   OH254808   3.923   5.625   3.646  0.2702 -0.0408 -0.3727
11106TIP3    H154809   3.874   5.591   3.721 -1.0335  0.5586 -0.9354
11106TIP3    H254810   3.931   5.719   3.662 -2.1831  0.5706 -2.0888
11107TIP3   OH254811   1.762   3.548  11.952  0.4586 -0.3382 -0.2775
11107TIP3    H154812   1.723   3.469  11.991 -0.1491 -0.2418 -0.6800
11107TIP3    H254813   1.855   3.526  11.943  0.2764 -1.0698 -0.5102
11108TIP3   OH254814   0.068   2.172  11.262 -0.0196 -0.4905 -0.6181
11108TIP3    H154815   0.126   2.193  11.190 -3.3146  1.3214 -3.0144
11108TIP3    H254816  -0.014   2.143  11.220 -1.7352 -0.4947  2.4009
11109TIP3   OH254817   4.017   6.447  16.494  0.5170 -0.5368  0.2507
11109TIP3    H154818   3.936   6.404  16.464 -0.0538 -0.9288  2.1814
11109TIP3    H254819   4.084   6.416  16.434 -1.1700  2.2863 -3.4799
11110TIP3   OH254820   0.752   2.481  11.372 -0.3651 -0.1477 -0.0024
11110TIP3    H154821   0.739   2.518  11.285 -0.3372 -3.0493 -1.3554
11110TIP3    H254822   0.672   2.504  11.420 -0.0189  2.2057 -0.4378
11111TIP3   OH254823   0.519   1.209  11.754 -0.4204  0.8229 -0.6057
11111TIP3    H154824   0.469   1.130  11.776  0.3372  0.1801 -1.1153
11111TIP3    H254825   0.454   1.278  11.745 -1.2441 -0.0553 -1.5523
11112TIP3   OH254826   0.825   0.085  16.685 -0.3095 -0.0787  0.6058
11112TIP3    H154827   0.738   0.044  16.684  0.0226 -0.7768 -0.2370
11112TIP3    H254828   0.883   0.019  16.647  0.7579  0.0365  1.9851
11113TIP3   OH254829   0.506   5.618   0.234  0.1907 -1.0897  0.4163
11113TIP3    H154830   0.458   5.537   0.220  0.4324 -1.3792  1.2454
11113TIP3    H254831   0.489   5.669   0.154 -1.9892 -0.9183  0.9143
11114TIP3   OH254832   3.191   4.870   1.215  0.5130 -0.0244  0.0490
11114TIP3    H154833   3.118   4.885   1.276  2.0056  0.6201  1.7636
11114TIP3    H254834   3.220   4.958   1.191 -0.8552 -0.2252 -2.7329
11115TIP3   OH254835   0.623   1.720  11.563  0.0588  0.0427 -0.6132
11115TIP3    H154836   0.609   1.626  11.574 -0.2748 -0.0024 -1.3121
11115TIP3    H254837   0.604   1.758  11.648  1.0996 -0.6136 -0.0670
11116TIP3   OH254838   4.314   6.752  13.749 -0.6023 -0.0159  0.6675
11116TIP3    H154839   4.366   6.686  13.703 -1.6609 -0.7032  0.4008
11116TIP3    H254840   4.349   6.836  13.718  0.2591 -0.4540  0.4225
11117TIP3   OH254841   0.104   5.411   2.075 -0.4153 -0.0676 -1.1319
11117TIP3    H154842   0.083   5.445   1.988  1.9028  1.3336 -1.2319
11117TIP3    H254843   0.182   5.358   2.062 -1.2379 -1.5834 -0.1819
11118TIP3   OH254844   3.617   6.827  12.044 -0.2258 -0.3242 -0.5808
11118TIP3    H154845   3.549   6.836  11.978 -0.0052 -0.3978 -0.8197
11118TIP3    H254846   3.597   6.894  12.110 -1.1216 -1.0229 -0.1241
11119TIP3   OH254847   4.338   1.828   1.736  0.3464  0.4912  0.0658
11119TIP3    H154848   4.315   1.867   1.652  0.9314  2.5064  0.7986
11119TIP3    H254849   4.424   1.789   1.722 -0.2061 -0.5230 -0.6496
11120TIP3   OH254850   4.422   1.601   1.164 -0.1054 -0.1509  0.2810
11120TIP3    H154851   4.376   1.520   1.188  2.2903 -1.6433  0.1377
11120TIP3    H254852   4.444   1.641   1.248  3.0779 -2.3449  0.6885
11121TIP3   OH254853   0.053   5.603  13.836 -0.1706 -0.7027 -0.1553
11121TIP3    H154854   0.042   5.623  13.929 -0.6438  0.1503 -0.3897
11121TIP3    H254855   0.052   5.507  13.833  0.1759 -0.7505  0.7524
11122TIP3   OH254856   4.398   4.152   2.068 -0.1208 -0.5518  0.2673
11122TIP3    H154857   4.469   4.087   2.065 -1.3319 -1.9159  0.5033
11122TIP3    H254858   4.371   4.153   2.159  0.3398  0.8229  0.4066
11123TIP3   OH254859   1.203   1.651  11.452 -0.5097  0.4255 -0.2007
11123TIP3    H154860   1.137   1.606  11.504 -1.1865  0.6511 -0.8535
11123TIP3    H254861   1.286   1.622  11.489 -0.9517 -0.5830  0.0319
11124TIP3   OH254862   0.986   6.623  12.078  0.3170 -0.3610  0.8128
11124TIP3    H154863   1.032   6.705  12.097 -0.9303  0.0462  2.2586
11124TIP3    H254864   1.038   6.582  12.009  1.9545  0.8129  1.2793
11125TIP3   OH254865   5.048   0.992  12.399 -0.2895 -0.5407 -0.0891
11125TIP3    H154866   4.953   0.979  12.390 -0.3715 -0.5396  0.7515
11125TIP3    H254867   5.057   1.071  12.451  0.1843 -0.4826 -0.2518
11126TIP3   OH254868   2.354   6.354   1.774 -0.3930 -0.5502  0.2892
11126TIP3    H154869   2.279   6.348   1.715 -0.3823 -2.5372  0.4263
11126TIP3    H254870   2.321   6.323   1.859  0.2468 -0.1365  0.6979
11127TIP3   OH254871   0.183   0.324  14.677 -0.1271 -0.4246  0.5228
11127TIP3    H154872   0.204   0.395  14.616  0.2033 -0.2002  0.8940
11127TIP3    H254873   0.224   0.350  14.759 -0.1243 -0.9792  0.7016
11128TIP3   OH254874   4.136   4.728   3.067 -0.7839  0.2209 -0.5130
11128TIP3    H154875   4.100   4.815   3.048 -1.0422  0.4789  1.0072
11128TIP3    H254876   4.215   4.723   3.015  0.2058  2.1088  0.6675
11129TIP3   OH254877   5.960   6.553   0.416  0.0969  0.0961 -0.3091
11129TIP3    H154878   5.966   6.596   0.331  2.8001 -0.7956 -0.6327
11129TIP3    H254879   6.000   6.615   0.477 -2.4647  1.0600  0.5721
11130TIP3   OH254880   5.255   1.400   4.305 -0.0882 -0.3333 -0.4879
11130TIP3    H154881   5.189   1.336   4.277 -0.1317 -0.9859  0.9824
11130TIP3    H254882   5.213   1.448   4.376  1.0841 -0.9577  0.6788
11131TIP3   OH254883   3.328   1.929  11.314 -0.1008  0.5128 -0.2625
11131TIP3    H154884   3.244   1.975  11.310 -1.3395 -1.5080  0.7490
11131TIP3    H254885   3.332   1.881  11.231  1.4332  2.6797 -1.5504
11132TIP3   OH254886   6.110   6.437   5.582  0.6802  0.5742 -0.3006
11132TIP3    H154887   6.135   6.393   5.663  2.2910  0.8783 -0.5856
11132TIP3    H254888   6.056   6.374   5.535 -0.7210  0.5957  1.2129
11133TIP3   OH254889   3.385   2.832   5.291  0.1620 -0.1345  0.6184
11133TIP3    H154890   3.358   2.913   5.334  0.3685  0.2304  0.0686
11133TIP3    H254891   3.474   2.850   5.260 -0.2970 -0.0976 -0.7045
11134TIP3   OH254892   4.648   3.822   3.164 -0.2250 -0.1721 -0.3664
11134TIP3    H154893   4.683   3.788   3.247 -0.8248 -2.7264 -1.0580
11134TIP3    H254894   4.726   3.836   3.110  0.0747 -0.0906  0.0734
11135TIP3   OH254895   1.921   0.214  15.646  0.2660  0.9448  0.0020
11135TIP3    H154896   1.851   0.278  15.655  1.0234  2.1335 -1.8767
11135TIP3    H254897   1.999   0.257  15.682  0.2564 -0.0551  1.3310
11136TIP3   OH254898   6.333   6.595   5.651 -0.0483 -0.1920 -0.5616
11136TIP3    H154899   6.262   6.541   5.687 -1.3660  1.4045 -0.6513
11136TIP3    H254900   6.356   6.552   5.569 -0.6059 -0.9682 -0.3273
11137TIP3   OH254901   0.894   3.072  13.817  0.8204  0.1571  0.1719
11137TIP3    H154902   0.888   2.996  13.875 -0.2019  0.2150  0.1524
11137TIP3    H254903   0.986   3.099  13.823  1.3815 -1.4826 -0.3250
11138TIP3   OH254904   5.421   5.189   4.567  0.2971  0.0681  0.0222
11138TIP3    H154905   5.503   5.237   4.559 -0.3377  0.9367 -2.0515
11138TIP3    H254906   5.439   5.103   4.528  0.4740 -0.0827  0.4359
11139TIP3   OH254907   4.475   5.309  12.241 -0.3008  0.6128 -0.1850
11139TIP3    H154908   4.529   5.362  12.301 -1.1681  1.8181 -0.4257
11139TIP3    H254909   4.390   5.304  12.285  0.1262 -1.8057  0.4912
11140TIP3   OH254910   6.675   6.082   1.819  0.2438  0.0924  0.2719
11140TIP3    H154911   6.621   6.142   1.871 -0.9046 -1.0120  0.4185
11140TIP3    H254912   6.612   6.022   1.779  1.3489 -1.1187  0.2712
11141TIP3   OH254913   6.304   0.887  16.339  0.3423 -0.2462 -0.3936
11141TIP3    H154914   6.211   0.901  16.360  0.3716  0.6360 -0.7998
11141TIP3    H254915   6.349   0.955  16.389  0.9730 -1.8173  1.2920
11142TIP3   OH254916   3.807   0.305   0.170  0.2328  0.7718 -0.0199
11142TIP3    H154917   3.738   0.263   0.119 -0.9628  0.1355  2.0066
11142TIP3    H254918   3.797   0.398   0.150 -0.0217  0.5254 -1.1268
11143TIP3   OH254919   4.039   5.621  14.158  0.2373  0.3080 -0.1896
11143TIP3    H154920   4.050   5.696  14.218  0.2819  0.0688  0.1044
11143TIP3    H254921   3.957   5.581  14.186  0.4534 -0.0320 -0.0430
11144TIP3   OH254922   6.827   5.088  12.753  0.1046  0.2667  0.2536
11144TIP3    H154923   6.897   5.130  12.802  1.3093 -0.8585 -0.4691
11144TIP3    H254924   6.748   5.104  12.806  0.6168  2.7149  0.4101
11145TIP3   OH254925   3.117   1.324   6.172 -0.5000 -0.1060  0.2727
11145TIP3    H154926   3.166   1.396   6.133  1.4717 -1.2834  0.4639
11145TIP3    H254927   3.173   1.293   6.243 -2.0604 -0.7863  1.2614
11146TIP3   OH254928   1.422   3.660  16.129  0.3900  0.4698 -0.1969
11146TIP3    H154929   1.372   3.706  16.196  0.0509 -0.5517  0.2646
11146TIP3    H254930   1.449   3.729  16.069  0.1278  1.3152  0.6195
11147TIP3   OH254931   2.540   0.257  17.155  0.4842  0.4476 -0.1507
11147TIP3    H154932   2.571   0.306  17.232  0.1554  1.0960 -0.4206
11147TIP3    H254933   2.516   0.325  17.092 -1.8580  0.0212  0.1935
11148TIP3   OH254934   3.556   6.778   0.796  0.1773 -0.4293  0.4765
11148TIP3    H154935   3.560   6.789   0.701 -1.2059 -0.0641  0.4357
11148TIP3    H254936   3.599   6.694   0.812  0.2418 -0.5938 -0.4917
11149TIP3   OH254937   3.380   1.427   1.957  0.1202 -0.5389 -0.2877
11149TIP3    H154938   3.329   1.445   1.878 -4.5434 -0.5469  2.3349
11149TIP3    H254939   3.416   1.511   1.982 -1.5073  0.2839 -0.5576
11150TIP3   OH254940   4.046   5.431   1.833 -0.5436 -0.3261 -0.2580
11150TIP3    H154941   4.137   5.456   1.819 -0.6189 -0.8778 -1.9614
11150TIP3    H254942   4.002   5.511   1.862  0.1564  0.3292 -1.0113
11151TIP3   OH254943   5.291   6.197  16.360  0.0623 -0.5825  0.1964
11151TIP3    H154944   5.335   6.248  16.428 -2.5508  0.6518  1.1181
11151TIP3    H254945   5.275   6.112  16.401  0.4734 -0.6144  0.2986
11152TIP3   OH254946   4.674   4.889  11.969 -0.6462 -0.7715  0.2122
11152TIP3    H154947   4.713   4.974  11.987 -1.6738  0.0500 -1.2418
11152TIP3    H254948   4.722   4.856  11.892  0.3270 -1.9410  1.2666
11153TIP3   OH254949   4.230   6.133  13.117  0.1407  0.0495  0.4526
11153TIP3    H154950   4.256   6.079  13.191 -0.4431  1.3048  1.6237
11153TIP3    H254951   4.313   6.164  13.079  0.5397 -2.4168 -0.9076
11154TIP3   OH254952   3.370   6.463   0.730  0.1869 -0.4065  0.3302
11154TIP3    H154953   3.445   6.520   0.716 -0.2898  0.2499  0.3869
11154TIP3    H254954   3.403   6.374   0.715  1.3028 -0.2414  1.6475
11155TIP3   OH254955   0.412   2.457   3.110 -0.5561  0.3918  0.1859
11155TIP3    H154956   0.412   2.428   3.202  0.5940 -1.9858 -0.4771
11155TIP3    H254957   0.324   2.439   3.079 -0.9126  1.0799  0.7651
11156TIP3   OH254958   2.893   3.166   0.463 -0.0559 -0.3589 -0.1611
11156TIP3    H154959   2.829   3.095   0.462 -1.3082  0.7285  0.5992
11156TIP3    H254960   2.863   3.225   0.532  1.1389  0.7710 -0.5681
11157TIP3   OH254961   0.392   3.486   6.416 -0.2196 -0.1449  0.1037
11157TIP3    H154962   0.326   3.549   6.445 -0.5107 -0.5106  0.2507
11157TIP3    H254963   0.442   3.465   6.495 -0.1599 -0.1433  0.0663
11158TIP3   OH254964   5.306   5.993  12.491 -0.5801 -0.6686  0.0835
11158TIP3    H154965   5.366   6.012  12.419 -0.3133  0.3769  0.5630
11158TIP3    H254966   5.219   5.994  12.451 -0.3548 -1.2908 -0.4416
11159TIP3   OH254967   2.221   2.870  12.112 -0.1628 -0.3070  0.5772
11159TIP3    H154968   2.182   2.914  12.036  1.7706 -0.2344 -0.4398
11159TIP3    H254969   2.245   2.942  12.171  0.7219 -0.1377  0.0373
11160TIP3   OH254970   4.824   3.992   1.831  0.0358  0.2189  0.3374
11160TIP3    H154971   4.757   4.061   1.826 -0.8297 -0.6487 -0.2588
11160TIP3    H254972   4.888   4.016   1.765 -0.1556  0.5608  0.2738
11161TIP3   OH254973   5.092   3.104  15.025 -0.3495  0.4084  0.0220
11161TIP3    H154974   5.115   3.075  14.937  0.9997 -3.1682  1.3831
11161TIP3    H254975   4.998   3.083  15.033 -0.0391 -1.0881  0.0147
11162TIP3   OH254976   5.533   6.482   5.734 -0.3296 -0.2272 -0.3157
11162TIP3    H154977   5.616   6.512   5.697 -0.8921  0.8539 -0.7611
11162TIP3    H254978   5.514   6.546   5.803 -1.1003 -0.0706 -0.6614
11163TIP3   OH254979   0.857   6.798   3.591 -0.3315  0.6330 -0.4170
11163TIP3    H154980   0.944   6.781   3.625 -0.8963  0.2375  0.8904
11163TIP3    H254981   0.869   6.808   3.497  1.2918  1.7226 -0.1408
11164TIP3   OH254982   1.626   2.719  14.668  0.1987  0.5169  0.1083
11164TIP3    H154983   1.652   2.735  14.759  3.1543 -2.8862  0.0628
11164TIP3    H254984   1.575   2.639  14.671 -0.6993  1.0035 -1.1727
11165TIP3   OH254985   3.796   4.492   5.024 -0.9638 -0.0588  0.0822
11165TIP3    H154986   3.762   4.532   5.104  0.4190 -0.8007  1.0890
11165TIP3    H254987   3.743   4.414   5.011 -1.6117  0.4057 -0.0996
11166TIP3   OH254988   0.236   4.858  13.969  0.0439  0.3014 -0.4120
11166TIP3    H154989   0.156   4.846  13.917 -0.0955  0.7233 -0.3003
11166TIP3    H254990   0.204   4.875  14.058  0.2447  0.8717 -0.4462
11167TIP3   OH254991   2.427   3.303  11.740 -0.4906  0.3066  0.4456
11167TIP3    H154992   2.492   3.299  11.670 -2.5557 -0.2940 -1.5624
11167TIP3    H254993   2.456   3.238  11.804  1.1959  0.5069 -0.0870
11168TIP3   OH254994   2.018   3.569   2.338 -0.1092  0.0409 -0.0113
11168TIP3    H154995   2.063   3.485   2.323 -1.0735 -0.4642 -0.1698
11168TIP3    H254996   1.933   3.544   2.374 -0.7038  0.9080 -0.7710
11169TIP3   OH254997   0.315   3.413  12.670 -0.0734 -0.4733 -0.1020
11169TIP3    H154998   0.354   3.463  12.598  0.2855 -1.0623 -0.3312
11169TIP3    H254999   0.241   3.466  12.699  0.6934  0.5155  0.1242
11170TIP3   OH255000   1.069   1.974  17.192 -0.1588  0.0076 -0.1844
11170TIP3    H155001   0.999   1.911  17.209  0.5757 -1.2709 -1.6910
11170TIP3    H255002   1.138   1.949  17.254  0.6874 -1.6529 -1.7053
11171TIP3   OH255003   5.840   0.621   4.055 -0.1398 -0.3263 -0.4651
11171TIP3    H155004   5.924   0.628   4.101 -0.0396 -0.7856 -0.5774
11171TIP3    H255005   5.863   0.608   3.963 -0.3293 -0.8633 -0.4400
11172TIP3   OH255006   3.040   6.702  13.003 -0.6648  0.0701 -0.4071
11172TIP3    H155007   3.008   6.765  12.939 -3.0504  0.3687  0.9275
11172TIP3    H255008   2.967   6.692  13.065  0.3912 -2.4522  0.5882
11173TIP3   OH255009   6.237   0.593   5.120 -0.1575 -0.2204  0.2568
11173TIP3    H155010   6.262   0.525   5.183  0.4847  0.9299  1.2765
11173TIP3    H255011   6.149   0.620   5.148  1.0794  2.0556  2.3223
11174TIP3   OH255012   0.709   6.723  12.061 -0.0396  0.1889  0.1245
11174TIP3    H155013   0.802   6.701  12.064 -0.2328 -0.8398 -0.7092
11174TIP3    H255014   0.664   6.646  12.095 -0.6116  0.4276 -0.0686
11175TIP3   OH255015   5.724   1.031   0.363  0.1167 -0.6480  0.6707
11175TIP3    H155016   5.713   1.102   0.427 -1.0562  0.6827 -0.9158
11175TIP3    H255017   5.649   1.039   0.306  0.9248 -2.0527 -0.6451
11176TIP3   OH255018   0.834   3.632  16.655  0.3455 -0.0536  0.0408
11176TIP3    H155019   0.815   3.571  16.583  1.0315 -0.1134 -0.0923
11176TIP3    H255020   0.867   3.710  16.612 -1.5365  0.8603  0.1243
11177TIP3   OH255021   6.234   2.828   1.500 -0.2303 -0.0805  0.5718
11177TIP3    H155022   6.262   2.744   1.466 -2.1365 -0.2331 -0.7470
11177TIP3    H255023   6.141   2.817   1.520 -0.6188  1.7767  0.0469
11178TIP3   OH255024   4.102   1.873  15.848  0.0263  0.0561  0.5982
11178TIP3    H155025   4.186   1.869  15.892  0.5354  3.3005  0.1786
11178TIP3    H255026   4.050   1.934  15.901 -0.6028  1.2056 -1.2464
11179TIP3   OH255027   0.986   0.313  12.777 -0.2789 -0.2528 -0.2974
11179TIP3    H155028   0.927   0.239  12.768  0.4161 -1.0094  1.0493
11179TIP3    H255029   1.072   0.278  12.753 -0.2057  0.6160 -1.4116
11180TIP3   OH255030   0.370   2.779  11.397 -0.7683 -0.1742 -0.2757
11180TIP3    H155031   0.372   2.802  11.490  0.2653  0.6926 -0.4924
11180TIP3    H255032   0.287   2.814  11.366 -1.3323 -0.8675  0.4049
11181TIP3   OH255033   5.785   2.839   1.208 -0.3105 -0.0067  0.2616
11181TIP3    H155034   5.698   2.876   1.225 -0.0853  0.5590  0.2238
11181TIP3    H255035   5.837   2.913   1.176  0.5210 -0.0462  1.4482
11182TIP3   OH255036   4.224   4.719   5.060  0.2331  0.0280 -0.4411
11182TIP3    H155037   4.186   4.778   5.124 -0.0762  0.0556 -0.6475
11182TIP3    H255038   4.231   4.772   4.980  0.9577  0.1075 -0.3370
11183TIP3   OH255039   1.175   4.782  12.720  0.2934 -0.1268 -0.4212
11183TIP3    H155040   1.152   4.850  12.657  2.0565  0.9048 -0.0023
11183TIP3    H255041   1.228   4.826  12.786  1.4640 -1.8704 -0.1117
11184TIP3   OH255042   4.215   3.515   1.111  0.0977  0.3059  0.1687
11184TIP3    H155043   4.203   3.596   1.160 -1.6686  0.6499 -0.7231
11184TIP3    H255044   4.126   3.479   1.103  0.5985 -0.7260 -1.0869
11185TIP3   OH255045   1.580   6.429   3.366  0.7908  0.0199  0.1469
11185TIP3    H155046   1.526   6.356   3.333  0.3084 -0.1161  1.2040
11185TIP3    H255047   1.588   6.488   3.291 -0.0210 -0.4253 -0.3088
11186TIP3   OH255048   0.705   2.914   5.830 -0.4864  1.0457  0.6780
11186TIP3    H155049   0.723   2.943   5.919 -1.8660 -0.0589  1.3534
11186TIP3    H255050   0.791   2.894   5.793  0.0297  0.2640  2.2220
11187TIP3   OH255051   2.942   5.779  14.696 -0.0360 -0.2588  0.2891
11187TIP3    H155052   3.035   5.760  14.703  0.0035 -0.8093 -1.1997
11187TIP3    H255053   2.900   5.693  14.699 -0.3167 -0.1858 -0.9595
11188TIP3   OH255054   3.705   1.470  16.250  0.5885  0.2835  0.2145
11188TIP3    H155055   3.624   1.428  16.219  0.8439 -1.5483  1.8076
11188TIP3    H255056   3.742   1.512  16.173  0.1654 -2.2941 -1.5016
11189TIP3   OH255057   3.373   6.781   3.012  0.0639  0.1226 -0.4251
11189TIP3    H155058   3.456   6.788   2.965  0.2285  0.5709 -0.0801
11189TIP3    H255059   3.340   6.694   2.990  0.8375 -0.2292 -0.2261
11190TIP3   OH255060   2.007   4.717  13.488  0.9258  0.2960  0.4031
11190TIP3    H155061   2.040   4.632  13.458 -1.8269 -0.6235 -0.2333
11190TIP3    H255062   2.082   4.756  13.534  3.0250 -1.3957 -1.3365
11191TIP3   OH255063   2.262   4.671  12.022 -0.4512 -0.2765  0.0380
11191TIP3    H155064   2.256   4.761  12.055 -1.3845 -0.8865  1.6341
11191TIP3    H255065   2.241   4.679  11.928 -1.1993  1.0798  0.2885
11192TIP3   OH255066   4.696   0.309  10.893  0.7253  0.6233  0.0572
11192TIP3    H155067   4.617   0.326  10.943  0.9628 -0.1097  0.7114
11192TIP3    H255068   4.670   0.242  10.829  1.1322 -0.6371  1.1807
11193TIP3   OH255069   3.812   3.230  13.830 -0.3223 -0.6281 -0.1997
11193TIP3    H155070   3.893   3.246  13.877 -0.9047 -1.8645  1.3002
11193TIP3    H255071   3.797   3.136  13.839 -2.5072 -0.2630  0.6023
11194TIP3   OH255072   3.893   1.930  16.969  0.5320  0.4785  0.2750
11194TIP3    H155073   3.911   2.000  17.032  2.5297  0.1205  0.1564
11194TIP3    H255074   3.966   1.870  16.978 -1.1004 -1.5992  0.3028
11195TIP3   OH255075   1.562   1.273  14.100  0.2263  0.2764 -0.1080
11195TIP3    H155076   1.583   1.251  14.009  1.1620  1.0844 -0.1070
11195TIP3    H255077   1.619   1.217  14.152 -1.0695 -0.9679  0.0376
11196TIP3   OH255078   4.320   3.332   3.448  0.1180  0.1038  0.3614
11196TIP3    H155079   4.246   3.321   3.508 -1.0785  1.4355 -0.8203
11196TIP3    H255080   4.307   3.264   3.381 -0.6176  0.9521 -0.3827
11197TIP3   OH255081   1.050   0.401  13.739 -0.0097  0.0708 -0.3949
11197TIP3    H155082   1.080   0.394  13.829 -0.9022 -0.2861 -0.1096
11197TIP3    H255083   0.971   0.346  13.736 -0.8118  1.2037 -1.0074
11198TIP3   OH255084   2.555   6.132  15.948 -0.2630 -0.0081 -0.4365
11198TIP3    H155085   2.467   6.154  15.976 -0.5543 -0.6298 -0.8489
11198TIP3    H255086   2.596   6.216  15.927 -0.5209  0.3370  0.4318
11199TIP3   OH255087   0.625   1.637   2.493  0.0569 -0.0962 -0.4900
11199TIP3    H155088   0.636   1.618   2.586  0.6334  2.2562 -0.0199
11199TIP3    H255089   0.606   1.552   2.453 -1.1056 -1.0380  1.8827
11200TIP3   OH255090   5.245   6.342   3.611 -0.1255  0.0226 -0.2260
11200TIP3    H155091   5.173   6.315   3.554 -1.1938  1.4590  0.3815
11200TIP3    H255092   5.324   6.319   3.562 -0.9814 -1.3461 -1.0251
11201TIP3   OH255093   2.068   3.526  12.698 -0.2951  0.2806 -0.3461
11201TIP3    H155094   2.038   3.586  12.630  0.6971  0.6204 -0.5143
11201TIP3    H255095   2.006   3.537  12.770 -1.2558  0.0498 -1.1205
11202TIP3   OH255096   4.818   2.424  16.462  0.1480 -0.4333  0.2284
11202TIP3    H155097   4.883   2.358  16.484  0.6790 -0.1763 -0.5434
11202TIP3    H255098   4.851   2.465  16.382 -1.7971 -1.4607 -1.1959
11203TIP3   OH255099   1.046   0.016   1.771 -0.1314  0.0588  0.2521
11203TIP3    H155100   0.958  -0.007   1.803  0.0461  0.1907  0.8444
11203TIP3    H255101   1.042   0.000   1.677 -1.1581  1.1734  0.0819
11204TIP3   OH255102   2.510   2.147   5.139 -0.1346  0.0065  0.5445
11204TIP3    H155103   2.449   2.219   5.123 -0.2156 -0.0252  0.7070
11204TIP3    H255104   2.593   2.176   5.100 -0.4488 -0.2738 -0.3549
11205TIP3   OH255105   3.717   0.169   1.792  0.2021 -0.0185 -0.4561
11205TIP3    H155106   3.664   0.206   1.862 -0.4961  0.8958 -1.4267
11205TIP3    H255107   3.807   0.190   1.816 -0.1463  2.1335 -0.8215
11206TIP3   OH255108   0.062   0.520   5.652 -0.4453  0.5271 -0.3816
11206TIP3    H155109   0.048   0.458   5.581 -2.1232  1.6852 -1.1154
11206TIP3    H255110   0.018   0.480   5.728  3.1113 -1.7479  0.7645
11207TIP3   OH255111   3.269   6.720   1.101  0.5864  0.4482  0.8446
11207TIP3    H155112   3.249   6.701   1.009  3.0312  2.4476 -0.2009
11207TIP3    H255113   3.184   6.711   1.146 -0.8192  0.0634 -1.6886
11208TIP3   OH255114   2.837   5.440  12.441 -0.8013 -0.5110  0.5115
11208TIP3    H155115   2.926   5.468  12.420 -0.2911 -2.0628  0.4579
11208TIP3    H255116   2.786   5.462  12.363  0.2063 -2.3641 -0.7738
11209TIP3   OH255117   4.121   4.213  15.067 -0.4466 -0.3613 -0.5860
11209TIP3    H155118   4.205   4.255  15.082 -0.2492 -0.3729 -1.5773
11209TIP3    H255119   4.102   4.167  15.149  1.0379 -1.2715 -0.7233
11210TIP3   OH255120   6.807   1.106  14.898  0.8196 -0.0155 -0.1448
11210TIP3    H155121   6.726   1.060  14.922  0.7729  0.8208  1.4791
11210TIP3    H255122   6.787   1.198  14.918  1.4169  0.5158 -1.8800
11211TIP3   OH255123   6.494   2.337  12.853 -0.4291  0.3359  0.5819
11211TIP3    H155124   6.501   2.371  12.764  0.7911  0.4921  0.7220
11211TIP3    H255125   6.583   2.314  12.877 -0.6805  0.6706  1.9183
11212TIP3   OH255126   2.812   2.755  16.252  0.4261 -0.4356  0.6032
11212TIP3    H155127   2.769   2.824  16.303 -0.2365  0.2460 -0.8195
11212TIP3    H255128   2.871   2.801  16.193  0.2177 -1.0973 -0.1487
11213TIP3   OH255129   3.953   3.417  13.635  0.5766 -0.7082 -0.0768
11213TIP3    H155130   3.998   3.356  13.694  0.8708  0.2352  0.6880
11213TIP3    H255131   3.987   3.503  13.659 -0.2254 -0.1790 -0.7994
11214TIP3   OH255132   5.068   6.741  10.960 -0.0747 -0.2706 -0.2509
11214TIP3    H155133   5.077   6.646  10.971  1.8873  0.0400  1.5420
11214TIP3    H255134   5.007   6.767  11.029 -0.3747 -0.1783 -0.5471
11215TIP3   OH255135   6.505   2.986   3.623 -0.5547 -0.5838  0.1683
11215TIP3    H155136   6.501   2.897   3.589 -2.2550 -0.3519 -0.3394
11215TIP3    H255137   6.592   3.017   3.597 -0.0152 -2.0136  0.1821
11216TIP3   OH255138   1.954   2.430  12.886  0.7583  0.5496 -0.0584
11216TIP3    H155139   1.898   2.507  12.900  1.5936  1.3360 -0.8513
11216TIP3    H255140   1.960   2.422  12.791 -0.9370 -1.7541 -0.0596
11217TIP3   OH255141   2.950   5.722   2.768 -0.8401 -0.5353  0.5394
11217TIP3    H155142   2.869   5.754   2.727  0.0188  0.0112 -0.8005
11217TIP3    H255143   2.956   5.631   2.740 -1.3116 -0.7646  1.1688
11218TIP3   OH255144   6.364   0.615   0.331  0.4319  0.5424 -0.0069
11218TIP3    H155145   6.422   0.649   0.263 -0.3205  1.7395 -0.0822
11218TIP3    H255146   6.321   0.693   0.366 -0.6074 -0.2507  0.5162
11219TIP3   OH255147   0.393   1.900  14.886 -0.4049 -0.3583 -0.2318
11219TIP3    H155148   0.370   1.988  14.857  2.6345  1.0056  1.0512
11219TIP3    H255149   0.317   1.870  14.936 -0.1696  3.1961  2.6135
11220TIP3   OH255150   5.686   4.117   0.613  0.0408 -0.2624  0.4104
11220TIP3    H155151   5.700   4.154   0.700  3.0248 -0.7487  0.2279
11220TIP3    H255152   5.712   4.186   0.553  0.9510 -0.9605 -0.0160
11221TIP3   OH255153   3.828   2.232   4.827 -0.4390  0.0132 -0.0891
11221TIP3    H155154   3.908   2.200   4.869  0.5689  1.2669 -0.9216
11221TIP3    H255155   3.786   2.287   4.893 -1.2569 -1.5724  0.7463
11222TIP3   OH255156   2.863   2.079   3.619 -0.0833 -0.2734 -0.0686
11222TIP3    H155157   2.847   2.134   3.543 -1.5322  1.1675  1.2144
11222TIP3    H255158   2.959   2.074   3.625  0.0567  0.5231 -1.3058
11223TIP3   OH255159   1.333   3.699  13.922  0.1518 -0.1226  0.0405
11223TIP3    H155160   1.414   3.714  13.872 -0.8299 -0.3127 -1.6999
11223TIP3    H255161   1.266   3.684  13.855 -1.5143  0.8524  1.3969
11224TIP3   OH255162   4.378   1.321  11.966  0.4996  0.4860 -0.5957
11224TIP3    H155163   4.409   1.369  11.890 -1.2417  2.5748 -0.0986
11224TIP3    H255164   4.436   1.349  12.037  1.6911 -0.9337 -0.9646
11225TIP3   OH255165   6.327   2.801  16.077 -0.1053 -0.1458  0.0434
11225TIP3    H155166   6.259   2.780  16.012 -0.0810 -0.3394  0.0799
11225TIP3    H255167   6.279   2.836  16.152 -0.1369  0.0446 -0.0648
11226TIP3   OH255168   3.460   1.375   3.113 -0.1780 -1.4390  0.3200
11226TIP3    H155169   3.527   1.429   3.071 -0.4874  1.1356  2.8272
11226TIP3    H255170   3.509   1.311   3.165  0.2447 -1.4737 -0.1154
11227TIP3   OH255171   2.941   5.648   3.183  0.3806  0.5323  0.1516
11227TIP3    H155172   2.935   5.731   3.230  2.2943  0.4070  0.7236
11227TIP3    H255173   3.010   5.662   3.118  2.2045 -1.1528  1.6081
11228TIP3   OH255174   5.997   4.007  16.694 -0.5135  0.2088 -0.3403
11228TIP3    H155175   5.940   4.069  16.648 -1.1865  0.9108  1.3548
11228TIP3    H255176   5.950   3.924  16.689 -0.1718  0.0785 -1.6208
11229TIP3   OH255177   4.857   2.445  10.876 -0.0706  0.3217 -0.1401
11229TIP3    H155178   4.890   2.376  10.819 -1.1636  0.6829 -1.2538
11229TIP3    H255179   4.910   2.521  10.856 -1.4110  0.8770 -1.8586
11230TIP3   OH255180   5.167   3.901  11.907  0.3292  0.1327 -0.2830
11230TIP3    H155181   5.255   3.909  11.942  0.9714  0.1131 -1.8136
11230TIP3    H255182   5.135   3.818  11.940  0.5161  0.5639  1.0334
11231TIP3   OH255183   4.314   2.859  14.898 -0.9038 -0.2180 -0.2471
11231TIP3    H155184   4.388   2.842  14.956 -2.1808  0.8345  1.8161
11231TIP3    H255185   4.350   2.915  14.829 -0.0053  1.4871  1.4873
11232TIP3   OH255186   0.312   1.392   5.140 -0.2171  0.2531  0.7296
11232TIP3    H155187   0.228   1.402   5.185  0.7332 -1.4005  3.1223
11232TIP3    H255188   0.373   1.369   5.210  1.9155 -0.1056 -1.1533
11233TIP3   OH255189   6.414   1.148  11.832 -0.2905 -0.2935 -0.5296
11233TIP3    H155190   6.420   1.145  11.737  0.9727  2.5947 -0.6227
11233TIP3    H255191   6.325   1.178  11.849  0.3788  2.1880 -1.0025
11234TIP3   OH255192   0.280   5.673   3.462  0.0594  0.2634  0.2724
11234TIP3    H155193   0.354   5.664   3.403 -0.4210  0.4444 -0.3672
11234TIP3    H255194   0.247   5.762   3.446  0.2532  0.5113  1.1980
11235TIP3   OH255195   5.971   2.229   3.683  0.3186 -0.3241 -0.2171
11235TIP3    H155196   5.986   2.313   3.639  1.7477 -0.7233 -0.5318
11235TIP3    H255197   5.928   2.174   3.617 -0.5813  0.1266 -0.0242
11236TIP3   OH255198   1.109   6.484   3.689 -0.1814  0.2724 -0.0371
11236TIP3    H155199   1.053   6.473   3.613  1.6459  1.1667 -1.6036
11236TIP3    H255200   1.115   6.579   3.701 -1.5930  0.1615  2.1961
11237TIP3   OH255201   1.281   2.760   3.936 -0.5614  0.5723  0.0262
11237TIP3    H155202   1.303   2.814   3.859  0.7135 -0.9279 -0.7070
11237TIP3    H255203   1.187   2.745   3.928 -0.2712 -0.6128 -2.0194
11238TIP3   OH255204   3.586   4.251   3.194 -0.0879  0.0742 -0.3088
11238TIP3    H155205   3.643   4.189   3.240  0.6924  0.7695 -0.3036
11238TIP3    H255206   3.502   4.206   3.187  0.4618 -0.9898 -0.3190
11239TIP3   OH255207   3.108   5.736  17.092 -0.3503 -0.2250 -0.0065
11239TIP3    H155208   3.055   5.701  17.019 -0.3950  0.0076 -0.0859
11239TIP3    H255209   3.056   5.715  17.170 -2.1457  2.7166 -0.2542
11240TIP3   OH255210   1.471   6.751   4.714 -0.4922  0.5556 -0.3175
11240TIP3    H155211   1.532   6.811   4.670  0.2753  0.4539  0.5723
11240TIP3    H255212   1.475   6.671   4.662  0.9058  0.2115  0.2911
11241TIP3   OH255213   1.076   4.602  13.730 -0.4264 -0.1099  0.8805
11241TIP3    H155214   1.010   4.623  13.796  0.8428  0.9753  1.8788
11241TIP3    H255215   1.159   4.616  13.775  0.5318 -2.7689  0.0798
11242TIP3   OH255216   4.362   4.643   0.063 -0.1453  0.5978 -0.2161
11242TIP3    H155217   4.417   4.611  -0.008  1.1415 -1.8956  1.7391
11242TIP3    H255218   4.274   4.611   0.042  0.5368 -1.6523  0.0818
11243TIP3   OH255219   0.577   5.696  11.437  0.4517 -0.0631 -0.3911
11243TIP3    H155220   0.666   5.680  11.406  0.4906 -0.0048 -0.3104
11243TIP3    H255221   0.586   5.704  11.532  0.2532 -0.7615 -0.3114
11244TIP3   OH255222   1.558   3.194  15.384 -0.0871 -0.1994 -0.7015
11244TIP3    H155223   1.628   3.133  15.408 -0.4056 -0.9772 -1.6981
11244TIP3    H255224   1.603   3.264  15.337  0.4192  0.8878  1.3048
11245TIP3   OH255225   6.535   2.741   0.989  0.2475 -0.3362 -0.3507
11245TIP3    H155226   6.581   2.708   0.912  0.7672 -2.9286  0.9600
11245TIP3    H255227   6.444   2.752   0.959  0.5278 -0.8611 -1.4537
11246TIP3   OH255228   5.008   5.239  11.520 -0.1579  0.3059 -0.4331
11246TIP3    H155229   4.985   5.276  11.435  0.6431  0.6304 -0.5151
11246TIP3    H255230   5.098   5.268  11.536  0.5514 -1.6681 -0.5484
11247TIP3   OH255231   1.740   5.333   4.821 -0.3164 -0.2028  0.2060
11247TIP3    H155232   1.739   5.428   4.815  3.5096 -0.0960 -1.6463
11247TIP3    H255233   1.732   5.315   4.915  0.4934  2.0666  0.7775
11248TIP3   OH255234   2.416   2.415  14.504 -0.2769 -0.6424 -0.8755
11248TIP3    H155235   2.376   2.500  14.483 -0.1250 -0.8412 -2.0280
11248TIP3    H255236   2.372   2.353  14.446  0.2432 -1.2078 -0.6750
11249TIP3   OH255237   0.640   6.288   2.341 -0.1561  0.2236  0.8716
11249TIP3    H155238   0.682   6.354   2.396  0.2964  0.7663 -0.0967
11249TIP3    H255239   0.695   6.284   2.263 -1.1564 -0.0413  0.1618
11250TIP3   OH255240   4.785   5.788  13.384 -0.2034  0.4484  0.3722
11250TIP3    H155241   4.844   5.741  13.443 -0.0696  2.5490  2.0653
11250TIP3    H255242   4.800   5.881  13.405 -1.7410  1.1839 -1.4866
11251TIP3   OH255243   0.636   1.386   3.375  0.2465  0.4651 -0.4199
11251TIP3    H155244   0.571   1.379   3.445 -0.8678  0.7260 -1.3874
11251TIP3    H255245   0.721   1.377   3.419 -0.4277  0.5214  0.9323
11252TIP3   OH255246   4.759   1.211  15.336 -0.5200 -0.2081 -0.3162
11252TIP3    H155247   4.762   1.293  15.286 -1.1180  1.0944  1.6822
11252TIP3    H255248   4.851   1.193  15.357 -0.3466 -0.2762 -1.0935
11253TIP3   OH255249   3.789   6.178  13.391 -0.2380  0.2482 -0.0414
11253TIP3    H155250   3.819   6.269  13.386 -0.1850  0.1853 -1.4263
11253TIP3    H255251   3.824   6.137  13.312  1.1691 -1.4449  1.3692
11254TIP3   OH255252   4.304   5.956   5.876 -0.5134 -0.1272 -0.0725
11254TIP3    H155253   4.338   5.940   5.964 -0.7928  0.0421  0.0672
11254TIP3    H255254   4.220   5.908   5.874 -0.0426 -0.9527 -0.5773
11255TIP3   OH255255   6.075   3.732  14.958 -0.0884 -0.9356 -0.2492
11255TIP3    H155256   6.048   3.664  15.020  0.1255 -0.1674  0.7334
11255TIP3    H255257   6.085   3.810  15.013  1.4594 -0.5513 -1.0430
11256TIP3   OH255258   0.018   1.620  12.847  0.7397  0.4433 -0.5056
11256TIP3    H155259   0.096   1.589  12.892  0.3113 -0.3423 -0.2906
11256TIP3    H255260   0.024   1.581  12.759  0.5833  0.3529 -0.4782
11257TIP3   OH255261   6.047   4.292  15.500 -0.0558 -0.8472 -0.3592
11257TIP3    H155262   6.025   4.270  15.591 -1.3535 -1.6100 -0.8369
11257TIP3    H255263   6.130   4.339  15.507 -1.0809  0.8650  1.4016
11258TIP3   OH255264   3.431   2.237   4.249 -0.1102  0.1570 -0.7569
11258TIP3    H155265   3.446   2.297   4.322 -1.0507  2.1811 -2.1319
11258TIP3    H255266   3.504   2.252   4.189  1.7516 -2.8965  0.4955
11259TIP3   OH255267   6.109   1.344   0.116  0.3412 -0.1951 -0.1739
11259TIP3    H155268   6.149   1.296   0.043  0.7113  1.0300 -0.8223
11259TIP3    H255269   6.029   1.381   0.079 -0.4763 -1.1265  0.6072
11260TIP3   OH255270   4.138   6.506  11.958 -0.3329  0.8264  0.1607
11260TIP3    H155271   4.149   6.596  11.930 -0.5849  0.2811 -1.8939
11260TIP3    H255272   4.059   6.476  11.912  0.7972 -0.9667 -0.7513
11261TIP3   OH255273   5.133   1.160  16.606 -0.3041  0.7471 -0.1985
11261TIP3    H155274   5.180   1.185  16.686  3.3191 -0.7640 -1.6253
11261TIP3    H255275   5.178   1.208  16.536 -0.0491 -1.7132 -1.8235
11262TIP3   OH255276   5.679   4.312  11.964  0.0125 -0.6219 -0.5556
11262TIP3    H155277   5.683   4.361  11.882  0.4666 -0.6637 -0.5631
11262TIP3    H255278   5.756   4.341  12.012 -0.1190 -0.7834 -0.2472
11263TIP3   OH255279   0.111   0.676   3.935 -0.1618 -0.3000  0.0274
11263TIP3    H155280   0.127   0.632   3.852 -2.1096 -0.3547 -0.3586
11263TIP3    H255281   0.198   0.686   3.974  0.5955 -2.0028 -1.1165
11264TIP3   OH255282   4.641   0.743  15.764  0.0415 -0.2989 -0.1820
11264TIP3    H155283   4.614   0.834  15.771  1.9030  0.3821 -1.1271
11264TIP3    H255284   4.684   0.723  15.847  0.0718 -0.1472 -0.1615
11265TIP3   OH255285   1.032   0.931   1.375  0.5759  0.1962 -0.0928
11265TIP3    H155286   0.956   0.979   1.404  1.1413  0.3572  1.1785
11265TIP3    H255287   1.087   0.996   1.332  0.2136  0.1707 -0.6022
11266TIP3   OH255288   4.799   1.197   0.872  0.2421  0.2396  0.4178
11266TIP3    H155289   4.822   1.105   0.883 -0.5599 -0.3780 -2.2765
11266TIP3    H255290   4.710   1.204   0.908 -0.8759 -0.8144 -1.9395
11267TIP3   OH255291   5.089   5.144   5.069  0.1188  0.3028 -0.5551
11267TIP3    H155292   5.010   5.196   5.053 -0.2344 -0.0382  0.0367
11267TIP3    H255293   5.145   5.161   4.993 -1.2514 -0.8177 -1.8991
11268TIP3   OH255294   5.104   2.570   6.810  0.6407 -0.4337 -0.2491
11268TIP3    H155295   5.192   2.531   6.805  0.2275 -1.5715  0.8278
11268TIP3    H255296   5.047   2.504   6.771  0.4489  1.1401 -2.8319
11269TIP3   OH255297   2.944   5.403  14.014  0.0455 -0.4509 -0.0638
11269TIP3    H155298   2.873   5.366  14.067  0.8547 -0.9200  0.7050
11269TIP3    H255299   2.998   5.450  14.077  1.1199 -1.1689 -0.4315
11270TIP3   OH255300   2.311   1.717  15.296  0.0643 -0.4240  0.0450
11270TIP3    H155301   2.248   1.647  15.316  0.3688 -1.3011 -1.8446
11270TIP3    H255302   2.354   1.734  15.380 -0.7110 -1.8035  0.7747
11271TIP3   OH255303   2.646   4.816   5.783 -0.5382 -0.2414 -0.4805
11271TIP3    H155304   2.613   4.819   5.873 -1.6408 -1.6526 -0.7897
11271TIP3    H255305   2.739   4.836   5.790 -0.8006  0.6120  0.8534
11272TIP3   OH255306   4.893   5.070  16.112 -0.4431 -0.1365 -0.1659
11272TIP3    H155307   4.966   5.014  16.085 -0.3451  0.1147 -0.4321
11272TIP3    H255308   4.837   5.076  16.034 -0.3889  0.2355 -0.1784
11273TIP3   OH255309   4.464   1.518   5.553  0.1013  0.2477  0.2930
11273TIP3    H155310   4.441   1.609   5.534 -2.1668 -0.0634  1.2399
11273TIP3    H255311   4.456   1.510   5.648 -0.2712 -1.0595  0.1706
11274TIP3   OH255312   1.164   2.478   4.121 -0.3377  0.2853  0.3389
11274TIP3    H155313   1.213   2.523   4.190  0.1729 -0.5331  0.5210
11274TIP3    H255314   1.103   2.544   4.088  0.0723  0.9670  0.9193
11275TIP3   OH255315   4.424   1.568  16.885  0.2951  0.0439  0.6724
11275TIP3    H155316   4.509   1.607  16.906 -0.2996  1.5770  0.3657
11275TIP3    H255317   4.380   1.633  16.830 -0.5993 -1.2483 -0.2321
11276TIP3   OH255318   6.684   3.017   1.314  0.5786  0.5908  0.2987
11276TIP3    H155319   6.620   2.949   1.291  1.9378 -0.2331 -1.2619
11276TIP3    H255320   6.631   3.088   1.351 -0.9118 -1.1856  1.7442
11277TIP3   OH255321   1.988   0.122   0.616 -0.1243  0.0837 -0.5148
11277TIP3    H155322   1.900   0.094   0.639  0.3116  0.3273  1.6164
11277TIP3    H255323   2.009   0.072   0.537 -1.0108 -2.3538  0.6900
11278TIP3   OH255324   6.338   6.278  12.521  0.1454  0.7679 -0.2762
11278TIP3    H155325   6.283   6.350  12.554 -0.3284  1.2759 -2.0803
11278TIP3    H255326   6.396   6.319  12.457 -1.2071 -0.6461 -2.5522
11279TIP3   OH255327   3.566   3.707  16.068 -0.2205  0.5936 -0.6224
11279TIP3    H155328   3.615   3.787  16.051  3.3700 -1.0971  0.4690
11279TIP3    H255329   3.609   3.670  16.146 -2.0386 -2.0994 -0.7692
11280TIP3   OH255330   2.527   3.950  15.753 -0.4043 -0.4564  0.0075
11280TIP3    H155331   2.526   3.886  15.825  1.7107 -0.2995  0.2287
11280TIP3    H255332   2.545   4.033  15.796  0.2550 -0.2621 -0.6408
11281TIP3   OH255333   2.998   6.445  15.710  0.2521  0.6156  0.1045
11281TIP3    H155334   3.085   6.429  15.749 -0.4088 -0.6697  1.1451
11281TIP3    H255335   2.936   6.421  15.779 -0.9518  0.4107 -1.0084
11282TIP3   OH255336   5.983   3.394   3.223  0.0975 -0.1642  0.2502
11282TIP3    H155337   6.033   3.329   3.174  0.4285  0.3498 -0.1173
11282TIP3    H255338   5.934   3.344   3.287  0.7954 -0.7194  0.3614
11283TIP3   OH255339   6.721   6.321  15.325  0.5604 -0.3289 -0.0708
11283TIP3    H155340   6.796   6.263  15.311  0.2910 -0.7175  0.0544
11283TIP3    H255341   6.652   6.263  15.358  0.3413  0.0959  0.2369
11284TIP3   OH255342   6.384   4.016   2.364 -0.3209  0.5437  0.2091
11284TIP3    H155343   6.342   4.014   2.278 -1.4017  1.3567  0.6948
11284TIP3    H255344   6.476   3.996   2.346 -0.9296 -1.6461 -0.8485
11285TIP3   OH255345   0.376   3.073  15.652  0.1259  0.2352 -0.2400
11285TIP3    H155346   0.398   3.050  15.562  1.5888  2.0965 -0.4142
11285TIP3    H255347   0.368   3.168  15.652 -0.5252  0.2159  1.4622
11286TIP3   OH255348   1.211   0.854  13.962  0.6572  0.2244  0.6845
11286TIP3    H155349   1.267   0.854  14.040 -0.5176 -0.0889  1.5718
11286TIP3    H255350   1.246   0.923  13.907  2.8453 -0.9676  0.4899
11287TIP3   OH255351   1.417   6.034  12.785 -0.1443  0.2925 -0.3782
11287TIP3    H155352   1.334   6.027  12.737  0.0518 -1.3006 -0.5502
11287TIP3    H255353   1.391   6.037  12.877 -0.4193 -3.4807 -0.1628
11288TIP3   OH255354   1.753   2.215  11.903  0.4106  0.0106  0.2063
11288TIP3    H155355   1.724   2.139  11.954 -1.3185 -1.5654 -2.8320
11288TIP3    H255356   1.681   2.277  11.910 -0.2718 -0.6166 -1.0283
11289TIP3   OH255357   6.802   3.677   5.056  0.1799  0.2946 -0.2165
11289TIP3    H155358   6.709   3.660   5.073 -0.8739  1.6556 -3.7149
11289TIP3    H255359   6.839   3.697   5.142 -2.4663 -1.3299  1.4544
11290TIP3   OH255360   0.477   6.771   5.562  0.7089  0.7859 -0.2439
11290TIP3    H155361   0.530   6.695   5.538  1.2642  1.3204 -0.7494
11290TIP3    H255362   0.535   6.846   5.547 -0.3870  1.4383 -1.4194
11291TIP3   OH255363   0.879   2.553   0.827 -0.1514  0.3060  0.5664
11291TIP3    H155364   0.793   2.567   0.786  0.0538 -2.4655 -1.1302
11291TIP3    H255365   0.860   2.550   0.921 -1.8169  0.3627  0.2713
11292TIP3   OH255366   3.519   0.101  13.568  0.0644 -0.1630  0.2540
11292TIP3    H155367   3.509   0.170  13.633  1.5481  1.5062 -1.1862
11292TIP3    H255368   3.601   0.057  13.592 -0.3305 -0.7463  0.5540
11293TIP3   OH255369   2.976   4.354  10.719  0.2336 -0.2885 -0.2711
11293TIP3    H155370   2.898   4.300  10.710 -0.5293  0.9912 -1.8149
11293TIP3    H255371   3.044   4.292  10.747 -1.3390 -1.3826  1.4002
11294TIP3   OH255372   6.275   3.704  13.197 -0.0616 -0.6552 -0.7770
11294TIP3    H155373   6.223   3.630  13.165 -1.1588  0.2927 -1.2702
11294TIP3    H255374   6.330   3.728  13.122  1.3718 -1.8481 -0.1612
11295TIP3   OH255375   4.568   6.576   1.199  0.1556 -0.4147 -0.1179
11295TIP3    H155376   4.550   6.500   1.254  0.4886 -0.0756  0.4776
11295TIP3    H255377   4.487   6.627   1.201 -0.1797 -0.9125 -0.7892
11296TIP3   OH255378   0.794   4.345  15.805 -0.2708  0.3513 -0.0856
11296TIP3    H155379   0.727   4.311  15.864 -0.1989  1.0794  0.4199
11296TIP3    H255380   0.756   4.426  15.771 -0.4091 -0.1672 -1.2221
11297TIP3   OH255381   5.715   6.066  15.381 -0.0092 -0.4181 -0.7946
11297TIP3    H155382   5.803   6.104  15.372  0.1566 -0.4772  0.3715
11297TIP3    H255383   5.713   6.033  15.470 -1.0091 -0.9889 -1.0174
11298TIP3   OH255384   2.756   5.258   5.561  0.1651 -0.4780  0.3228
11298TIP3    H155385   2.762   5.165   5.538  0.7057  0.1677 -2.6088
11298TIP3    H255386   2.844   5.283   5.587 -0.5494 -1.3278  4.0477
11299TIP3   OH255387   1.100   4.493   1.137 -0.2027  0.3395  0.5754
11299TIP3    H155388   1.169   4.473   1.200  0.0225 -0.0256  0.2246
11299TIP3    H255389   1.050   4.411   1.129  1.2531 -0.4462 -1.5343
11300TIP3   OH255390   1.244   3.969  15.265  0.2013 -0.3181  0.7326
11300TIP3    H155391   1.305   3.975  15.339  1.1974 -0.1815 -0.0797
11300TIP3    H255392   1.247   3.877  15.238 -1.7111 -0.8530  2.0994
11301TIP3   OH255393   4.750   3.059  11.037  0.6224 -0.2492  0.3380
11301TIP3    H155394   4.806   3.059  10.960 -2.5140 -1.9822 -2.1634
11301TIP3    H255395   4.736   3.151  11.057  1.7499  0.2342 -0.9355
11302TIP3   OH255396   5.709   5.075   0.139  0.9563 -0.0467  0.1530
11302TIP3    H155397   5.672   5.048   0.055  2.3524 -0.6249 -0.3044
11302TIP3    H255398   5.702   4.997   0.194  0.1668  0.2917  0.5545
11303TIP3   OH255399   3.631   0.007   5.261  0.0887  0.8476  0.2985
11303TIP3    H155400   3.712  -0.017   5.216  1.4762  0.2048  2.9468
11303TIP3    H255401   3.580  -0.073   5.261  0.3375  0.6886  0.4150
11304TIP3   OH255402   3.474   5.586   2.958 -0.1857 -0.0623  0.0304
11304TIP3    H155403   3.390   5.556   2.993 -1.2952  1.0003 -1.5906
11304TIP3    H255404   3.451   5.657   2.899  1.8951  0.3550 -0.3389
11305TIP3   OH255405   2.593   0.367   2.435 -0.0525  0.4233 -0.0734
11305TIP3    H155406   2.636   0.451   2.423 -1.1840  1.3880  2.0977
11305TIP3    H255407   2.664   0.307   2.460  0.9402  0.3632 -2.7085
11306TIP3   OH255408   1.385   0.188  15.659  0.0647 -0.4256  0.4237
11306TIP3    H155409   1.304   0.223  15.622 -0.9197 -0.7174  2.1812
11306TIP3    H255410   1.365   0.097  15.680  0.8296 -0.4927  0.9049
11307TIP3   OH255411   6.152   0.943  13.915  0.3646  0.5006  0.0936
11307TIP3    H155412   6.216   0.872  13.910 -1.3566 -1.3553  2.4056
11307TIP3    H255413   6.152   0.969  14.007 -0.2103  2.4701 -0.4020
11308TIP3   OH255414   5.456   1.197  15.926  0.2583  0.0024  0.2243
11308TIP3    H155415   5.469   1.291  15.943  2.3716 -0.4026  1.1820
11308TIP3    H255416   5.518   1.178  15.855  0.6899 -0.8955  0.8367
11309TIP3   OH255417   0.643   6.406  10.953  0.5159  0.2681  0.8552
11309TIP3    H155418   0.655   6.489  10.906  0.4782  0.3500  0.9892
11309TIP3    H255419   0.715   6.351  10.923  0.1798  0.1339  0.2926
11310TIP3   OH255420   1.458   3.105  13.429  0.3107 -0.0600 -0.4525
11310TIP3    H155421   1.461   3.010  13.427 -2.2653 -0.2002 -1.8333
11310TIP3    H255422   1.509   3.132  13.353  0.5717 -0.3539 -0.3832
11311TIP3   OH255423   0.777   5.012  15.225  0.2755 -0.0111 -0.1165
11311TIP3    H155424   0.816   4.985  15.308  0.1888 -0.3350 -0.1806
11311TIP3    H255425   0.779   4.933  15.171  1.3316  0.4592 -0.7973
11312TIP3   OH255426   3.540   0.499  15.731  0.0846  0.3662 -0.4788
11312TIP3    H155427   3.527   0.405  15.740 -0.9611  0.6120  0.9627
11312TIP3    H255428   3.454   0.537  15.747  0.3738  1.5530 -1.5647
11313TIP3   OH255429   2.508   0.513  14.928 -0.4331  0.0910  0.3635
11313TIP3    H155430   2.525   0.420  14.943  0.8598  0.4969  1.7555
11313TIP3    H255431   2.467   0.543  15.010 -0.2845  0.8615  0.1621
11314TIP3   OH255432   3.419   5.143   1.087 -0.0847  0.2863 -0.1487
11314TIP3    H155433   3.434   5.048   1.090  0.2370  0.2519 -1.9023
11314TIP3    H255434   3.324   5.152   1.087 -0.1195 -0.0481 -0.1479
11315TIP3   OH255435   4.752   2.003  11.828 -0.1043 -0.4856  0.2184
11315TIP3    H155436   4.798   1.925  11.858 -0.2626 -0.4028  0.6784
11315TIP3    H255437   4.819   2.056  11.784 -0.3188 -1.6321 -1.5825
11316TIP3   OH255438   2.957   0.042  12.799 -0.2317  0.1950 -0.1597
11316TIP3    H155439   3.014   0.061  12.725 -0.8466  1.4036 -0.3608
11316TIP3    H255440   2.897   0.117  12.802 -0.5571 -0.0960  1.2324
11317TIP3   OH255441   5.813   4.174  12.408  0.0499 -0.2525  0.3438
11317TIP3    H155442   5.801   4.103  12.344 -1.5291 -0.1038  0.4235
11317TIP3    H255443   5.791   4.134  12.492  1.5058 -0.2770  0.7456
11318TIP3   OH255444   4.795   1.220   2.838  0.3446 -0.9377 -0.1349
11318TIP3    H155445   4.856   1.193   2.770 -0.4142 -0.4492 -1.0283
11318TIP3    H255446   4.832   1.301   2.873  0.2671 -0.6962 -0.6047
11319TIP3   OH255447   5.536   4.987  17.097  0.0190  0.5280 -0.3733
11319TIP3    H155448   5.462   5.048  17.092 -0.5932  0.0570  2.0325
11319TIP3    H255449   5.496   4.901  17.110  0.9764  0.2476  0.8942
11320TIP3   OH255450   5.997   0.793  16.555  0.3958  0.1190  0.3874
11320TIP3    H155451   5.913   0.824  16.588 -1.2747 -0.0715 -3.1951
11320TIP3    H255452   6.039   0.872  16.518  0.7707 -0.1503  0.2305
11321TIP3   OH255453   5.816   3.033  14.482  0.1497  0.2021 -0.2141
11321TIP3    H155454   5.880   2.962  14.484 -2.0980 -1.9597 -0.4787
11321TIP3    H255455   5.848   3.092  14.414  2.7412  0.1596  0.8572
11322TIP3   OH255456   1.768   4.388  12.886 -0.0299  0.3866 -0.5098
11322TIP3    H155457   1.763   4.447  12.962  1.0560  0.3304 -0.3770
11322TIP3    H255458   1.834   4.428  12.829 -1.2891  0.7624 -1.7382
11323TIP3   OH255459   4.592   1.060  15.472 -0.7917  0.3413 -0.2948
11323TIP3    H155460   4.557   1.003  15.403  1.1956 -0.7421 -0.4925
11323TIP3    H255461   4.655   1.116  15.426 -0.4544  0.5530  0.4149
11324TIP3   OH255462   4.071   5.476  11.346 -0.4919 -0.3599  0.7705
11324TIP3    H155463   4.143   5.535  11.324 -0.6038 -0.8323 -0.9438
11324TIP3    H255464   4.081   5.462  11.441  0.2487  1.4263  1.0040
11325TIP3   OH255465   3.909   1.185   6.150  0.3260 -0.5583 -0.8404
11325TIP3    H155466   3.899   1.116   6.084 -1.2315 -1.1151 -0.0880
11325TIP3    H255467   3.978   1.153   6.208  0.0357 -1.2077 -0.8416
11326TIP3   OH255468   0.372   3.251   3.117  0.0958  0.1565 -0.6193
11326TIP3    H155469   0.421   3.187   3.168  1.0079 -0.3361 -2.0561
11326TIP3    H255470   0.282   3.219   3.118  0.3267 -0.4964 -0.3321
11327TIP3   OH255471   3.485   5.970   2.607  0.4912 -0.1301  0.3301
11327TIP3    H155472   3.429   6.047   2.599  0.8969 -0.0041 -1.6342
11327TIP3    H255473   3.562   5.990   2.554  1.8883 -0.7894  2.0100
11328TIP3   OH255474   6.232   2.906  13.456  0.7635  0.1501  0.1135
11328TIP3    H155475   6.211   2.813  13.444  0.1304  0.3904 -0.7410
11328TIP3    H255476   6.308   2.922  13.401 -0.0147  0.4547 -0.9072
11329TIP3   OH255477   5.491   6.811   1.627 -0.4024  0.1064  0.1497
11329TIP3    H155478   5.414   6.867   1.639 -1.6125 -1.1921 -1.1591
11329TIP3    H255479   5.558   6.869   1.590 -1.4225  0.8414 -0.5853
11330TIP3   OH255480   3.488   0.938  13.387  0.3079  0.3659 -0.5128
11330TIP3    H155481   3.582   0.955  13.390  0.5471 -0.9377  0.2840
11330TIP3    H255482   3.457   0.964  13.473 -0.0941  0.9304 -0.8266
11331TIP3   OH255483   6.388   4.206   4.072 -0.7457  0.2450  0.5467
11331TIP3    H155484   6.430   4.183   3.990 -0.9244  0.2744  0.4462
11331TIP3    H255485   6.432   4.286   4.101 -0.9022  0.4166  0.3147
11332TIP3   OH255486   4.652   1.257  12.136 -0.1111  0.4137 -0.4593
11332TIP3    H155487   4.745   1.257  12.155  0.1992  1.2393 -1.7943
11332TIP3    H255488   4.647   1.234  12.043 -1.2497  0.1734 -0.3537
11333TIP3   OH255489   0.840   4.186  11.370  0.2160  0.1074 -0.6509
11333TIP3    H155490   0.914   4.203  11.428 -0.2647  0.2439 -0.0630
11333TIP3    H255491   0.876   4.135  11.298  0.6195 -0.9490  0.2864
11334TIP3   OH255492   2.543   6.384  15.080  0.3070  0.4312  0.1856
11334TIP3    H155493   2.572   6.340  15.160  3.5089  1.7874 -0.0720
11334TIP3    H255494   2.541   6.477  15.103  1.0770  0.8212 -1.2374
11335TIP3   OH255495   6.208   1.285   5.715  0.0723  0.2646  0.3402
11335TIP3    H155496   6.172   1.360   5.668 -0.8949 -0.3656  0.0444
11335TIP3    H255497   6.271   1.323   5.777 -0.5744  1.3292  0.3626
11336TIP3   OH255498   2.334   2.969   5.840  0.0255 -0.5732 -0.0588
11336TIP3    H155499   2.377   2.984   5.756 -2.3612  1.2547 -1.0513
11336TIP3    H255500   2.367   3.040   5.896  0.0565 -0.5583 -0.0956
11337TIP3   OH255501   0.852   5.048  16.628 -0.4122 -0.3498 -0.2455
11337TIP3    H155502   0.800   5.127  16.641 -1.0106 -0.6063 -1.0300
11337TIP3    H255503   0.866   5.013  16.716  0.6388  1.1117  0.2027
11338TIP3   OH255504   1.552   4.596   5.819  0.1431 -0.4347 -0.5945
11338TIP3    H155505   1.477   4.580   5.761  0.6907 -5.6971 -0.3133
11338TIP3    H255506   1.513   4.620   5.903 -1.1779 -1.3758 -0.9084
11339TIP3   OH255507   0.359   2.483   3.564  0.9978 -0.2837 -0.0693
11339TIP3    H155508   0.439   2.513   3.607 -0.0487  0.7349  1.2533
11339TIP3    H255509   0.323   2.416   3.623  0.7721 -0.6040 -0.5582
11340TIP3   OH255510   5.795   1.828  15.434  0.0182 -0.2730  0.6012
11340TIP3    H155511   5.841   1.759  15.385  1.2946  1.1922 -0.3441
11340TIP3    H255512   5.840   1.831  15.518  0.0782 -0.4740  0.5765
11341TIP3   OH255513   0.633   2.795   5.552  0.0225 -0.3269  0.1633
11341TIP3    H155514   0.546   2.826   5.528  0.2698 -0.1255 -0.5261
11341TIP3    H255515   0.652   2.836   5.636 -0.7010 -0.6778  0.5004
11342TIP3   OH255516   2.073   2.396  14.750  0.1620 -0.8032  0.2764
11342TIP3    H155517   1.978   2.387  14.761  0.0422 -1.1602 -0.9236
11342TIP3    H255518   2.085   2.485  14.718  0.2556 -0.6819  0.6464
11343TIP3   OH255519   5.682   0.172   5.561 -0.3558  0.1410 -0.3006
11343TIP3    H155520   5.764   0.166   5.512 -0.5761  1.9266 -0.9606
11343TIP3    H255521   5.627   0.102   5.526  1.2398 -1.8909  0.9871
11344TIP3   OH255522   5.581   3.260  13.942  0.6585 -0.1298  0.0994
11344TIP3    H155523   5.554   3.177  13.981 -0.5170 -0.6262 -1.6253
11344TIP3    H255524   5.645   3.296  14.003 -1.2998 -0.6519  2.6302
11345TIP3   OH255525   5.255   4.384   2.658 -0.3657 -0.0476  0.2855
11345TIP3    H155526   5.276   4.457   2.716  0.0507  0.1048 -0.0530
11345TIP3    H255527   5.203   4.423   2.588 -2.1748 -0.4828  1.3079
11346TIP3   OH255528   2.304   4.039  10.367  0.1042  0.5086  0.6154
11346TIP3    H155529   2.229   3.979  10.367  0.5655 -0.1027 -0.8786
11346TIP3    H255530   2.374   3.990  10.409 -0.1861  0.9318  1.6365
11347TIP3   OH255531   0.181   5.388  11.227 -0.3115 -0.2212 -0.0609
11347TIP3    H155532   0.127   5.326  11.178  0.0579 -1.0669  0.5700
11347TIP3    H255533   0.126   5.416  11.300 -0.0067 -0.8754  0.4293
11348TIP3   OH255534   2.991   0.505  11.364  0.1886  0.4201 -0.0154
11348TIP3    H155535   2.941   0.488  11.444 -1.3229 -0.5346 -1.1062
11348TIP3    H255536   3.076   0.464  11.379 -1.4611 -3.5256 -0.3982
11349TIP3   OH255537   0.656   3.309   3.943 -0.4331  0.1362 -0.3129
11349TIP3    H155538   0.735   3.364   3.947 -1.4176  1.6888 -0.9643
11349TIP3    H255539   0.626   3.304   4.034  0.8590 -1.1989  0.0731
11350TIP3   OH255540   3.704   2.373   3.276  0.6501 -0.0905  0.2409
11350TIP3    H155541   3.785   2.379   3.328 -0.0029 -0.1554  1.2926
11350TIP3    H255542   3.673   2.284   3.291  0.1714  0.0609  0.1477
11351TIP3   OH255543   4.030   2.874   5.411 -0.2688  0.5423 -0.0335
11351TIP3    H155544   3.935   2.869   5.420 -0.0865 -2.8557  1.4952
11351TIP3    H255545   4.064   2.847   5.496  2.0121 -1.2369 -1.3864
11352TIP3   OH255546   5.754   5.482  14.009  0.5308  0.0237 -0.7158
11352TIP3    H155547   5.749   5.498  13.914  0.4225 -1.2630 -0.9452
11352TIP3    H255548   5.847   5.466  14.025  0.6120  0.6728 -0.5238
11353TIP3   OH255549   4.420   0.477  12.856  0.1575 -0.3379 -0.2568
11353TIP3    H155550   4.383   0.550  12.807  1.3751  0.4147 -0.1057
11353TIP3    H255551   4.374   0.479  12.940  0.6002  0.6499 -0.0266
11354TIP3   OH255552   1.323   2.893  15.705 -0.0683 -0.4094  0.4172
11354TIP3    H155553   1.411   2.891  15.668 -0.4861  0.1028 -0.6643
11354TIP3    H255554   1.299   2.985  15.704 -0.2048 -0.4191  1.7498
11355TIP3   OH255555   3.658   2.288   5.647 -0.2275 -0.5883 -0.0356
11355TIP3    H155556   3.731   2.263   5.705 -0.5460 -0.3598  0.4769
11355TIP3    H255557   3.660   2.224   5.576  1.0929 -0.0060 -0.5633
11356TIP3   OH255558   2.049   5.291  12.324  0.5666  0.4359 -0.4108
11356TIP3    H155559   2.011   5.357  12.382 -1.4261 -0.6772 -0.3477
11356TIP3    H255560   2.005   5.304  12.240 -0.5313 -1.3221 -0.1576
11357TIP3   OH255561   5.490   4.335  15.093 -0.3472  0.1206  0.4217
11357TIP3    H155562   5.568   4.294  15.131 -1.5664 -1.6060  1.1805
11357TIP3    H255563   5.504   4.331  14.999  0.9871  0.9502  0.5433
11358TIP3   OH255564   6.457   5.668  15.459  0.1622  0.2758 -0.4770
11358TIP3    H155565   6.526   5.615  15.500 -1.3030 -1.3821  0.0029
11358TIP3    H255566   6.501   5.748  15.431  2.1952 -0.5758  0.0985
11359TIP3   OH255567   1.275   3.657   1.316 -0.0467 -0.1360 -0.6434
11359TIP3    H155568   1.252   3.586   1.257 -0.8945  1.1373 -1.9077
11359TIP3    H255569   1.342   3.707   1.269 -1.1182  1.2051 -0.8258
11360TIP3   OH255570   5.217   4.968   4.217 -0.3361 -0.0404  0.1426
11360TIP3    H155571   5.310   4.979   4.197 -0.5892  0.2188 -0.9589
11360TIP3    H255572   5.173   5.039   4.170 -1.3000 -1.4702 -1.2517
11361TIP3   OH255573   5.957   2.935  12.021  0.6089 -0.2202  0.4621
11361TIP3    H155574   5.876   2.975  12.052  1.4653  0.5621  1.7793
11361TIP3    H255575   5.931   2.847  11.992 -0.7432  0.1149  0.5956
11362TIP3   OH255576   3.469   1.233  13.960  0.5896  0.6270 -0.1900
11362TIP3    H155577   3.456   1.328  13.951 -3.0628  0.4008  0.8671
11362TIP3    H255578   3.462   1.218  14.055 -1.0450 -0.8487 -0.5001
11363TIP3   OH255579   0.853   0.637   1.205  0.3386  0.0203 -0.2140
11363TIP3    H155580   0.840   0.643   1.111 -1.6766 -1.6132 -0.1179
11363TIP3    H255581   0.948   0.633   1.216  0.7391  2.5400 -1.9357
11364TIP3   OH255582   0.649   2.250  13.447 -0.7707  0.3713 -0.3546
11364TIP3    H155583   0.631   2.325  13.391 -0.4788 -0.2776 -1.3457
11364TIP3    H255584   0.681   2.288  13.529 -0.9615  1.3321 -0.7159
11365TIP3   OH255585   2.039   0.299  17.023 -0.1567  0.1986  0.1326
11365TIP3    H155586   1.955   0.344  17.015  0.6595  1.6412 -0.6960
11365TIP3    H255587   2.093   0.337  16.954  1.3498 -0.3179  0.9903
11366TIP3   OH255588   3.341   3.576   0.562  0.3261  0.1381 -0.3406
11366TIP3    H155589   3.417   3.533   0.602 -0.0925 -1.2788 -1.0273
11366TIP3    H255590   3.305   3.630   0.632 -0.9187 -2.9542  1.5745
11367TIP3   OH255591   2.644   3.000   2.467 -0.5367 -0.5140 -0.2292
11367TIP3    H155592   2.618   3.062   2.399 -0.9046  0.2490  0.5905
11367TIP3    H255593   2.729   3.032   2.497 -0.5291 -0.6509 -0.1059
11368TIP3   OH255594   1.910   3.783   0.179 -0.3654  0.3398 -0.1756
11368TIP3    H155595   1.964   3.798   0.101 -1.4318 -0.1507 -1.0185
11368TIP3    H255596   1.896   3.870   0.215 -0.7721  0.6868 -1.1502
11369TIP3   OH255597   6.569   4.810  11.170 -0.6557 -0.1344 -0.2127
11369TIP3    H155598   6.598   4.901  11.168 -1.3025  0.0711 -0.4337
11369TIP3    H255599   6.648   4.760  11.191 -0.1007  0.3874 -1.0190
11370TIP3   OH255600   5.988   5.241   1.159 -0.0245  0.6642  0.3524
11370TIP3    H155601   5.998   5.331   1.127  1.3437  0.9610  1.5045
11370TIP3    H255602   5.957   5.192   1.083 -0.2371  1.9881 -0.4560
11371TIP3   OH255603   4.580   3.459   1.482  0.2094  0.1433 -0.1545
11371TIP3    H155604   4.662   3.415   1.505  1.1177  1.4415 -0.7510
11371TIP3    H255605   4.569   3.440   1.388  0.3892  0.8053 -0.3164
11372TIP3   OH255606   2.492   2.933   1.312  0.0861  0.2102 -0.4382
11372TIP3    H155607   2.468   2.842   1.298  1.3775 -0.0329 -1.1839
11372TIP3    H255608   2.478   2.975   1.226  2.0055  0.1050 -0.8497
11373TIP3   OH255609   6.001   3.441   0.484 -0.7669 -0.2400 -0.1876
11373TIP3    H155610   6.045   3.497   0.421 -0.2245  1.8611  1.8993
11373TIP3    H255611   5.916   3.421   0.444 -1.7396  3.5486 -0.4817
11374TIP3   OH255612   1.451   2.684   1.432  0.1685  0.7800 -0.5814
11374TIP3    H155613   1.448   2.777   1.408 -1.2814  0.4132 -2.0426
11374TIP3    H255614   1.401   2.640   1.363  0.8372 -1.1019  0.0644
11375TIP3   OH255615   2.325   2.619   5.304  0.3538 -0.2402 -0.7972
11375TIP3    H155616   2.401   2.626   5.361 -0.2006 -0.9181  0.0714
11375TIP3    H255617   2.326   2.528   5.274 -0.8211 -0.6448  0.2962
11376TIP3   OH255618   3.068   3.406  15.246  0.0511  0.5642  0.0542
11376TIP3    H155619   3.152   3.448  15.265  0.4681  0.8901 -2.1923
11376TIP3    H255620   3.087   3.347  15.172 -1.1470 -1.4349  1.2578
11377TIP3   OH255621   0.851   6.528  15.279 -0.3502 -0.3244 -0.0507
11377TIP3    H155622   0.834   6.576  15.359 -0.1525  0.0135 -0.2103
11377TIP3    H255623   0.902   6.588  15.224 -0.9132 -0.3644 -0.6332
11378TIP3   OH255624   1.855   4.499  12.393 -0.3330  0.2472 -0.1999
11378TIP3    H155625   1.784   4.494  12.457 -0.3123 -2.9831 -0.2369
11378TIP3    H255626   1.934   4.509  12.446 -0.4130 -1.3287  0.2778
11379TIP3   OH255627   6.524   1.650  11.759 -0.1240  0.9490  0.1297
11379TIP3    H155628   6.433   1.665  11.734 -0.1365 -1.4544 -1.6310
11379TIP3    H255629   6.575   1.693  11.691 -0.0768 -1.1291 -1.2320
11380TIP3   OH255630   0.782   1.684   5.602  0.5926 -0.0780  0.1024
11380TIP3    H155631   0.826   1.755   5.648 -1.5697  1.2480  0.2525
11380TIP3    H255632   0.715   1.654   5.663  0.6381 -1.4015 -0.4634
11381TIP3   OH255633   1.392   0.345   1.908  0.2053 -0.5180  0.2487
11381TIP3    H155634   1.445   0.374   1.982  1.8133  2.2691 -1.7598
11381TIP3    H255635   1.454   0.298   1.852 -0.6632 -1.4545  0.0552
11382TIP3   OH255636   2.623   0.067   1.920 -0.2219  0.5944  0.5609
11382TIP3    H155637   2.672   0.150   1.921 -1.7396  1.5775 -0.7891
11382TIP3    H255638   2.586   0.063   1.832  0.4939 -1.9818  0.3108
11383TIP3   OH255639   3.620   1.276   4.862  0.0765  0.0197  0.2454
11383TIP3    H155640   3.573   1.198   4.832  0.3166 -0.1254  0.2491
11383TIP3    H255641   3.647   1.254   4.952  2.2434 -0.8476 -0.5585
11384TIP3   OH255642   2.243   2.548  13.261 -0.0295 -0.2140 -0.7353
11384TIP3    H155643   2.180   2.517  13.327 -2.0858  1.9780 -1.5303
11384TIP3    H255644   2.200   2.534  13.177  1.7283 -1.1289 -1.5460
11385TIP3   OH255645   5.761   3.848   0.069  0.1126  0.3738  0.7536
11385TIP3    H155646   5.794   3.831  -0.019 -2.5828  1.8334 -0.6641
11385TIP3    H255647   5.775   3.941   0.082 -2.1683  0.7985  0.5667
11386TIP3   OH255648   3.771   0.763  15.958 -0.6994 -0.0751  0.4629
11386TIP3    H155649   3.796   0.811  16.036  0.5829 -1.2758  0.8412
11386TIP3    H255650   3.681   0.736  15.974 -1.4520  2.1325  0.2334
11387TIP3   OH255651   5.473   0.707  16.280  0.2790 -0.0489 -0.3490
11387TIP3    H155652   5.530   0.753  16.342  1.0779 -0.0179 -1.0910
11387TIP3    H255653   5.410   0.774  16.252 -0.6153 -0.2642  1.0124
11388TIP3   OH255654   3.172   1.674   1.527 -0.1468 -0.4261 -0.0745
11388TIP3    H155655   3.212   1.745   1.477 -0.2645  0.0175  0.4580
11388TIP3    H255656   3.143   1.715   1.608  0.8404 -1.3110  0.7538
11389TIP3   OH255657   2.934   1.178  15.848  0.1897 -0.0764 -0.1202
11389TIP3    H155658   2.839   1.192  15.846  0.3348  0.9806 -0.5891
11389TIP3    H255659   2.970   1.266  15.855  1.2218 -0.0812 -3.5209
11390TIP3   OH255660   3.912   1.550  13.750 -0.3294 -0.7361  0.4015
11390TIP3    H155661   3.844   1.528  13.813  0.5496 -1.5638  1.0805
11390TIP3    H255662   3.989   1.573  13.803 -0.1936  0.6907 -0.3376
11391TIP3   OH255663   2.755   4.371  16.666 -0.2253 -0.0606  0.6811
11391TIP3    H155664   2.730   4.372  16.574  1.2076 -0.2398  0.2521
11391TIP3    H255665   2.745   4.461  16.695 -0.2438  0.0864  0.2185
11392TIP3   OH255666   0.658   0.958   3.801  0.3926 -0.8365  0.1823
11392TIP3    H155667   0.744   0.991   3.773 -0.2458 -0.2575 -1.1748
11392TIP3    H255668   0.606   1.038   3.815 -0.2765 -1.2071 -0.1693
11393TIP3   OH255669   5.976   1.484   2.484  0.0239 -1.0272 -0.1840
11393TIP3    H155670   5.899   1.444   2.525 -0.9306 -0.0845 -0.9891
11393TIP3    H255671   5.957   1.482   2.390  0.2412  0.6494 -0.3028
11394TIP3   OH255672   1.498   2.693   0.421 -0.2823  0.2854 -0.1331
11394TIP3    H155673   1.547   2.634   0.364  0.2648 -0.2765  0.9000
11394TIP3    H255674   1.486   2.644   0.502 -1.3579  0.9406  0.1255
11395TIP3   OH255675   0.447   0.371   2.753 -0.6884 -0.0825  0.2452
11395TIP3    H155676   0.447   0.420   2.835 -1.1082 -0.0815  0.2459
11395TIP3    H255677   0.368   0.400   2.708 -1.0851 -0.9691  0.3677
11396TIP3   OH255678   1.217   2.691  15.494  0.1230 -0.2574  0.0951
11396TIP3    H155679   1.257   2.778  15.489 -2.1442  0.8027 -0.9445
11396TIP3    H255680   1.206   2.675  15.587  0.8358  0.4135  0.3108
11397TIP3   OH255681   2.930   5.623   4.959 -0.0824 -0.7838 -0.1814
11397TIP3    H155682   2.952   5.716   4.959 -0.7966 -0.5990 -0.7833
11397TIP3    H255683   3.014   5.577   4.965  0.3828 -0.1155 -1.3628
11398TIP3   OH255684   2.497   1.427  14.879  0.2380 -0.5577  0.4395
11398TIP3    H155685   2.526   1.405  14.967  1.8694 -0.7121 -0.0902
11398TIP3    H255686   2.456   1.513  14.887  2.1705  0.3698  1.0687
11399TIP3   OH255687   1.266   0.898   0.455  0.3818  0.0413 -0.3931
11399TIP3    H155688   1.249   0.981   0.500 -0.2374  1.2569 -2.7160
11399TIP3    H255689   1.250   0.831   0.522  0.8100  1.7566  1.5342
11400TIP3   OH255690   2.943   5.941   4.909  0.3017 -0.5196  0.1589
11400TIP3    H155691   2.993   6.018   4.937 -0.5326  0.5399 -1.1834
11400TIP3    H255692   2.859   5.950   4.953  0.6746 -1.4657  1.1391
11401TIP3   OH255693   6.554   0.247   5.274  0.0825  0.4343 -1.1181
11401TIP3    H155694   6.541   0.214   5.363 -0.4660  0.2977 -1.2462
11401TIP3    H255695   6.574   0.170   5.222  3.1539  0.8068 -0.6371
11402TIP3   OH255696   0.496   6.366  12.652  0.3724  0.7036  1.0025
11402TIP3    H155697   0.489   6.324  12.567  0.6794  0.1637  1.2390
11402TIP3    H255698   0.556   6.439  12.638  1.0161  0.1657  0.9234
11403TIP3   OH255699   5.983   6.400  12.287  0.0398  0.7218 -0.1561
11403TIP3    H155700   5.977   6.486  12.328 -1.2447  0.7578 -0.3757
11403TIP3    H255701   5.996   6.418  12.194 -1.6147  0.7214 -0.4094
11404TIP3   OH255702   5.525   5.371  15.708 -0.3998  0.3359  0.1778
11404TIP3    H155703   5.482   5.312  15.647  0.1859 -0.7752  0.7969
11404TIP3    H255704   5.472   5.367  15.787  0.4189 -0.4919  0.7037
11405TIP3   OH255705   2.978   5.757  12.268  0.1868 -0.3631  0.4740
11405TIP3    H155706   3.025   5.795  12.193 -0.0767 -0.4039  0.2867
11405TIP3    H255707   2.890   5.739  12.235  0.2852 -1.0729  0.5860
11406TIP3   OH255708   4.628   4.967   0.735 -0.3620 -0.2684 -0.2393
11406TIP3    H155709   4.625   4.930   0.647 -1.4373  2.3324 -1.4005
11406TIP3    H255710   4.539   4.956   0.769  0.1547 -1.6523  0.7470
11407TIP3   OH255711   0.931   3.170  14.505 -0.9348  0.0388 -0.0869
11407TIP3    H155712   1.026   3.164  14.519 -0.6850  1.2059 -1.1328
11407TIP3    H255713   0.915   3.117  14.427 -0.9911  0.6370 -0.4837
11408TIP3   OH255714   6.509   6.355  11.150 -0.2614  0.2544 -0.0896
11408TIP3    H155715   6.480   6.404  11.227 -0.7873  0.0862 -0.1758
11408TIP3    H255716   6.604   6.360  11.153 -0.0718 -2.2374  2.2627
11409TIP3   OH255717   4.067   5.427  15.025 -0.2038  0.3421 -0.0195
11409TIP3    H155718   4.009   5.455  14.954  0.6605 -1.9663 -1.7862
11409TIP3    H255719   4.145   5.481  15.014 -1.3029  2.2917  1.3204
11410TIP3   OH255720   1.674   4.735  11.000 -0.2174  0.0995  0.0980
11410TIP3    H155721   1.630   4.691  10.928 -1.5035  0.9103  0.3653
11410TIP3    H255722   1.751   4.680  11.018 -2.3472 -2.7434  1.2285
11411TIP3   OH255723   0.962   0.068  14.825 -0.4441  0.2519  0.0685
11411TIP3    H155724   0.911   0.146  14.804  0.0739  0.7326  0.5569
11411TIP3    H255725   0.984   0.078  14.918  0.5043  0.0432 -0.1224
11412TIP3   OH255726   1.461   4.393   2.961 -0.7907  0.8068  0.4862
11412TIP3    H155727   1.483   4.455   3.031  0.0093 -0.5958  1.5254
11412TIP3    H255728   1.464   4.307   3.003 -1.9559  0.0456 -0.8945
11413TIP3   OH255729   1.339   4.079  11.313 -0.2591 -0.0982  0.0624
11413TIP3    H155730   1.323   4.173  11.313  1.4072  0.2850  2.8496
11413TIP3    H255731   1.406   4.066  11.245  0.0594  0.8650  0.1784
11414TIP3   OH255732   1.906   2.074  16.930 -0.2479  0.5222  0.3478
11414TIP3    H155733   1.921   2.165  16.953 -2.7015  0.5596  2.1876
11414TIP3    H255734   1.854   2.077  16.850 -1.2785  0.8133  1.0128
11415TIP3   OH255735   6.580   4.412  13.291  0.1141 -0.4450 -0.4824
11415TIP3    H155736   6.573   4.435  13.198 -0.0494 -0.6874 -0.5302
11415TIP3    H255737   6.619   4.489  13.331  0.3966 -0.4257 -0.7888
11416TIP3   OH255738   4.546   4.810   4.675 -0.3650  0.0804  0.2309
11416TIP3    H155739   4.606   4.804   4.750  0.8067 -0.3064 -0.7058
11416TIP3    H255740   4.460   4.816   4.715  0.3089  1.0343  1.6388
11417TIP3   OH255741   6.591   6.045   0.067 -0.0416 -0.5428 -0.0341
11417TIP3    H155742   6.546   6.049  -0.017  0.7140  0.7187 -0.4035
11417TIP3    H255743   6.681   6.071   0.048  1.0488 -3.4576  0.6023
11418TIP3   OH255744   1.496   4.374   4.795  0.0539  0.1440 -0.5268
11418TIP3    H155745   1.510   4.415   4.710 -0.1246 -0.1568 -0.7056
11418TIP3    H255746   1.580   4.380   4.839  0.5039 -0.8216 -1.2172
11419TIP3   OH255747   0.338   0.752  15.748 -0.3175  0.6347 -0.3443
11419TIP3    H155748   0.406   0.739  15.683  3.9387  0.7514  3.5853
11419TIP3    H255749   0.328   0.666  15.790 -2.2398  0.7880 -0.3871
11420TIP3   OH255750   0.790   1.558   4.378 -0.2854 -0.5977 -0.3374
11420TIP3    H155751   0.822   1.540   4.290  2.8276 -0.7587  0.7230
11420TIP3    H255752   0.821   1.647   4.397 -1.3855 -0.3562  0.4210
11421TIP3   OH255753   4.934   5.725  13.601 -0.5400  0.7866 -0.0788
11421TIP3    H155754   5.014   5.754  13.556  1.2748 -1.1922  1.6529
11421TIP3    H255755   4.947   5.750  13.692 -0.8710 -1.4208  0.6361
11422TIP3   OH255756   0.523   3.359  11.381  0.2401  0.0612  0.0668
11422TIP3    H155757   0.612   3.336  11.409  0.9044 -0.7255 -2.4057
11422TIP3    H255758   0.534   3.432  11.320 -0.7468 -0.2842 -0.5640
11423TIP3   OH255759   0.218   6.381   3.758 -0.1264 -0.2069  0.7580
11423TIP3    H155760   0.217   6.443   3.686  0.3877 -0.3557  0.6198
11423TIP3    H255761   0.150   6.317   3.736  1.0991 -1.1498 -0.4002
11424TIP3   OH255762   3.038   6.779  15.861 -0.3062  0.8119 -0.1312
11424TIP3    H155763   3.067   6.862  15.900  0.0913  0.3292  0.6276
11424TIP3    H255764   2.969   6.748  15.919 -0.1170  0.3685 -0.1412
11425TIP3   OH255765   1.863   5.783  11.451 -0.2653  0.4069 -0.0364
11425TIP3    H155766   1.900   5.863  11.488 -0.5367  0.0223  1.0958
11425TIP3    H255767   1.771   5.805  11.436  0.0386  0.8553 -1.3766
11426TIP3   OH255768   5.960   5.277  11.617  0.6520  0.1874 -0.0007
11426TIP3    H155769   6.021   5.266  11.690  1.2608  0.7804 -0.4040
11426TIP3    H255770   6.014   5.265  11.539 -0.4649 -3.0027 -0.4097
11427TIP3   OH255771   5.260   3.448  12.715  0.0674  0.1343 -0.1249
11427TIP3    H155772   5.195   3.507  12.752 -0.0189 -1.1362  1.9237
11427TIP3    H255773   5.219   3.415  12.634  0.4963  3.4209 -1.8535
11428TIP3   OH255774   0.176   4.636   0.911 -0.3335  0.1371 -0.0797
11428TIP3    H155775   0.241   4.576   0.875 -2.4571 -3.1939  1.2269
11428TIP3    H255776   0.128   4.668   0.834  0.8263  0.1696 -0.8047
11429TIP3   OH255777   6.754   5.429   3.990 -0.0935 -1.5230  0.2233
11429TIP3    H155778   6.765   5.475   4.074  0.6532 -2.4211  0.6363
11429TIP3    H255779   6.801   5.484   3.927 -0.5022 -0.9340  0.4188
11430TIP3   OH255780   5.342   4.847   2.876 -0.3277 -0.0545 -0.2621
11430TIP3    H155781   5.406   4.870   2.944  0.5348  0.0957 -1.0981
11430TIP3    H255782   5.269   4.906   2.891 -0.9847 -1.2603  1.6829
11431TIP3   OH255783   5.437   3.330  11.301  0.5797 -0.0756 -0.4312
11431TIP3    H155784   5.365   3.317  11.363  0.2667 -0.5365 -0.8892
11431TIP3    H255785   5.516   3.310  11.352  0.2921 -0.9481 -0.3120
11432TIP3   OH255786   3.958   6.684   3.672  0.5152  0.4237  0.7153
11432TIP3    H155787   3.899   6.747   3.714 -0.1874  0.4546 -0.2928
11432TIP3    H255788   4.033   6.736   3.644 -0.7289  1.1691 -1.4834
11433TIP3   OH255789   0.460   5.676  16.742  0.0353  0.3955 -0.0509
11433TIP3    H155790   0.513   5.718  16.674 -3.2142 -0.7866 -3.6933
11433TIP3    H255791   0.468   5.582  16.723 -0.7649 -0.0076  1.4461
11434TIP3   OH255792   6.309   1.378   6.362 -0.1010  0.3292  0.5841
11434TIP3    H155793   6.215   1.386   6.373 -0.1947  1.5909 -0.7267
11434TIP3    H255794   6.336   1.311   6.425 -1.8973 -0.2545  0.7843
11435TIP3   OH255795   6.753   1.036  15.570 -0.5631 -0.4544  0.0902
11435TIP3    H155796   6.766   1.131  15.581 -1.3812 -0.3187 -0.0636
11435TIP3    H255797   6.839   1.004  15.542 -0.1814  0.1821  0.4982
11436TIP3   OH255798   4.742   5.987  12.742  0.6545 -0.2492 -0.3954
11436TIP3    H155799   4.760   6.078  12.718  0.0937  0.6034  2.0871
11436TIP3    H255800   4.647   5.978  12.732  0.7009 -0.5304 -0.5728
11437TIP3   OH255801   5.923   5.004   2.980 -0.2573 -0.5268  0.3752
11437TIP3    H155802   5.885   5.047   2.904 -3.1182  0.1179  2.0506
11437TIP3    H255803   5.975   5.072   3.024  0.7660 -0.6964 -0.5344
11438TIP3   OH255804   1.844   2.166  13.288 -0.1287  0.3090  0.5947
11438TIP3    H155805   1.918   2.134  13.340  0.1224 -0.2395 -0.0761
11438TIP3    H255806   1.834   2.257  13.314  0.3664  0.2022  1.1779
11439TIP3   OH255807   3.238   3.680   0.043 -0.3212  0.3076  0.2181
11439TIP3    H155808   3.233   3.624   0.120 -2.0449  0.4361  0.2390
11439TIP3    H255809   3.268   3.621  -0.027 -0.8255 -0.3319  0.5273
11440TIP3   OH255810   2.661   4.775   4.323  0.3885 -0.4253 -0.0157
11440TIP3    H155811   2.603   4.812   4.389  0.0634 -0.4691 -0.2734
11440TIP3    H255812   2.747   4.811   4.343 -0.0012  0.8671 -0.5509
11441TIP3   OH255813   5.851   1.701  12.755  0.4752 -0.4019  0.8396
11441TIP3    H155814   5.941   1.685  12.727  0.2578  0.5776 -0.4834
11441TIP3    H255815   5.834   1.791  12.730 -1.2354 -0.9060  0.0790
11442TIP3   OH255816   6.388   4.424  14.207  0.1021 -0.2267 -0.2864
11442TIP3    H155817   6.390   4.502  14.263  0.4663  0.5672 -1.3702
11442TIP3    H255818   6.305   4.430  14.161 -0.0331 -0.6900 -0.1139
11443TIP3   OH255819   4.389   3.111   2.659  0.8253  0.1307 -0.2490
11443TIP3    H155820   4.304   3.144   2.631  0.5693  0.0762  0.4628
11443TIP3    H255821   4.451   3.146   2.594  0.1555 -0.5679 -1.2995
11444TIP3   OH255822   0.889   0.619  17.056 -0.2593  0.1312 -0.3901
11444TIP3    H155823   0.942   0.559  17.004 -0.7130 -1.2452  0.6663
11444TIP3    H255824   0.857   0.684  16.993  1.3559  0.0722 -1.3154
11445TIP3   OH255825   0.947   1.997  16.482 -0.2933 -0.3245 -0.1945
11445TIP3    H155826   0.876   1.958  16.534  1.1434 -0.1403  2.0029
11445TIP3    H255827   1.003   1.923  16.458  0.7726 -0.0612  1.3451
11446TIP3   OH255828   6.123   0.924  12.949 -0.4928 -0.0830  0.2322
11446TIP3    H155829   6.031   0.945  12.932 -0.3883 -0.5633 -1.1014
11446TIP3    H255830   6.162   1.006  12.978 -0.9181  0.6332 -1.1482
11447TIP3   OH255831   6.752   0.401   4.560  0.2310  0.3184 -0.3110
11447TIP3    H155832   6.768   0.447   4.478 -0.5956 -0.4756 -0.9399
11447TIP3    H255833   6.659   0.414   4.578  0.0263 -0.8837 -0.3874
11448TIP3   OH255834   3.634   2.053  11.865  0.5948 -0.6970 -0.1599
11448TIP3    H155835   3.669   2.088  11.783 -1.5874 -1.1817 -1.3883
11448TIP3    H255836   3.586   1.974  11.838 -2.3321  0.5068  1.1442
11449TIP3   OH255837   0.413   1.305  17.163 -0.7915 -0.3151 -0.4105
11449TIP3    H155838   0.465   1.294  17.083 -0.0006 -0.6184  0.1314
11449TIP3    H255839   0.464   1.367  17.216 -1.0741 -0.4743  0.0536
11450TIP3   OH255840   1.492   1.120   3.227 -0.1068  0.0407 -0.2873
11450TIP3    H155841   1.471   1.213   3.224 -0.1783  0.0844  1.0772
11450TIP3    H255842   1.453   1.084   3.147 -3.6601  0.4818  1.0376
11451TIP3   OH255843   4.732   3.365   4.883  0.5831  0.0278  0.1157
11451TIP3    H155844   4.795   3.327   4.822 -0.1031 -0.6917 -0.1509
11451TIP3    H255845   4.703   3.445   4.840  0.4399 -0.2424 -0.2967
11452TIP3   OH255846   0.286   0.739  10.437 -0.2050  0.3760 -0.5526
11452TIP3    H155847   0.318   0.672  10.498 -0.0925 -0.9505 -1.9917
11452TIP3    H255848   0.358   0.801  10.430 -0.1534  0.4526  0.5118
11453TIP3   OH255849   1.595   2.918  13.775  0.3925 -0.0950 -0.0524
11453TIP3    H155850   1.641   2.916  13.691  1.2061 -0.4952  0.3837
11453TIP3    H255851   1.618   2.834  13.816 -0.1017  0.0441  0.5101
11454TIP3   OH255852   5.019   4.766   0.609  0.2204 -0.4047  0.4740
11454TIP3    H155853   5.022   4.694   0.673 -2.3944 -2.0371 -1.0614
11454TIP3    H255854   5.017   4.845   0.663 -1.0250 -1.6731  2.4524
11455TIP3   OH255855   2.702   0.428   5.501  0.0891 -0.0287  0.0037
11455TIP3    H155856   2.686   0.349   5.553  0.1534 -0.6658 -0.9187
11455TIP3    H255857   2.661   0.498   5.551 -1.0429 -0.8331  0.2524
11456TIP3   OH255858   5.735   2.187  13.608  0.1141  0.1806 -0.0144
11456TIP3    H155859   5.825   2.220  13.604  0.6910 -1.3459 -0.4236
11456TIP3    H255860   5.687   2.254  13.656  1.7814  0.3429  1.5284
11457TIP3   OH255861   4.995   6.148   3.509 -0.3308  0.0830  0.5696
11457TIP3    H155862   4.974   6.074   3.451 -0.9693  1.0981 -0.5281
11457TIP3    H255863   4.951   6.223   3.469  0.6784  1.1569  1.4226
11458TIP3   OH255864   1.520   1.335   3.469  0.3401 -0.5848  0.2804
11458TIP3    H155865   1.615   1.344   3.477  0.1836  1.3672  0.3800
11458TIP3    H255866   1.506   1.241   3.459  2.3929 -0.7990 -1.2673
11459TIP3   OH255867   4.834   2.784  16.904  0.0034  0.1537  0.0804
11459TIP3    H155868   4.811   2.874  16.881  1.9943  0.1632 -2.4309
11459TIP3    H255869   4.765   2.730  16.865  1.6305  0.3953 -3.5375
11460TIP3   OH255870   2.714   2.945  15.656 -0.4014  0.2713 -0.1899
11460TIP3    H155871   2.767   2.920  15.580 -0.2004  1.5079 -0.4820
11460TIP3    H255872   2.637   2.986  15.619 -0.6589  0.2078  0.2711
11461TIP3   OH255873   1.875   5.758   5.250 -0.2494 -0.2520  0.0406
11461TIP3    H155874   1.812   5.770   5.179 -0.3168 -1.5622 -0.1439
11461TIP3    H255875   1.877   5.664   5.265  0.7366 -0.1141  0.9061
11462TIP3   OH255876   1.493   0.885   3.621  0.1684  0.5110  0.3255
11462TIP3    H155877   1.467   0.932   3.701 -0.6322  2.4625 -1.0220
11462TIP3    H255878   1.410   0.866   3.577  0.6008 -0.6452 -0.0238
11463TIP3   OH255879   2.015   3.984  12.851 -0.4777 -0.9243 -0.1376
11463TIP3    H155880   1.946   4.050  12.844  0.0428 -0.3322  0.1798
11463TIP3    H255881   2.041   3.968  12.761  0.4708  0.4898 -0.1552
11464TIP3   OH255882   2.890   2.295   2.943  0.6810  0.3012 -0.0519
11464TIP3    H155883   2.907   2.201   2.931  0.2855  0.0794  0.9447
11464TIP3    H255884   2.974   2.331   2.970  0.1235 -0.4725  3.1585
11465TIP3   OH255885   5.085   2.358   5.199  0.0045 -0.1942 -0.6943
11465TIP3    H155886   5.048   2.332   5.115 -1.0893 -2.0898  0.3082
11465TIP3    H255887   5.153   2.293   5.216 -1.4480 -1.3537  0.9732
11466TIP3   OH255888   1.109   3.218   3.089 -0.4275 -0.2952 -1.0019
11466TIP3    H155889   1.190   3.175   3.061  0.7475  0.1770  1.4446
11466TIP3    H255890   1.138   3.302   3.125 -1.6473 -1.1494  2.2601
11467TIP3   OH255891   2.529   1.608   5.902  0.0772 -0.1324  0.8893
11467TIP3    H155892   2.579   1.673   5.851  0.1897 -2.3701 -2.1260
11467TIP3    H255893   2.595   1.566   5.956  1.8321 -3.0243 -3.0185
11468TIP3   OH255894   3.951   4.811  11.951  0.3122  0.0077 -0.6492
11468TIP3    H155895   3.871   4.777  11.992  0.0586 -0.4160 -1.4902
11468TIP3    H255896   4.020   4.791  12.015 -0.2257  0.2809  0.0349
11469TIP3   OH255897   0.719   2.799   2.560  0.1297 -0.0232 -0.1153
11469TIP3    H155898   0.726   2.763   2.649 -0.1289  1.3621  0.4936
11469TIP3    H255899   0.810   2.811   2.532  0.2210  0.4489  0.3635
11470TIP3   OH255900   4.026   4.157  15.342 -0.0638  0.0555  0.4818
11470TIP3    H155901   3.984   4.073  15.323 -0.3415  0.3485 -0.2439
11470TIP3    H255902   3.954   4.219  15.351  0.1532  0.2821  0.7139
11471TIP3   OH255903   6.800   2.073   0.596 -0.5639 -0.3797  0.4705
11471TIP3    H155904   6.792   1.993   0.648  0.7561 -0.0937  1.1563
11471TIP3    H255905   6.849   2.046   0.518  2.0958  0.1623  1.8272
11472TIP3   OH255906   5.914   4.783  17.055 -0.0880  0.4916  0.6769
11472TIP3    H155907   5.911   4.738  17.139 -1.0205 -0.0723  0.3602
11472TIP3    H255908   5.988   4.743  17.008  2.4899  2.9492  2.3479
11473TIP3   OH255909   5.370   5.180  15.038  0.2056 -0.5545  0.3876
11473TIP3    H155910   5.324   5.264  15.050  2.4924  0.6633  1.1632
11473TIP3    H255911   5.442   5.183  15.100  0.7257 -2.8663 -0.0220
11474TIP3   OH255912   1.661   0.133  12.881 -0.9933  0.1616  0.1318
11474TIP3    H155913   1.597   0.079  12.928 -0.4313 -0.5231  0.1217
11474TIP3    H255914   1.673   0.209  12.938 -1.2850 -0.0421  0.4737
11475TIP3   OH255915   6.764   1.427   3.159 -0.6907 -0.3740 -0.4187
11475TIP3    H155916   6.722   1.341   3.167 -0.3378 -0.4304  1.1209
11475TIP3    H255917   6.713   1.485   3.215 -0.6819  0.3371 -1.1251
11476TIP3   OH255918   2.582   5.256  14.483 -0.6877 -0.8261  0.1301
11476TIP3    H155919   2.555   5.344  14.458  0.1796 -0.4701  0.4068
11476TIP3    H255920   2.619   5.266  14.571 -3.5233 -2.0172  1.6209
11477TIP3   OH255921   1.194   0.713  12.892  0.4766  0.8699 -0.0191
11477TIP3    H155922   1.110   0.750  12.865 -0.3845 -0.7944  0.2667
11477TIP3    H255923   1.176   0.620  12.905  2.6571  0.2411 -1.1302
11478TIP3   OH255924   2.970   4.310   1.110  0.4220  0.5348  0.0464
11478TIP3    H155925   2.900   4.375   1.103 -1.6666 -1.5626  0.3246
11478TIP3    H255926   2.981   4.296   1.204 -0.3373 -0.7070 -0.0377
11479TIP3   OH255927   4.288   1.865  13.825 -0.3020  0.0068 -0.6314
11479TIP3    H155928   4.216   1.927  13.809  0.1154  0.2780 -1.5181
11479TIP3    H255929   4.334   1.901  13.901 -1.0383 -0.1161 -0.1187
11480TIP3   OH255930   3.768   4.917  16.374 -0.4254 -0.4365  0.1061
11480TIP3    H155931   3.771   4.831  16.331  1.8026 -0.3629  0.0299
11480TIP3    H255932   3.676   4.942  16.369 -1.0161 -2.5071 -0.4815
11481TIP3   OH255933   6.562   6.420  14.415  0.1652  0.3837 -0.0416
11481TIP3    H155934   6.551   6.435  14.321  0.6836 -0.3017 -0.2244
11481TIP3    H255935   6.474   6.421  14.451 -0.0546  0.4222 -0.5788
11482TIP3   OH255936   2.704   3.040  16.978 -0.2118 -0.2530  0.1286
11482TIP3    H155937   2.741   2.960  17.015 -1.0163 -0.3873  0.6820
11482TIP3    H255938   2.704   3.103  17.050  0.7015  0.3627 -0.3840
11483TIP3   OH255939   3.322   3.791  12.340 -0.1287  0.4344 -0.1265
11483TIP3    H155940   3.351   3.772  12.251 -0.5527  1.3689 -0.4723
11483TIP3    H255941   3.227   3.795  12.335 -0.2617 -0.9348  0.6724
11484TIP3   OH255942   5.699   1.856   6.137 -0.0637 -0.2557 -0.4552
11484TIP3    H155943   5.789   1.825   6.124  0.7916 -0.1124  3.7807
11484TIP3    H255944   5.649   1.777   6.154 -0.4788 -0.2075 -1.3936
11485TIP3   OH255945   3.757   0.257   0.540  0.0698  0.1039  0.0676
11485TIP3    H155946   3.775   0.237   0.448 -0.9139 -0.8824  0.0709
11485TIP3    H255947   3.788   0.180   0.588  2.1662  1.3071  0.7818
11486TIP3   OH255948   5.639   0.160   1.322 -0.1568 -0.0175 -0.3187
11486TIP3    H155949   5.729   0.138   1.300 -0.1764 -0.2963 -0.1311
11486TIP3    H255950   5.644   0.202   1.408 -0.5459 -3.5902  1.6566
11487TIP3   OH255951   3.505   2.482   5.757  0.6232  0.1530  0.6295
11487TIP3    H155952   3.551   2.401   5.736  1.3743  0.1952  1.9617
11487TIP3    H255953   3.499   2.482   5.853 -0.6720  0.9733  0.5738
11488TIP3   OH255954   1.678   3.883  15.655 -0.1034 -0.6171  0.3626
11488TIP3    H155955   1.692   3.970  15.693 -1.2672  0.1899 -0.9747
11488TIP3    H255956   1.606   3.846  15.706  0.9432 -1.1881  1.4908
11489TIP3   OH255957   4.732   1.333   3.280  0.3224  0.0196 -0.1063
11489TIP3    H155958   4.818   1.314   3.319  0.2727  0.6005  0.3009
11489TIP3    H255959   4.749   1.403   3.218  0.3947 -0.8908 -1.1419
11490TIP3   OH255960   5.425   3.253   1.402  0.4359 -0.6336  0.3127
11490TIP3    H155961   5.334   3.275   1.381 -0.3034 -2.7410  1.0167
11490TIP3    H255962   5.454   3.324   1.460 -1.2019 -0.5678  1.1176
11491TIP3   OH255963   4.952   4.788  11.443 -0.1995 -0.1953  0.7146
11491TIP3    H155964   5.024   4.728  11.422  0.4491  0.5841  0.6388
11491TIP3    H255965   4.880   4.760  11.386  0.7297  0.3306 -0.7822
11492TIP3   OH255966   6.196   5.146   4.998  0.1049 -0.4246  0.0541
11492TIP3    H155967   6.281   5.156   4.955 -1.4048 -0.8726 -3.3968
11492TIP3    H255968   6.195   5.054   5.026  0.7867 -0.3989  0.1877
11493TIP3   OH255969   1.605   5.334   3.239  0.0623  0.2795 -0.0134
11493TIP3    H155970   1.662   5.316   3.164 -1.1061 -1.7425 -0.4889
11493TIP3    H255971   1.571   5.248   3.264 -1.8496  1.2768  1.0132
11494TIP3   OH255972   0.519   0.881  15.919 -0.0555  0.2642 -0.2747
11494TIP3    H155973   0.578   0.937  15.969  0.0186  1.0430 -1.2114
11494TIP3    H255974   0.538   0.901  15.827 -0.3995 -0.9139 -0.6267
11495TIP3   OH255975   5.370   1.611  10.831  0.1070  0.9336  0.1899
11495TIP3    H155976   5.388   1.518  10.818  0.7555  0.9359  0.9995
11495TIP3    H255977   5.431   1.656  10.773  0.8023  0.8744  0.8561
11496TIP3   OH255978   2.153   0.475  16.804  0.1151 -0.2216  0.3195
11496TIP3    H155979   2.110   0.540  16.749 -0.6678 -1.4807 -0.6054
11496TIP3    H255980   2.240   0.466  16.766  0.2870  0.3815  0.5517
11497TIP3   OH255981   4.017   1.585  14.673 -0.3011  0.0001 -0.0895
11497TIP3    H155982   4.062   1.601  14.756 -0.4011 -1.0866  0.1802
11497TIP3    H255983   3.937   1.637  14.679  0.3974  1.1174 -0.1392
11498TIP3   OH255984   0.819   5.417   1.795 -0.9958  0.4103 -0.0755
11498TIP3    H155985   0.900   5.467   1.789 -0.0872 -1.1540 -1.7215
11498TIP3    H255986   0.806   5.403   1.888 -0.5464  2.4809  0.3479
11499TIP3   OH255987   5.899   3.049   1.664 -0.1181  0.5394  0.1125
11499TIP3    H155988   5.959   3.104   1.613  0.2505 -0.0389 -0.0905
11499TIP3    H255989   5.815   3.093   1.658 -0.6730 -0.6574 -2.9658
11500TIP3   OH255990   1.745   1.027  16.261  0.3077 -0.0710 -0.3141
11500TIP3    H155991   1.672   1.062  16.211 -0.4042  0.8648  1.3124
11500TIP3    H255992   1.793   1.104  16.292  1.8006 -0.6561 -1.0484
11501TIP3   OH255993   6.093   4.364   5.957  0.0836  0.0367 -0.1373
11501TIP3    H155994   6.014   4.358   6.010  0.0641  1.1276 -0.0204
11501TIP3    H255995   6.165   4.365   6.021  0.2094 -0.8888 -0.2401
11502TIP3   OH255996   2.359   5.739  14.238 -0.3191  0.2248  0.2382
11502TIP3    H155997   2.337   5.687  14.160  1.5092 -3.2901  1.8177
11502TIP3    H255998   2.275   5.749  14.284 -0.5803 -4.0573  1.1887
11503TIP3   OH255999   3.479   5.533   3.587 -0.2670  0.1946  0.0846
11503TIP3    H156000   3.442   5.505   3.503 -0.0758 -1.6696  0.5855
11503TIP3    H256001   3.410   5.587   3.627 -0.4842  0.8332 -1.1045
11504TIP3   OH256002   4.082   6.179  11.135  0.3460 -0.3185  0.0020
11504TIP3    H156003   4.012   6.243  11.151 -1.2673 -1.7178 -1.0297
11504TIP3    H256004   4.044   6.095  11.160  2.2580 -0.9748  0.9015
11505TIP3   OH256005   3.933   5.683   1.280  0.5436  0.4027  0.4174
11505TIP3    H156006   3.899   5.670   1.369  0.4727 -1.0142  0.2104
11505TIP3    H256007   4.016   5.635   1.278  0.8449  0.9228 -0.1181
11506TIP3   OH256008   5.102   1.273  10.811 -1.1509  0.7064  0.0246
11506TIP3    H156009   5.163   1.200  10.802 -0.5014  1.2754 -0.2848
11506TIP3    H256010   5.025   1.246  10.760 -0.6438  0.5154 -0.6559
11507TIP3   OH256011   3.429   0.528   3.564 -0.3530 -0.0949 -0.4180
11507TIP3    H156012   3.495   0.582   3.607 -0.3629  1.8333 -2.5931
11507TIP3    H256013   3.363   0.510   3.631  1.3515 -0.3259  1.2493
11508TIP3   OH256014   2.180   5.121   5.643 -0.8643  0.7403  0.1778
11508TIP3    H156015   2.192   5.192   5.580 -1.8289  1.4927  0.7984
11508TIP3    H256016   2.087   5.099   5.637 -0.3043 -1.4982 -1.0280
11509TIP3   OH256017   4.973   5.373   5.665  0.3840 -0.4760 -0.4064
11509TIP3    H156018   4.888   5.407   5.694 -0.0998 -1.2214 -0.9152
11509TIP3    H256019   4.974   5.282   5.692  1.2950 -0.3231  0.1386
11510TIP3   OH256020   1.169   2.473  13.664 -0.1770 -0.3456 -0.0382
11510TIP3    H156021   1.221   2.491  13.586 -0.5222 -0.1692 -0.2310
11510TIP3    H256022   1.147   2.380  13.656  1.0181 -0.6915  0.6011
11511TIP3   OH256023   0.310   4.964  11.325  0.1178  0.1100  0.0271
11511TIP3    H156024   0.215   4.968  11.316  0.0252 -0.6163  0.6216
11511TIP3    H256025   0.336   5.053  11.349 -0.6113 -0.0711  1.5980
11512TIP3   OH256026   1.077   1.760  16.393  0.0676 -0.0635  0.5068
11512TIP3    H156027   1.046   1.695  16.330  0.5563  0.1222  0.0697
11512TIP3    H256028   1.156   1.796  16.353  0.0622  0.4627  0.9622
11513TIP3   OH256029   4.331   0.307   2.419  0.5613 -0.2611  0.1539
11513TIP3    H156030   4.274   0.374   2.382  2.5849  1.7520  0.4489
11513TIP3    H256031   4.344   0.244   2.348 -2.1009 -0.9103  0.1564
11514TIP3   OH256032   3.296   5.995   5.952 -0.4058 -0.0010  0.3701
11514TIP3    H156033   3.254   5.951   6.026 -1.6221  0.3997 -0.0610
11514TIP3    H256034   3.258   5.955   5.875  1.6335 -1.1556 -0.1019
11515TIP3   OH256035   6.378   5.921  12.890 -0.0906  0.6261  0.4537
11515TIP3    H156036   6.434   5.850  12.857 -2.7120 -0.6054 -1.6559
11515TIP3    H256037   6.372   5.983  12.818 -1.1363  0.9268  0.7792
11516TIP3   OH256038   5.423   1.386   1.278  0.2702 -0.1763  0.0668
11516TIP3    H156039   5.487   1.396   1.208 -0.1215  0.5818 -0.1991
11516TIP3    H256040   5.341   1.366   1.232  0.5846 -2.7671  0.4681
11517TIP3   OH256041   6.481   2.528  15.257  0.2833 -0.4209 -0.9066
11517TIP3    H156042   6.550   2.501  15.318  1.8398 -0.0004 -2.3796
11517TIP3    H256043   6.472   2.455  15.196 -0.8773 -0.6290 -0.5108
11518TIP3   OH256044   2.012   6.814   5.656 -0.2195 -0.6207 -0.3430
11518TIP3    H156045   2.106   6.823   5.673  0.2101 -2.2389 -1.6072
11518TIP3    H256046   1.987   6.898   5.618  0.5361  0.0953  0.6656
11519TIP3   OH256047   0.446   4.368   2.270 -0.3518  0.0031 -1.0048
11519TIP3    H156048   0.438   4.338   2.179  3.5680  0.8943 -1.8482
11519TIP3    H256049   0.465   4.461   2.263  1.7077 -0.2330  0.5416
11520TIP3   OH256050   1.147   1.486  13.431  0.0703  0.4788  0.7071
11520TIP3    H156051   1.123   1.394  13.416 -1.2355  0.8269  0.5511
11520TIP3    H256052   1.235   1.482  13.466  0.6841 -0.7441 -0.8483
11521TIP3   OH256053   3.470   2.478  13.697 -0.4116 -0.2476  0.5965
11521TIP3    H156054   3.530   2.446  13.630  2.2268  1.4113  1.9979
11521TIP3    H256055   3.404   2.409  13.706  1.4866 -2.3516 -0.7861
11522TIP3   OH256056   0.430   6.222  13.997 -0.2579 -0.3518  0.1807
11522TIP3    H156057   0.477   6.183  14.071  0.6008 -2.2405 -1.2720
11522TIP3    H256058   0.338   6.207  14.017 -0.0159 -1.4369  0.5756
11523TIP3   OH256059   4.155   2.571  14.739  0.4094 -0.5848 -0.5851
11523TIP3    H156060   4.112   2.617  14.810  0.1260 -0.1653 -1.0272
11523TIP3    H256061   4.092   2.572  14.667  0.2260 -2.0024 -0.4881
11524TIP3   OH256062   4.690   4.945   5.218  0.1642  0.0189  0.0923
11524TIP3    H156063   4.707   4.921   5.127 -1.8400 -0.2332 -0.2659
11524TIP3    H256064   4.684   4.861   5.264  0.4340  0.1214  0.3199
11525TIP3   OH256065   5.879   2.455  11.061  0.3044 -0.6303  0.0345
11525TIP3    H156066   5.913   2.378  11.016  0.2310 -0.5874 -0.0965
11525TIP3    H256067   5.919   2.529  11.015 -0.3551 -0.5636 -0.4549
11526TIP3   OH256068   5.655   5.242   2.003 -0.0662  0.2376 -0.2026
11526TIP3    H156069   5.727   5.194   1.962 -0.3399  0.5059 -1.0220
11526TIP3    H256070   5.607   5.281   1.929 -1.7829 -0.9420  0.2303
11527TIP3   OH256071   3.862   2.311  11.877  0.0583  0.0614  0.4748
11527TIP3    H156072   3.816   2.299  11.960  0.8684  0.3946  0.9811
11527TIP3    H256073   3.792   2.324  11.812 -0.5421  1.4750  1.3775
11528TIP3   OH256074   3.779   5.165  14.040  0.5766 -0.4087  0.0815
11528TIP3    H156075   3.805   5.195  14.127 -0.6189  0.7996  0.0624
11528TIP3    H256076   3.689   5.135  14.052  0.8510 -1.4826 -0.4803
11529TIP3   OH256077   4.267   3.730   1.749 -0.0624  0.1023  0.2933
11529TIP3    H156078   4.330   3.725   1.677 -1.3563 -0.2001 -0.8450
11529TIP3    H256079   4.246   3.638   1.768  0.1047  0.1886  0.9322
11530TIP3   OH256080   6.076   1.541   1.931 -0.3781  0.5585 -0.2550
11530TIP3    H156081   6.100   1.496   2.012  2.3534 -2.4795 -2.4909
11530TIP3    H256082   6.117   1.627   1.938  1.6014 -0.3962  0.8145
11531TIP3   OH256083   2.906   5.013  14.377  0.7902  0.7067  0.4791
11531TIP3    H156084   2.900   4.925  14.413 -1.0420  0.8898  0.7135
11531TIP3    H256085   2.894   5.002  14.283 -0.5267  0.7742  0.6199
11532TIP3   OH256086   3.630   5.606   0.424  0.2559  0.3236 -0.2749
11532TIP3    H156087   3.714   5.569   0.450  0.9882  2.1001 -0.0454
11532TIP3    H256088   3.568   5.533   0.434  1.6863 -0.9174 -0.1371
11533TIP3   OH256089   5.367   2.243   4.602 -0.1304 -0.5226  0.1625
11533TIP3    H156090   5.278   2.207   4.610 -0.3804  0.0486 -0.0178
11533TIP3    H256091   5.379   2.258   4.509  1.3743 -3.6123 -0.2610
11534TIP3   OH256092   1.989   1.269   0.508 -0.0498 -0.1941  0.4293
11534TIP3    H156093   1.993   1.256   0.413 -1.8281  1.2184  0.1052
11534TIP3    H256094   1.930   1.200   0.538  0.3950 -0.5476  0.5089
11535TIP3   OH256095   0.710   2.001   2.953  0.0247 -0.5669 -0.2161
11535TIP3    H156096   0.752   1.919   2.930  0.0911 -0.9493  1.1906
11535TIP3    H256097   0.616   1.983   2.945  0.0359 -0.8232  0.1813
11536TIP3   OH256098   3.987   5.926  11.170 -0.1014  0.8942 -0.9461
11536TIP3    H156099   3.892   5.924  11.181 -0.0595  2.1211 -0.3284
11536TIP3    H256100   4.001   5.883  11.085 -1.2402  1.0704 -1.2439
11537TIP3   OH256101   2.593   1.756   3.205  0.2249 -0.5819  0.2571
11537TIP3    H156102   2.554   1.725   3.123 -0.9273 -0.3232  0.6947
11537TIP3    H256103   2.685   1.729   3.198  0.6524  1.1140 -1.9749
11538TIP3   OH256104   1.641   0.869   5.572 -0.1819  0.5824 -0.2119
11538TIP3    H156105   1.573   0.802   5.575  1.6750 -1.3658  0.9260
11538TIP3    H256106   1.658   0.882   5.479  0.1261 -1.3333 -0.4656
11539TIP3   OH256107   1.696   4.477   4.550  0.0247 -0.3550  0.4303
11539TIP3    H156108   1.719   4.558   4.595  1.8794  0.1321 -1.2801
11539TIP3    H256109   1.601   4.483   4.538 -0.1145  0.7366  1.8268
11540TIP3   OH256110   3.656   1.015  13.955  0.1715 -0.3720  0.3481
11540TIP3    H156111   3.705   1.085  13.911  1.1992 -0.5608  1.1770
11540TIP3    H256112   3.565   1.031  13.929  0.6181  0.1132 -1.0301
11541TIP3   OH256113   4.745   2.592  11.068 -0.1948  0.2047  0.9105
11541TIP3    H156114   4.768   2.575  11.160  0.3593  1.4033  1.0148
11541TIP3    H256115   4.779   2.517  11.020  0.2989 -0.0154  1.5884
11542TIP3   OH256116   0.584   4.918   6.467 -0.8677 -0.0882  0.2540
11542TIP3    H156117   0.649   4.977   6.505 -1.2404  0.0401  0.7011
11542TIP3    H256118   0.510   4.921   6.528 -0.8087 -1.1833  0.3992
11543TIP3   OH256119   5.456   5.661   3.022 -0.1028 -0.2453 -0.0630
11543TIP3    H156120   5.503   5.744   3.037 -1.1292  0.1126  1.4905
11543TIP3    H256121   5.424   5.668   2.933  0.0806  0.9216 -0.0652
11544TIP3   OH256122   3.144   0.618  15.743  0.0939  0.3024  0.0413
11544TIP3    H156123   3.175   0.541  15.697 -1.6190  0.4657 -1.5053
11544TIP3    H256124   3.176   0.692  15.692 -0.9957  0.5122 -0.3679
11545TIP3   OH256125   4.087   0.989   2.460  0.1019  0.2315 -0.2036
11545TIP3    H156126   4.077   1.074   2.417  0.4509 -1.0023 -2.9381
11545TIP3    H256127   4.178   0.965   2.445 -0.2759 -1.1103 -0.4590
11546TIP3   OH256128   0.506   0.594  13.309  0.0861 -0.2110  0.1298
11546TIP3    H156129   0.440   0.651  13.350  0.3476  0.3062 -0.1571
11546TIP3    H256130   0.560   0.565  13.383 -1.3891 -1.9386  0.6090
11547TIP3   OH256131   4.053   6.198   2.030  0.2479 -0.4285  0.3693
11547TIP3    H156132   4.105   6.278   2.028 -1.4295  0.7136 -1.7675
11547TIP3    H256133   4.015   6.191   1.942 -1.0166 -2.6541  1.0008
11548TIP3   OH256134   2.954   5.937   3.291  0.6563  0.5723 -0.4580
11548TIP3    H156135   3.043   5.955   3.322  1.2329 -0.1818 -1.6102
11548TIP3    H256136   2.905   5.917   3.371  1.9555 -0.7602  0.0648
11549TIP3   OH256137   2.997   3.457   5.560 -0.2676  0.7896  0.3581
11549TIP3    H156138   2.990   3.371   5.602  0.5195  1.4367  1.9103
11549TIP3    H256139   2.914   3.468   5.514 -1.4086  0.2036  2.1586
11550TIP3   OH256140   6.814   0.351   1.206 -0.2528  0.2129  0.2822
11550TIP3    H156141   6.888   0.291   1.201  0.1418  0.6487  0.8236
11550TIP3    H256142   6.739   0.294   1.227  0.5272  0.1564  3.2744
11551TIP3   OH256143   6.608   3.696   1.528  0.6564 -0.1705 -0.1234
11551TIP3    H156144   6.561   3.618   1.497 -0.7643  0.2606  0.8702
11551TIP3    H256145   6.632   3.674   1.619 -1.8161  1.3873  0.9832
11552TIP3   OH256146   4.369   6.583   0.668 -0.6418  0.4521  0.7780
11552TIP3    H156147   4.463   6.577   0.653 -0.7412 -1.2430  0.6172
11552TIP3    H256148   4.346   6.672   0.641  0.4605  0.0370 -1.8442
11553TIP3   OH256149   5.057   2.994  12.460 -0.0050  0.0675 -0.2300
11553TIP3    H156150   5.032   2.909  12.495  0.9081 -0.6368 -1.2250
11553TIP3    H256151   5.060   3.051  12.537 -0.7604 -0.7521  0.4318
11554TIP3   OH256152   5.529   4.726  12.927  0.3179  0.6261 -0.0744
11554TIP3    H156153   5.552   4.776  12.849 -1.9217 -1.0406 -1.9340
11554TIP3    H256154   5.557   4.637  12.908 -0.2738  0.1883  1.0112
11555TIP3   OH256155   1.425   1.529  12.934 -0.2665  0.0015 -0.2643
11555TIP3    H156156   1.521   1.529  12.943 -0.2302  0.0752 -0.6169
11555TIP3    H256157   1.394   1.582  13.007 -0.1858 -1.8773  1.2158
11556TIP3   OH256158   6.759   5.672  11.900  0.0586  0.1089 -0.2405
11556TIP3    H156159   6.853   5.661  11.884 -0.0233  0.2852 -0.8447
11556TIP3    H256160   6.731   5.736  11.835 -0.2595  0.9265  0.6702
11557TIP3   OH256161   6.061   6.134   1.004  0.0218  0.1718 -0.1301
11557TIP3    H156162   5.975   6.176   1.015 -0.7781 -1.3054 -0.4401
11557TIP3    H256163   6.063   6.065   1.070  0.5497 -0.4389 -0.7634
11558TIP3   OH256164   6.265   5.155   3.296  0.2904  0.0404 -0.1961
11558TIP3    H156165   6.303   5.077   3.338  0.0488  0.6692  1.2647
11558TIP3    H256166   6.341   5.206   3.266  0.4860 -0.2185 -0.1469
11559TIP3   OH256167   2.961   1.757  13.285 -0.4698  0.0417 -0.1464
11559TIP3    H156168   2.987   1.779  13.375 -1.3497  0.9913 -0.1009
11559TIP3    H256169   2.968   1.662  13.281  2.5355  0.1617 -0.0244
11560TIP3   OH256170   3.378   3.777   1.695  0.5493  0.7163 -0.4105
11560TIP3    H156171   3.309   3.805   1.635 -0.2792  0.0576  0.2193
11560TIP3    H256172   3.352   3.689   1.723  1.5153  0.5571  0.0313
11561TIP3   OH256173   4.334   3.243   1.017 -0.9864  0.4185 -0.2822
11561TIP3    H156174   4.313   3.323   1.064  0.8488  0.4149  0.6519
11561TIP3    H256175   4.366   3.273   0.931 -0.6689  0.6700 -0.0772
11562TIP3   OH256176   3.866   3.566   6.328 -0.2586  0.1514  0.0813
11562TIP3    H156177   3.853   3.645   6.381  0.4558 -0.1270  0.6680
11562TIP3    H256178   3.808   3.501   6.367 -1.0552  0.4519 -0.5705
11563TIP3   OH256179   1.967   0.218  10.403 -0.4216  0.0269  0.0634
11563TIP3    H156180   1.891   0.194  10.455 -1.2829  1.0335 -0.6782
11563TIP3    H256181   2.015   0.281  10.458 -0.5949  0.0516  0.1847
11564TIP3   OH256182   4.080   5.217   1.687  0.1558  0.6068  0.5715
11564TIP3    H156183   4.043   5.300   1.717  0.2700  0.4005  1.3204
11564TIP3    H256184   4.074   5.160   1.764  0.7970  0.1656  0.2990
11565TIP3   OH256185   2.958   3.193   5.669 -0.0183  0.2361  0.1944
11565TIP3    H156186   2.878   3.153   5.636 -0.1047 -0.4038  1.1291
11565TIP3    H256187   2.943   3.202   5.763  1.1722 -0.3165  0.4652
11566TIP3   OH256188   1.714   6.458  10.623  0.3946 -0.3460  0.0197
11566TIP3    H156189   1.708   6.546  10.661  0.1198 -1.2042  2.1163
11566TIP3    H256190   1.792   6.461  10.568  0.4329  1.1912  0.1045
11567TIP3   OH256191   0.538   1.816  16.846 -0.0060 -0.4183  0.2167
11567TIP3    H156192   0.549   1.895  16.898 -1.9602 -0.4421  0.7380
11567TIP3    H256193   0.600   1.827  16.773  0.7431  0.9239  1.0102
11568TIP3   OH256194   2.255   1.836  16.234 -0.4753 -0.1917 -0.0743
11568TIP3    H156195   2.296   1.754  16.259 -1.2609 -0.3647  0.7173
11568TIP3    H256196   2.326   1.889  16.198  0.3783 -0.6095  0.9333
11569TIP3   OH256197   3.225   6.392   3.586  0.0666 -0.2138  0.4349
11569TIP3    H156198   3.321   6.390   3.587  0.2005  1.7935  3.1027
11569TIP3    H256199   3.203   6.472   3.539 -0.3245 -0.6254 -0.0951
11570TIP3   OH256200   1.067   3.082   4.844 -0.2639 -0.2546 -0.2190
11570TIP3    H156201   0.994   3.024   4.868 -0.2041 -1.3319 -2.4250
11570TIP3    H256202   1.024   3.162   4.813 -0.6517 -1.3483 -2.7112
11571TIP3   OH256203   3.369   4.669  16.335  0.0207 -0.3013 -0.2340
11571TIP3    H156204   3.328   4.705  16.414  1.3566 -0.2003  0.4538
11571TIP3    H256205   3.376   4.744  16.276  1.0166  0.1560  0.4310
11572TIP3   OH256206   0.765   0.440   1.395  0.0269  0.0643 -0.4704
11572TIP3    H156207   0.790   0.480   1.312 -1.7943 -1.4938 -1.8720
11572TIP3    H256208   0.836   0.377   1.413  0.4693  0.4617 -0.7972
11573TIP3   OH256209   3.096   1.717  14.856  0.0782  0.3193 -0.1351
11573TIP3    H156210   3.074   1.646  14.917 -1.8776  0.1270 -0.9864
11573TIP3    H256211   3.160   1.678  14.797  2.7520  0.7826  2.2305
11574TIP3   OH256212   3.894   6.662  14.091  0.5510  0.2300 -0.3312
11574TIP3    H156213   3.989   6.662  14.083  0.4853 -0.7247 -1.2464
11574TIP3    H256214   3.867   6.742  14.046  0.8640  0.0013 -0.9405
11575TIP3   OH256215   2.670   4.849   2.798 -0.1699  0.1372  0.0262
11575TIP3    H156216   2.704   4.830   2.711 -2.5306 -1.6286 -0.6087
11575TIP3    H256217   2.634   4.937   2.790 -0.1342  0.0922 -0.7114
11576TIP3   OH256218   4.175   3.461  11.051 -0.5013 -0.5836 -0.3009
11576TIP3    H156219   4.229   3.539  11.034  0.4926 -0.9770  0.8761
11576TIP3    H256220   4.190   3.442  11.144 -1.3696 -1.7069 -0.3804
11577TIP3   OH256221   0.294   3.500   1.957 -0.8825  0.1064  0.3194
11577TIP3    H156222   0.212   3.450   1.946 -0.7959  0.2725 -1.2985
11577TIP3    H256223   0.328   3.471   2.042 -0.4733 -3.1884 -0.8081
11578TIP3   OH256224   0.930   3.065  16.201 -0.3639  0.0053 -0.6767
11578TIP3    H156225   0.913   3.118  16.278 -0.7243 -0.0741 -0.7015
11578TIP3    H256226   1.008   3.104  16.162 -1.1975  1.1492 -1.2597
11579TIP3   OH256227   0.533   6.612   2.129  0.1510 -0.5614 -0.1440
11579TIP3    H156228   0.581   6.693   2.111  1.3440 -0.9546  1.0614
11579TIP3    H256229   0.559   6.553   2.058 -0.1297 -0.1430 -0.6044
11580TIP3   OH256230   5.649   4.810   5.962  0.4071 -0.2670 -0.5719
11580TIP3    H156231   5.687   4.865   6.031  0.1161 -1.1498  0.3163
11580TIP3    H256232   5.644   4.867   5.886 -1.7644  1.6124  0.8527
11581TIP3   OH256233   4.999   4.112   4.627 -0.0506 -0.1870 -0.4924
11581TIP3    H156234   4.994   4.183   4.691 -2.2080 -0.4029 -0.3166
11581TIP3    H256235   5.009   4.156   4.542  2.4461  0.1149 -0.1050
11582TIP3   OH256236   0.950   4.827  10.640 -0.3635  0.1527  0.0056
11582TIP3    H156237   0.889   4.764  10.601 -0.8885  1.3131 -1.1693
11582TIP3    H256238   0.897   4.907  10.651  0.5882  0.7652  0.2559
11583TIP3   OH256239   6.272   3.192   1.880  0.5819 -0.3277  0.0294
11583TIP3    H156240   6.321   3.274   1.891  0.1387  0.1013 -1.1393
11583TIP3    H256241   6.237   3.195   1.791 -0.8842 -1.0098  0.5468
11584TIP3   OH256242   5.834   3.429   0.711 -0.1677  0.4984 -0.0003
11584TIP3    H156243   5.910   3.427   0.653  1.5931 -0.8751  2.1763
11584TIP3    H256244   5.779   3.357   0.681  0.3141  0.3221 -0.4819
11585TIP3   OH256245   4.302   0.232   1.048  0.7306 -0.8134  0.2931
11585TIP3    H156246   4.377   0.290   1.054  0.6383 -0.6759  0.1187
11585TIP3    H256247   4.296   0.210   0.955 -0.8737  1.0599 -0.1114
11586TIP3   OH256248   1.756   3.379  16.193 -0.4416  0.6085 -0.7935
11586TIP3    H156249   1.697   3.310  16.164  1.3098 -1.5294  0.4606
11586TIP3    H256250   1.769   3.362  16.286  2.4117  0.7483 -1.0917
11587TIP3   OH256251   1.128   0.823  11.145 -0.1905 -0.0638 -0.3409
11587TIP3    H156252   1.097   0.869  11.067  1.7231  0.3268 -0.9065
11587TIP3    H256253   1.137   0.892  11.211 -0.9533 -0.2577 -0.0190
11588TIP3   OH256254   1.435   6.485   2.253  0.3527 -0.6892  0.1039
11588TIP3    H156255   1.448   6.534   2.172 -1.0688  1.4235  1.0383
11588TIP3    H256256   1.416   6.396   2.225  1.1430 -0.3046 -1.8119
11589TIP3   OH256257   4.506   6.244   4.793 -1.1495  0.3121  0.9796
11589TIP3    H156258   4.550   6.213   4.871 -1.2757  1.4609  1.5259
11589TIP3    H256259   4.470   6.330   4.817  1.5969  2.2952 -1.2408
11590TIP3   OH256260   0.093   0.866  14.247  0.1184 -0.4461 -0.2051
11590TIP3    H156261   0.051   0.781  14.236  0.7521 -0.8155  0.1851
11590TIP3    H256262   0.083   0.909  14.162  1.0846 -1.5003 -0.8815
11591TIP3   OH256263   2.709   6.519  12.195  0.2701  0.0213 -0.2896
11591TIP3    H156264   2.728   6.446  12.136 -0.1756  0.6541 -1.2390
11591TIP3    H256265   2.623   6.498  12.232  1.2338 -1.1782  1.4297
11592TIP3   OH256266   1.115   2.624  15.244  0.1247  0.1182  0.3034
11592TIP3    H156267   1.112   2.711  15.203  2.3798 -0.1985 -0.6519
11592TIP3    H256268   1.132   2.643  15.337 -2.5565  0.7347  0.7786
11593TIP3   OH256269   3.197   0.033   5.820 -0.5324  0.0132  0.1980
11593TIP3    H156270   3.274   0.073   5.860 -0.4319  0.0844 -0.0617
11593TIP3    H256271   3.128   0.099   5.828 -0.7215 -0.2690  0.9346
11594TIP3   OH256272   3.220   5.303  16.293 -0.3047  0.0221  0.1427
11594TIP3    H156273   3.290   5.362  16.320 -0.0120 -1.1770  2.2894
11594TIP3    H256274   3.192   5.335  16.208  3.4624  0.0532 -1.2797
11595TIP3   OH256275   6.702   3.776   0.359  0.5605  0.1505 -0.2979
11595TIP3    H156276   6.653   3.728   0.292 -0.2523  0.4502  0.0653
11595TIP3    H256277   6.641   3.844   0.389  0.4726 -0.6532  1.5207
11596TIP3   OH256278   6.141   0.760  15.967 -0.8800  0.2030 -0.0765
11596TIP3    H156279   6.184   0.773  15.882  1.0625  0.2252  0.8666
11596TIP3    H256280   6.187   0.819  16.027  0.5014 -2.6127  1.8469
11597TIP3   OH256281   5.557   2.394   1.321  0.2101 -0.3760 -0.5015
11597TIP3    H156282   5.526   2.403   1.411  3.7618 -1.3376  1.0103
11597TIP3    H256283   5.508   2.321   1.286 -0.5051 -0.6773  1.0430
11598TIP3   OH256284   3.443   6.530  17.180  0.0180 -0.0627 -0.3669
11598TIP3    H156285   3.416   6.539  17.271  1.4904 -0.4687  0.1441
11598TIP3    H256286   3.526   6.577  17.174 -0.0689 -0.0111 -1.5158
11599TIP3   OH256287   3.632   5.208  13.395  0.0012 -0.0284 -0.3222
11599TIP3    H156288   3.614   5.220  13.489  1.0164 -0.0197 -0.1119
11599TIP3    H256289   3.560   5.154  13.363 -0.0326 -0.5596  0.6074
11600TIP3   OH256290   3.041   3.387   1.945 -0.2454  0.5037  0.1809
11600TIP3    H156291   3.078   3.475   1.933  0.1703  0.4894  1.2490
11600TIP3    H256292   2.978   3.378   1.873  2.7128  0.0330 -2.6300
11601TIP3   OH256293   0.605   2.712  13.464 -0.0603 -0.2691  0.0605
11601TIP3    H156294   0.570   2.627  13.435  1.2226 -0.7961 -0.0087
11601TIP3    H256295   0.591   2.770  13.389 -2.3901  0.0427  0.6586
11602TIP3   OH256296   0.375   1.321   1.395  0.8341 -0.2074  0.0072
11602TIP3    H156297   0.382   1.407   1.355  0.1667 -0.0794  0.1598
11602TIP3    H256298   0.285   1.316   1.426  0.3761 -1.5626 -1.3911
11603TIP3   OH256299   0.469   0.792  16.790 -0.3465  0.0975  0.0471
11603TIP3    H156300   0.507   0.707  16.769  1.0426  1.5069 -4.2066
11603TIP3    H256301   0.381   0.790  16.754 -0.3796  0.4161  0.1021
11604TIP3   OH256302   5.211   6.433  14.557  0.1215  0.7637 -0.0955
11604TIP3    H156303   5.132   6.451  14.507  0.5042  1.3266 -0.4976
11604TIP3    H256304   5.279   6.419  14.492  0.1092 -1.0022  0.2076
11605TIP3   OH256305   3.801   6.415   5.099 -0.1611  0.1477  0.1091
11605TIP3    H156306   3.755   6.397   5.181  1.5258 -0.4612  0.9738
11605TIP3    H256307   3.733   6.446   5.039 -2.1200 -2.8238  0.5990
11606TIP3   OH256308   5.843   6.262   5.148  0.4449  0.1693  0.2824
11606TIP3    H156309   5.891   6.273   5.230 -1.1700 -0.1250  1.3219
11606TIP3    H256310   5.762   6.311   5.161  0.5253  0.8431 -1.4936
11607TIP3   OH256311   3.917   2.211   2.785 -0.8368 -0.2099  0.5821
11607TIP3    H156312   3.917   2.297   2.827 -1.1322 -0.3023  0.7736
11607TIP3    H256313   4.007   2.199   2.755 -0.9280  0.4346  0.0086
11608TIP3   OH256314   0.808   5.178   3.647  0.4174  0.0729 -0.0207
11608TIP3    H156315   0.780   5.147   3.561 -0.4467  2.2840 -0.5895
11608TIP3    H256316   0.728   5.176   3.700  0.2974  1.5015 -0.1361
11609TIP3   OH256317   0.041   3.926   0.692  0.2002 -0.1399 -0.1500
11609TIP3    H156318  -0.051   3.951   0.680  0.4244  0.0304 -1.9199
11609TIP3    H256319   0.044   3.834   0.666  0.4728 -0.2557  0.2862
11610TIP3   OH256320   2.246   1.511  15.455  0.1253  0.3203 -0.3850
11610TIP3    H156321   2.212   1.529  15.543  0.1373  0.1391 -0.3417
11610TIP3    H256322   2.318   1.449  15.470 -1.9316 -2.3709 -0.7608
11611TIP3   OH256323   5.797   0.152  15.578 -0.3579  0.1962  0.0006
11611TIP3    H156324   5.791   0.127  15.670 -1.5153 -1.8160 -0.5564
11611TIP3    H256325   5.715   0.197  15.559 -1.7494 -2.4305 -0.7888
11612TIP3   OH256326   4.002   5.256   6.376 -0.8487  0.4817 -0.2054
11612TIP3    H156327   4.088   5.286   6.346  0.3556 -1.2506  1.3051
11612TIP3    H256328   3.960   5.223   6.297  1.0898 -1.3566 -0.5753
11613TIP3   OH256329   5.004   1.250   2.654  0.0549  0.2333  0.6525
11613TIP3    H156330   4.990   1.256   2.559  1.7746  0.2946  0.3557
11613TIP3    H256331   4.984   1.337   2.687  0.7503  0.6134  0.1151
11614TIP3   OH256332   4.880   4.716   6.171 -0.1031 -0.2798 -0.0595
11614TIP3    H156333   4.830   4.736   6.091 -0.5203  3.3767  0.9436
11614TIP3    H256334   4.951   4.658   6.141 -0.9499 -0.0166 -2.8458
11615TIP3   OH256335   3.383   0.016  11.402 -0.4154 -0.7539  0.2305
11615TIP3    H156336   3.368  -0.078  11.391 -0.0226 -0.6395 -1.5707
11615TIP3    H256337   3.297   0.055  11.388 -0.2509 -0.7427 -0.8491
11616TIP3   OH256338   4.310   5.581  12.080  0.2294  0.2441  0.3033
11616TIP3    H156339   4.282   5.593  12.171 -0.4579 -0.4661  0.1900
11616TIP3    H256340   4.313   5.670  12.045  0.6936  0.5460  1.0710
11617TIP3   OH256341   1.659   0.384  13.038 -0.5894 -0.0361 -0.3477
11617TIP3    H156342   1.588   0.421  12.985  1.0693 -0.1030 -2.7610
11617TIP3    H256343   1.719   0.457  13.051  0.2534 -0.6354 -0.7936
11618TIP3   OH256344   5.810   0.327  10.952  0.0763 -0.7901  0.3346
11618TIP3    H156345   5.741   0.393  10.963  0.5161 -0.2021 -0.3406
11618TIP3    H256346   5.828   0.297  11.041  1.7993  2.0252  1.0776
11619TIP3   OH256347   3.531   3.151   4.340 -0.3162  0.3536 -0.2346
11619TIP3    H156348   3.461   3.211   4.314  0.6050  1.3744 -0.4223
11619TIP3    H256349   3.534   3.086   4.270 -0.9930  0.3757 -0.2886
11620TIP3   OH256350   2.924   6.808  11.961  0.0528  0.0508 -0.4730
11620TIP3    H156351   2.970   6.891  11.952  0.2473 -0.0728 -0.6110
11620TIP3    H256352   2.839   6.832  11.998 -0.0383  0.3534 -0.8729
11621TIP3   OH256353   0.233   5.634   0.718 -0.0234  0.0195  0.2437
11621TIP3    H156354   0.191   5.569   0.663  1.0163 -0.7951  0.3725
11621TIP3    H256355   0.275   5.583   0.787 -0.4495  0.9436  1.2187
11622TIP3   OH256356   4.343   6.048   0.955 -0.3969 -0.5961 -0.3624
11622TIP3    H156357   4.424   6.045   0.904 -0.9266 -0.0597 -1.2544
11622TIP3    H256358   4.371   6.035   1.046  0.8797  1.3273 -0.4405
11623TIP3   OH256359   2.646   4.521   0.081 -0.0615  0.6380  0.2991
11623TIP3    H156360   2.710   4.576   0.035  0.0115  1.1082  0.9336
11623TIP3    H256361   2.655   4.548   0.173 -0.9356  0.4711  0.4373
11624TIP3   OH256362   6.754   4.171  13.163 -0.3301 -0.3916  0.7829
11624TIP3    H156363   6.723   4.158  13.074  1.0067  1.0511  0.0516
11624TIP3    H256364   6.717   4.255  13.190 -0.8797 -0.9023  1.6854
11625TIP3   OH256365   6.233   0.552  15.787  0.6215  0.3619  0.3044
11625TIP3    H156366   6.265   0.549  15.878 -1.3878 -0.5534  1.0473
11625TIP3    H256367   6.140   0.532  15.794 -0.3177  3.3978 -1.6795
11626TIP3   OH256368   4.452   6.804   0.130  0.2693 -0.1792  0.0706
11626TIP3    H156369   4.500   6.739   0.079  1.5721 -0.7988  1.9753
11626TIP3    H256370   4.360   6.786   0.111  0.6725 -0.9839 -1.2708
11627TIP3   OH256371   4.638   0.946   0.031 -0.1079  0.2681  0.6348
11627TIP3    H156372   4.725   0.955  -0.008  0.3177  0.1929  1.5474
11627TIP3    H256373   4.649   0.878   0.097 -1.1900 -0.7187 -0.1686
11628TIP3   OH256374   2.514   3.740   3.723 -0.7236 -0.5080  0.3815
11628TIP3    H156375   2.542   3.831   3.722 -1.7704 -0.0539  3.2837
11628TIP3    H256376   2.593   3.690   3.745  0.1541 -0.5472 -2.4791
11629TIP3   OH256377   1.689   6.324  16.991  0.1139 -0.0667  0.2978
11629TIP3    H156378   1.629   6.300  16.919 -1.0210  0.6275  0.9755
11629TIP3    H256379   1.658   6.410  17.020  1.3493  0.2295  0.8039
11630TIP3   OH256380   5.736   1.146  16.716  0.3429  0.1783 -0.3046
11630TIP3    H156381   5.693   1.229  16.696 -0.4919  0.0992  1.0017
11630TIP3    H256382   5.809   1.141  16.655 -0.0491  1.5053 -0.9194
11631TIP3   OH256383   3.263   2.800   0.378  0.0637 -0.3389  0.1742
11631TIP3    H156384   3.181   2.812   0.329 -0.2458  1.5555  1.0712
11631TIP3    H256385   3.328   2.781   0.311 -0.6674  0.4896 -0.8107
11632TIP3   OH256386   6.237   0.951  10.574  0.3831  0.1015 -0.3032
11632TIP3    H156387   6.243   0.875  10.516  2.8634 -1.3783  1.6936
11632TIP3    H256388   6.303   1.011  10.542  0.7393 -0.0749  0.0887
11633TIP3   OH256389   3.312   6.352   3.935  0.3436  0.7117  0.0528
11633TIP3    H156390   3.377   6.422   3.936  0.0119  1.0627 -1.0246
11633TIP3    H256391   3.239   6.388   3.884 -1.4811  0.9919  2.6241
11634TIP3   OH256392   1.327   5.548   1.421  0.1841 -0.7243 -0.9044
11634TIP3    H156393   1.363   5.614   1.479  0.8784 -0.6113 -1.4585
11634TIP3    H256394   1.328   5.467   1.473  2.9572 -1.1416 -1.4634
11635TIP3   OH256395   2.764   6.656  14.076  0.1781 -0.4176  0.3698
11635TIP3    H156396   2.835   6.664  14.012  0.1247  1.0493  0.4651
11635TIP3    H256397   2.684   6.661  14.025  0.1356  0.7891  0.5481
11636TIP3   OH256398   6.648   6.028  16.796 -0.2189  0.3511 -0.0573
11636TIP3    H156399   6.729   5.994  16.836 -1.0373 -1.1802  0.3961
11636TIP3    H256400   6.592   5.951  16.786 -2.3566  1.6068  1.3408
11637TIP3   OH256401   0.307   5.856   3.185 -0.1000 -0.4007 -0.1765
11637TIP3    H156402   0.314   5.936   3.133  1.0808 -0.9002 -0.8000
11637TIP3    H256403   0.258   5.883   3.263 -1.4508  0.4631 -1.2914
11638TIP3   OH256404   3.837   1.212  15.534  0.2123 -0.4641 -0.2078
11638TIP3    H156405   3.926   1.183  15.516  0.3875  0.8720 -1.7804
11638TIP3    H256406   3.817   1.273  15.463 -2.3043 -1.4261 -0.4185
11639TIP3   OH256407   5.334   5.936  16.945  0.5217 -0.2747 -0.7908
11639TIP3    H156408   5.337   5.892  16.860 -1.0030  0.2429 -1.1417
11639TIP3    H256409   5.281   5.877  17.000 -0.3580  0.4259 -0.8624
11640TIP3   OH256410   3.062   2.928  11.592  0.3155  0.1687  0.3030
11640TIP3    H156411   3.079   2.866  11.663  0.7834  0.7544  0.7148
11640TIP3    H256412   3.078   2.878  11.512  1.2266 -0.1067  0.6420
11641TIP3   OH256413   2.098   5.407   2.447 -1.0526 -0.2446 -0.6192
11641TIP3    H156414   2.182   5.362   2.438 -0.0631  1.1189  1.1701
11641TIP3    H256415   2.046   5.349   2.502  0.2412  0.6924  1.7441
11642TIP3   OH256416   6.161   2.746  14.994 -0.0344  0.1151  0.4616
11642TIP3    H156417   6.104   2.804  15.044  2.1818  1.2558  1.8026
11642TIP3    H256418   6.165   2.665  15.046 -1.8561 -0.7464 -0.6143
11643TIP3   OH256419   3.507   1.059  16.105 -0.1310  0.5074 -0.0404
11643TIP3    H156420   3.433   1.080  16.162 -0.3785 -0.5395  0.0525
11643TIP3    H256421   3.497   1.118  16.030  0.5923  2.3789  1.2863
11644TIP3   OH256422   1.203   5.695   2.679 -0.1215  0.4427 -0.6230
11644TIP3    H156423   1.167   5.770   2.633 -0.7736  0.6174  0.1494
11644TIP3    H256424   1.177   5.620   2.625  0.6134  0.7630 -1.4441
11645TIP3   OH256425   0.925   5.233  13.505 -0.0076 -0.4345  0.0722
11645TIP3    H156426   0.879   5.295  13.449  2.4444 -0.9143 -2.6841
11645TIP3    H256427   0.980   5.288  13.562  1.7740  0.0672 -2.0102
11646TIP3   OH256428   2.655   1.805   4.974 -0.3843 -0.4164  0.4562
11646TIP3    H156429   2.648   1.784   5.067  0.7035 -1.6455  0.2737
11646TIP3    H256430   2.718   1.743   4.939 -2.9005 -1.9522 -1.7090
11647TIP3   OH256431   3.358   6.203   2.534 -0.4398  0.0349  0.2664
11647TIP3    H156432   3.346   6.261   2.459 -1.0762 -1.1561 -0.5995
11647TIP3    H256433   3.326   6.253   2.609  0.3833  1.3173 -0.2041
11648TIP3   OH256434   5.547   5.072   5.563  0.4188  0.6454 -0.6917
11648TIP3    H156435   5.570   5.137   5.497 -0.0208  0.9215 -0.5777
11648TIP3    H256436   5.452   5.063   5.556  0.3505  0.7725 -0.0107
11649TIP3   OH256437   0.113   0.089  14.312  0.2592 -0.5151  0.0510
11649TIP3    H156438   0.088  -0.000  14.336  2.5812 -0.9076  1.2934
11649TIP3    H256439   0.133   0.084  14.218  0.6375 -1.3782  0.1698
11650TIP3   OH256440   6.552   2.302  14.021  0.4938  0.3663  0.9735
11650TIP3    H156441   6.473   2.354  14.042 -0.8701 -1.2297  0.0371
11650TIP3    H256442   6.518   2.217  13.995  2.6115 -0.6295  1.2753
11651TIP3   OH256443   3.988   6.453   4.700  0.0372 -0.2705  0.0193
11651TIP3    H156444   4.015   6.536   4.740 -3.5732  2.5363 -2.6736
11651TIP3    H256445   4.046   6.443   4.625 -0.4429  0.6921 -0.4961
11652TIP3   OH256446   0.423   4.550  17.052 -0.0117  0.2824 -0.7367
11652TIP3    H156447   0.495   4.591  17.005 -0.5845  0.7332 -1.2385
11652TIP3    H256448   0.355   4.618  17.055 -0.1733  0.0906  0.2965
11653TIP3   OH256449   3.988   4.470  14.576  0.0971 -0.6463 -0.4029
11653TIP3    H156450   4.052   4.435  14.514 -0.8118 -0.6765 -1.3439
11653TIP3    H256451   3.932   4.395  14.596 -1.5906  0.1175 -2.0807
11654TIP3   OH256452   1.024   2.801   3.832  0.2466 -0.0194  0.0414
11654TIP3    H156453   0.991   2.889   3.851  1.1035  0.4121 -0.4165
11654TIP3    H256454   1.021   2.794   3.737  1.8647  0.2162 -0.0627
11655TIP3   OH256455   1.639   6.247   1.092 -0.0188  0.2011  0.5731
11655TIP3    H156456   1.610   6.171   1.042  1.2676  0.5793 -0.8179
11655TIP3    H256457   1.712   6.216   1.145 -0.9224 -0.0272  1.7284
11656TIP3   OH256458   0.813   1.153   1.154  0.0379 -0.3068 -0.0698
11656TIP3    H156459   0.811   1.079   1.094 -0.2176  0.2705 -0.7950
11656TIP3    H256460   0.723   1.160   1.186  0.4076 -1.2937  1.2575
11657TIP3   OH256461   0.085   0.803   5.338 -0.5455  0.0150 -0.2822
11657TIP3    H156462   0.018   0.862   5.305 -0.6946 -0.8492 -1.6145
11657TIP3    H256463   0.167   0.850   5.324 -0.6398 -0.1627 -1.5674
11658TIP3   OH256464   2.910   0.014   4.898  0.1110 -0.3344  0.1692
11658TIP3    H156465   2.915  -0.044   4.822 -1.9511  0.3825 -0.5688
11658TIP3    H256466   2.973   0.083   4.879 -0.0537 -0.4039 -0.6755
11659TIP3   OH256467   6.084   1.294  11.176 -0.5127  0.1513 -0.0439
11659TIP3    H156468   6.007   1.247  11.144 -0.0228  0.0415 -1.1122
11659TIP3    H256469   6.057   1.386  11.178 -1.4816 -0.1072  2.0640
11660TIP3   OH256470   3.264   2.584   0.569 -0.0947 -0.1948  0.0559
11660TIP3    H156471   3.258   2.653   0.503  1.3194  0.6851  0.8064
11660TIP3    H256472   3.329   2.522   0.534  0.9510  0.4775  0.7804
11661TIP3   OH256473   5.164   5.396  16.161 -0.1487 -0.6487 -0.6564
11661TIP3    H156474   5.259   5.401  16.172 -0.0901 -0.6356 -1.1312
11661TIP3    H256475   5.145   5.458  16.090 -0.0206 -3.3322 -3.2469
11662TIP3   OH256476   3.393   3.786  14.207 -0.2626 -0.8542  0.8514
11662TIP3    H156477   3.335   3.847  14.253  0.0889 -0.2863  0.5495
11662TIP3    H256478   3.357   3.699  14.227 -2.1674 -0.4518 -0.6309
11663TIP3   OH256479   1.766   3.306  11.776  0.4309 -0.0505 -0.3119
11663TIP3    H156480   1.790   3.308  11.868 -0.2509  0.3044 -0.1348
11663TIP3    H256481   1.815   3.378  11.737  0.9497 -0.3835 -0.2970
11664TIP3   OH256482   5.078   6.312   6.286 -0.2826 -0.0735  0.7202
11664TIP3    H156483   5.015   6.357   6.342 -1.0957  0.0511 -0.2710
11664TIP3    H256484   5.026   6.247   6.238  0.5963 -0.9859  0.9636
11665TIP3   OH256485   5.504   6.132   1.811 -0.0070 -0.3278  1.0939
11665TIP3    H156486   5.426   6.178   1.780  0.7353  0.1180 -0.2000
11665TIP3    H256487   5.496   6.132   1.906 -1.6157 -0.3598  0.9840
11666TIP3   OH256488   1.349   5.660  13.093 -0.3924  0.2936 -0.0676
11666TIP3    H156489   1.305   5.616  13.020  1.3551 -2.1475  0.2108
11666TIP3    H256490   1.435   5.683  13.059  0.0927 -0.0036  0.9218
11667TIP3   OH256491   6.477   4.432   4.236  0.0114  0.5973 -0.7207
11667TIP3    H156492   6.565   4.462   4.214  0.4381 -1.4213 -2.0985
11667TIP3    H256493   6.489   4.378   4.315 -0.1954  1.1658 -0.2882
11668TIP3   OH256494   5.159   2.058  14.177 -0.4609 -0.0561  0.2888
11668TIP3    H156495   5.227   2.081  14.240 -0.6832 -0.0243  0.5164
11668TIP3    H256496   5.146   1.964  14.189 -0.2447 -0.1213  0.0342
11669TIP3   OH256497   0.986   3.080   3.917 -0.1070  0.1422 -0.4280
11669TIP3    H156498   1.016   3.169   3.937  1.9635 -0.2197 -1.5987
11669TIP3    H256499   1.001   3.070   3.823 -3.2392 -0.4496 -0.9799
11670TIP3   OH256500   0.116   2.203   5.336  0.1246  0.1576  0.0300
11670TIP3    H156501   0.057   2.166   5.271 -1.1930  2.0941  0.0456
11670TIP3    H256502   0.164   2.271   5.289 -0.2187  0.9856  0.8464
11671TIP3   OH256503   5.407   0.482  14.509 -0.2364 -0.3803  0.7717
11671TIP3    H156504   5.373   0.513  14.593 -0.6139  2.3236 -0.2592
11671TIP3    H256505   5.480   0.541  14.489  0.4590 -1.5676 -0.3867
11672TIP3   OH256506   6.552   1.816   4.118  0.4021  0.1001 -0.8613
11672TIP3    H156507   6.534   1.755   4.048 -0.3224 -1.0226  0.2716
11672TIP3    H256508   6.524   1.901   4.084 -0.2740 -0.4818 -1.7856
11673TIP3   OH256509   2.337   5.626   6.536 -0.5089  0.0595  0.1519
11673TIP3    H156510   2.249   5.649   6.568  0.6427  2.2094  2.0917
11673TIP3    H256511   2.376   5.575   6.607  0.4372  0.7403  0.1375
11674TIP3   OH256512   3.280   4.426  15.004  0.2821 -0.7367  0.0363
11674TIP3    H156513   3.251   4.368  14.934  0.7610  0.9563 -1.6454
11674TIP3    H256514   3.207   4.488  15.014  0.3111 -0.8360  0.8890
11675TIP3   OH256515   4.190   2.832   1.778 -0.0648 -0.5719 -0.4559
11675TIP3    H156516   4.219   2.792   1.696  0.9182 -0.6224 -0.1015
11675TIP3    H256517   4.271   2.864   1.819 -0.8284  2.1960 -0.9121
11676TIP3   OH256518   1.227   4.229   2.223  0.3124 -0.0005 -0.4777
11676TIP3    H156519   1.210   4.323   2.228  0.2858 -0.0593  0.8655
11676TIP3    H256520   1.258   4.215   2.134 -1.1408  1.0327 -1.1907
11677TIP3   OH256521   5.844   4.820  14.313  0.0551 -0.3281 -0.9132
11677TIP3    H156522   5.789   4.815  14.235 -2.2392  0.7254  0.5268
11677TIP3    H256523   5.862   4.914  14.323  0.5349 -0.4761 -0.3036
11678TIP3   OH256524   4.282   5.022  14.110 -0.4986 -0.7139  0.2655
11678TIP3    H156525   4.356   5.013  14.170  0.7984  1.4011 -0.8899
11678TIP3    H256526   4.216   5.068  14.161  0.4632  0.7678  0.2475
11679TIP3   OH256527   0.609   2.078  16.066 -0.5768 -0.0692 -0.1396
11679TIP3    H156528   0.544   2.064  16.135  0.7705  0.5202  1.2938
11679TIP3    H256529   0.675   2.011  16.081 -0.3215 -0.0174 -0.9594
11680TIP3   OH256530   2.288   5.834   3.697 -0.2535 -0.3420  0.4445
11680TIP3    H156531   2.346   5.771   3.654 -1.7284 -0.3370 -1.6880
11680TIP3    H256532   2.346   5.908   3.719  0.8802 -1.0711  0.0033
11681TIP3   OH256533   3.953   0.069  14.790 -0.3328  0.0792  0.3094
11681TIP3    H156534   3.896   0.146  14.790 -0.1505  0.2504 -1.4342
11681TIP3    H256535   4.033   0.099  14.833 -0.3010  0.8445 -0.2538
11682TIP3   OH256536   4.364   0.177   0.774 -0.0333 -0.1657  0.6780
11682TIP3    H156537   4.403   0.112   0.715 -0.3386  1.0308 -0.9134
11682TIP3    H256538   4.438   0.229   0.804 -0.0686  0.4527 -0.2528
11683TIP3   OH256539   0.609   0.982   2.485  0.1712 -0.1381  0.0499
11683TIP3    H156540   0.563   0.910   2.443 -3.0066  1.8997 -0.2689
11683TIP3    H256541   0.549   1.014   2.552  2.3764  0.8987  1.6638
11684TIP3   OH256542   2.926   1.664  16.786 -0.1657 -0.2269  0.3197
11684TIP3    H156543   2.886   1.587  16.827 -1.5792 -1.3403 -2.8129
11684TIP3    H256544   2.853   1.726  16.778  0.5047  0.6705  0.9991
11685TIP3   OH256545   5.494   6.198  14.944  0.1239  0.3718 -0.2104
11685TIP3    H156546   5.502   6.227  14.853 -0.1490  1.1822  0.0209
11685TIP3    H256547   5.402   6.179  14.955 -0.2498  2.3325  0.4856
11686TIP3   OH256548   5.065   4.498  14.248 -0.0847 -0.2783 -0.6371
11686TIP3    H156549   5.054   4.412  14.208 -1.5620 -0.3890 -0.0770
11686TIP3    H256550   4.987   4.546  14.222 -0.0199  0.3661  0.3007
11687TIP3   OH256551   3.122   1.354   4.281 -0.0464 -0.3929  0.1265
11687TIP3    H156552   3.208   1.389   4.305 -0.3575 -0.5213  1.5170
11687TIP3    H256553   3.139   1.264   4.253  0.4466  0.0649 -1.1496
11688TIP3   OH256554   4.982   4.511  11.499 -0.0600  0.1551 -0.1307
11688TIP3    H156555   5.034   4.434  11.519  1.0242  1.3309  1.9080
11688TIP3    H256556   4.941   4.492  11.414  0.1620 -2.6064  0.3159
11689TIP3   OH256557   6.791   6.279   0.861 -0.3151  0.4701 -0.3594
11689TIP3    H156558   6.698   6.266   0.845 -0.2275 -0.4818 -0.1877
11689TIP3    H256559   6.831   6.196   0.836  0.4181  0.6728  0.1126
11690TIP3   OH256560   2.048   5.316  13.094  0.0031 -0.3242 -0.0647
11690TIP3    H156561   2.001   5.233  13.081  1.0320 -1.0668  0.7505
11690TIP3    H256562   2.034   5.336  13.187  2.3098 -1.2500  0.5418
11691TIP3   OH256563   5.260   2.823   2.436  0.0978 -0.5735 -0.5182
11691TIP3    H156564   5.256   2.758   2.366  0.8245 -1.3891  0.1819
11691TIP3    H256565   5.352   2.850   2.438 -0.1401  0.2815 -0.6167
11692TIP3   OH256566   1.329   6.473   3.254  0.6218  0.1643 -0.2216
11692TIP3    H156567   1.347   6.519   3.336 -2.4464 -0.3157  0.8270
11692TIP3    H256568   1.377   6.523   3.188  1.0699  2.1336  1.4731
11693TIP3   OH256569   1.367   0.071  15.075  0.0462  0.3404 -0.3398
11693TIP3    H156570   1.341   0.054  15.166  0.6525 -1.0974 -0.4071
11693TIP3    H256571   1.392  -0.015  15.041  4.0626  1.3512 -0.5124
11694TIP3   OH256572   6.722   2.561   3.337 -0.0235  0.3487 -0.6952
11694TIP3    H156573   6.726   2.496   3.407  0.0217  1.0056 -0.0802
11694TIP3    H256574   6.698   2.643   3.380  0.8995  0.9711 -1.2922
11695TIP3   OH256575   5.895   4.373  12.232  0.2858 -0.4825 -0.2815
11695TIP3    H156576   5.862   4.313  12.299  2.3355 -1.7115 -0.2798
11695TIP3    H256577   5.852   4.457  12.251 -0.0451 -1.0805  1.8542
11696TIP3   OH256578   2.202   1.466  10.629 -0.1841 -0.5393 -0.7087
11696TIP3    H156579   2.224   1.559  10.623  0.3147 -0.6246 -0.2192
11696TIP3    H256580   2.122   1.457  10.577 -1.5754  0.5880  1.1391
11697TIP3   OH256581   4.530   1.699  15.831  0.4075  0.5663  0.8742
11697TIP3    H156582   4.605   1.640  15.844  0.1652  0.3584  1.3955
11697TIP3    H256583   4.456   1.640  15.817  0.6200  0.7781 -1.4751
11698TIP3   OH256584   2.269   4.546   2.297  0.2016 -0.2387  0.4233
11698TIP3    H156585   2.275   4.455   2.267 -0.3485 -0.1266 -0.0371
11698TIP3    H256586   2.181   4.574   2.271 -0.8864 -0.5607  3.2719
11699TIP3   OH256587   2.279   0.464   4.146 -0.2117 -0.5431 -0.1681
11699TIP3    H156588   2.225   0.445   4.069 -0.7387 -1.6900  0.4550
11699TIP3    H256589   2.260   0.392   4.207  0.7012 -0.0200  0.7676
11700TIP3   OH256590   1.470   4.450   4.265 -0.1337 -0.0278 -0.1412
11700TIP3    H156591   1.417   4.373   4.287  0.0079  0.4215  1.9672
11700TIP3    H256592   1.495   4.487   4.350  3.2037  0.0316 -1.0143
11701TIP3   OH256593   2.022   3.463   6.282  0.1563 -0.0380 -0.3780
11701TIP3    H156594   2.029   3.373   6.251  1.0469 -0.0988 -0.0398
11701TIP3    H256595   2.107   3.481   6.324 -0.3962  0.5972  0.5111
11702TIP3   OH256596   1.263   6.775  15.753 -0.1129  0.2482  0.8709
11702TIP3    H156597   1.232   6.815  15.834 -0.5008  0.1072  0.7917
11702TIP3    H256598   1.189   6.724  15.721 -0.4996  1.5069 -0.3756
11703TIP3   OH256599   3.361   4.563  11.085  0.0704 -0.3763  0.0965
11703TIP3    H156600   3.310   4.642  11.067 -1.2970 -0.7371  2.1359
11703TIP3    H256601   3.352   4.511  11.005 -0.9249  0.5145 -0.4075
11704TIP3   OH256602   1.776   6.072  12.033 -0.2183  0.6303  0.0618
11704TIP3    H156603   1.705   6.053  11.971 -0.0409  1.4150 -0.3944
11704TIP3    H256604   1.763   6.009  12.103 -0.5281 -0.1685 -0.6923
11705TIP3   OH256605   3.010   2.527   1.764 -0.2584 -0.2798 -0.0038
11705TIP3    H156606   3.046   2.611   1.793 -0.3989 -0.0894 -0.3839
11705TIP3    H256607   3.043   2.464   1.829  0.7630 -0.1142 -0.3457
11706TIP3   OH256608   4.382   6.033   4.455  0.7568 -0.9318  0.8187
11706TIP3    H156609   4.464   6.018   4.500  0.7526 -0.1118  1.1119
11706TIP3    H256610   4.342   5.946   4.447  1.8454 -1.3994  0.2715
11707TIP3   OH256611   3.821   1.176  13.798  0.1000  0.2627 -0.1129
11707TIP3    H156612   3.909   1.144  13.815 -0.3299 -0.7447  0.3075
11707TIP3    H256613   3.804   1.153  13.707 -0.1758 -0.6657  0.1630
11708TIP3   OH256614   0.190   4.385  12.384 -0.6119  0.5409  0.3703
11708TIP3    H156615   0.120   4.412  12.442  0.1759  1.1734  1.0569
11708TIP3    H256616   0.163   4.300  12.350 -3.2661  2.1529 -1.9903
11709TIP3   OH256617   3.576   6.268   4.509  0.3591 -0.2075 -0.5632
11709TIP3    H156618   3.493   6.222   4.516  0.1827  0.3588  2.1976
11709TIP3    H256619   3.552   6.355   4.475 -0.1238 -0.1985 -0.2142
11710TIP3   OH256620   6.452   5.144   2.121  0.0360  0.4370  0.0573
11710TIP3    H156621   6.483   5.148   2.212 -0.6494 -1.7423  0.4622
11710TIP3    H256622   6.359   5.121   2.129  0.1789 -0.7055 -1.1724
11711TIP3   OH256623   4.440   1.414   0.410  0.4836  1.1259  0.3701
11711TIP3    H156624   4.493   1.462   0.474  1.7908  0.4925 -0.2281
11711TIP3    H256625   4.440   1.470   0.332  1.6201  0.3842 -0.1702
11712TIP3   OH256626   3.640   6.799   2.995 -0.0014  0.2815  0.3498
11712TIP3    H156627   3.634   6.829   3.085 -0.7695 -0.8249  0.6879
11712TIP3    H256628   3.715   6.740   2.993  0.5368  0.9611  0.0542
11713TIP3   OH256629   3.802   1.771   4.077 -0.1712 -0.0731 -0.1202
11713TIP3    H156630   3.711   1.797   4.060  0.2062  0.5130 -1.3104
11713TIP3    H256631   3.849   1.853   4.089 -0.0031 -0.3943  1.8089
11714TIP3   OH256632   5.130   5.608   1.017  0.5617 -0.3470 -0.7778
11714TIP3    H156633   5.134   5.653   0.932  4.3659 -1.1209 -1.1972
11714TIP3    H256634   5.092   5.523   0.997  0.2106 -0.0368 -1.4685
11715TIP3   OH256635   2.766   3.589  16.110  0.6693 -0.4654 -0.2138
11715TIP3    H156636   2.779   3.683  16.097  0.3230 -0.1310  1.5753
11715TIP3    H256637   2.815   3.547  16.039  1.1191  1.0536 -0.8251
11716TIP3   OH256638   4.855   4.332   2.613  0.1308  0.3217 -0.3442
11716TIP3    H156639   4.875   4.385   2.690 -0.9306  1.1378 -0.6086
11716TIP3    H256640   4.940   4.318   2.571  1.0673 -1.9676  2.0697
11717TIP3   OH256641   3.234   3.394   2.745  0.1147  0.2872  0.7026
11717TIP3    H156642   3.182   3.353   2.814 -1.4804  0.7316 -0.1821
11717TIP3    H256643   3.261   3.478   2.783 -1.0226  0.6685  0.7034
11718TIP3   OH256644   2.429   0.055  13.228  0.1499  0.0048 -0.0096
11718TIP3    H156645   2.337   0.075  13.209  0.5928  0.2864 -2.0181
11718TIP3    H256646   2.424  -0.012  13.296 -1.6664 -1.9898 -1.9167
11719TIP3   OH256647   1.197   4.759   5.930  0.4539 -0.1385 -0.1425
11719TIP3    H156648   1.248   4.679   5.918  3.0127  1.6236 -2.2420
11719TIP3    H256649   1.214   4.785   6.021  0.7773 -1.2112  0.1198
11720TIP3   OH256650   0.396   0.216  16.101 -0.6248 -0.4780  0.7003
11720TIP3    H156651   0.327   0.242  16.160 -1.8081 -1.3262 -0.2489
11720TIP3    H256652   0.406   0.289  16.040  0.6295  0.4147  1.9295
11721TIP3   OH256653   6.147   6.057   5.313 -0.6109  0.5563  0.1351
11721TIP3    H156654   6.126   6.003   5.238 -0.8854  0.9165 -0.0500
11721TIP3    H256655   6.194   5.999   5.372 -1.7810 -0.1625  0.3904
11722TIP3   OH256656   6.694   5.288  14.497  0.4809  0.2406 -0.4999
11722TIP3    H156657   6.625   5.233  14.533 -1.0190  0.6196 -2.6226
11722TIP3    H256658   6.721   5.344  14.570  0.3892 -1.6750  1.0548
11723TIP3   OH256659   3.036   6.307  13.688 -0.1470 -0.1007 -0.1521
11723TIP3    H156660   3.125   6.341  13.699 -0.1191 -0.0639 -0.4817
11723TIP3    H256661   3.013   6.330  13.598 -0.7170  0.4248  0.1208
11724TIP3   OH256662   6.473   4.559  11.111  0.1904 -0.5020 -0.5844
11724TIP3    H156663   6.432   4.539  11.026 -0.6133  0.6361 -0.4930
11724TIP3    H256664   6.490   4.653  11.107  0.7719 -0.5639  0.2646
11725TIP3   OH256665   6.759   0.359  14.708 -0.2692  0.1181  0.2128
11725TIP3    H156666   6.851   0.346  14.683 -0.4696 -1.9282  0.4149
11725TIP3    H256667   6.763   0.383  14.800  0.0266 -0.7383  0.4264
11726TIP3   OH256668   1.500   4.656  13.011  0.4522 -0.1004 -0.1002
11726TIP3    H156669   1.460   4.729  12.963  1.3639  0.1271 -0.5283
11726TIP3    H256670   1.593   4.664  12.994  0.7285 -0.4579  1.1196
11727TIP3   OH256671   1.358   6.553  14.619  0.1145 -0.3098 -0.4487
11727TIP3    H156672   1.364   6.580  14.528 -0.6615 -0.0644 -0.4362
11727TIP3    H256673   1.378   6.632  14.669  1.3827 -0.6450 -0.3882
11728TIP3   OH256674   5.509   2.327   3.207 -0.2616  0.0534  0.8765
11728TIP3    H156675   5.524   2.252   3.265 -1.4991  0.3593  1.6270
11728TIP3    H256676   5.595   2.365   3.194  0.1068 -0.3305  2.1089
11729TIP3   OH256677   5.532   3.781   2.277 -0.2963 -0.2597  0.3423
11729TIP3    H156678   5.440   3.765   2.257 -0.4389  0.7977  0.0845
11729TIP3    H256679   5.561   3.844   2.210  0.8091 -1.0960 -0.0033
11730TIP3   OH256680   3.565   2.186   5.390  0.3880  0.3362  0.8312
11730TIP3    H156681   3.523   2.118   5.443 -1.7894  0.1190 -1.0569
11730TIP3    H256682   3.617   2.138   5.326  1.4911  0.5720  1.5107
11731TIP3   OH256683   1.580   2.489   1.611  0.2293  0.0845 -0.1316
11731TIP3    H156684   1.543   2.557   1.554 -1.2198 -0.9742 -0.5214
11731TIP3    H256685   1.600   2.417   1.552  0.2364 -0.4293  0.4921
11732TIP3   OH256686   0.920   3.150   1.991  0.4293 -0.3824  0.0996
11732TIP3    H156687   0.844   3.119   2.040  0.8238 -2.2238 -0.3765
11732TIP3    H256688   0.972   3.198   2.056 -0.2124 -0.7367  0.8915
11733TIP3   OH256689   2.575   4.212   1.619 -0.1087  0.5408 -0.1385
11733TIP3    H156690   2.641   4.246   1.680 -0.1907 -1.5689  1.2500
11733TIP3    H256691   2.500   4.270   1.631  0.4165  1.0825  0.6667
11734TIP3   OH256692   5.127   4.896   5.211  0.3463  0.2372 -0.2395
11734TIP3    H156693   5.047   4.843   5.200  0.6270  0.2626 -2.7864
11734TIP3    H256694   5.112   4.974   5.158  1.0973  1.4348  1.2450
11735TIP3   OH256695   1.856   4.808  15.080  0.0116  0.0272 -0.1681
11735TIP3    H156696   1.816   4.735  15.128 -0.2899  1.3940  1.7385
11735TIP3    H256697   1.895   4.863  15.147 -1.5829  2.7444 -1.2876
11736TIP3   OH256698   5.347   2.816  12.557  0.4604  0.2817 -0.9236
11736TIP3    H156699   5.258   2.815  12.524  0.5016  0.8277 -1.0551
11736TIP3    H256700   5.362   2.726  12.587  0.1408 -0.0146 -1.6163
11737TIP3   OH256701   2.021   2.095   1.470 -0.6162  0.0619 -0.5811
11737TIP3    H156702   1.975   2.125   1.392 -1.4822 -2.2723 -1.0480
11737TIP3    H256703   1.951   2.081   1.535 -0.1038  0.2252  0.0194
11738TIP3   OH256704   2.109   6.586  13.456 -0.1270  0.6491  0.0882
11738TIP3    H156705   2.031   6.554  13.409  0.0187  1.5765 -0.8435
11738TIP3    H256706   2.100   6.682  13.452  2.4626  0.9367 -2.6412
11739TIP3   OH256707   5.932   4.238   1.505 -0.6595  0.4687 -0.3175
11739TIP3    H156708   5.891   4.161   1.466 -0.2440  0.0713  0.0144
11739TIP3    H256709   5.972   4.205   1.586  0.3524  0.8337 -0.6596
11740TIP3   OH256710   1.020   3.344   0.645  0.3122 -0.3281 -0.2199
11740TIP3    H156711   0.999   3.423   0.694  4.2388  0.7244  0.1452
11740TIP3    H256712   1.011   3.369   0.553  1.2798  0.5348 -0.1013
11741TIP3   OH256713   2.467   2.973  11.630 -0.2080 -0.3934  0.2159
11741TIP3    H156714   2.491   3.062  11.605  0.0211 -0.6855 -0.6328
11741TIP3    H256715   2.550   2.925  11.632 -0.5401 -1.1254 -1.5956
11742TIP3   OH256716   0.038   5.145  16.476  0.4806 -0.5551  0.0968
11742TIP3    H156717   0.097   5.075  16.448  0.2083 -1.0918  0.8291
11742TIP3    H256718  -0.038   5.099  16.513 -0.6232  0.1127 -1.2568
11743TIP3   OH256719   3.412   4.435  14.018 -0.1103 -0.0689  0.3846
11743TIP3    H156720   3.346   4.437  13.950  0.3651 -0.4963 -0.0968
11743TIP3    H256721   3.431   4.342  14.030  1.7401  0.1052 -0.8047
11744TIP3   OH256722   5.608   0.814   5.834 -0.0005  0.0269  0.1553
11744TIP3    H156723   5.655   0.800   5.916  0.8061 -0.7206 -0.4092
11744TIP3    H256724   5.592   0.725   5.800 -0.9856  0.2993 -0.1348
11745TIP3   OH256725   5.896   5.413   4.413 -0.1562  0.7008 -0.1164
11745TIP3    H156726   5.953   5.471   4.363  0.1513 -0.0240 -0.6258
11745TIP3    H256727   5.951   5.382   4.485  0.3154 -0.4952 -0.9654
11746TIP3   OH256728   3.353   0.658  13.468 -0.2794  0.5188 -1.0448
11746TIP3    H156729   3.295   0.604  13.415 -1.9029  1.4491 -0.2935
11746TIP3    H256730   3.376   0.732  13.412  2.0767 -0.9118 -2.1328
11747TIP3   OH256731   1.482   6.132  11.360  0.2699  0.1757 -0.3436
11747TIP3    H156732   1.419   6.063  11.382 -0.5889  0.8144 -0.7753
11747TIP3    H256733   1.525   6.100  11.281 -1.5029  0.9804 -1.6915
11748TIP3   OH256734   1.442   0.279   3.945 -0.1414 -0.8362  0.2840
11748TIP3    H156735   1.503   0.297   4.016  1.1829  0.4573 -1.1056
11748TIP3    H256736   1.355   0.296   3.982  0.3052 -2.3368  2.1937
11749TIP3   OH256737   1.587   3.968  16.116  0.1579  0.2827  0.1348
11749TIP3    H156738   1.575   4.062  16.099 -0.7096  0.6868  2.6334
11749TIP3    H256739   1.534   3.925  16.050 -1.2567  1.6415  0.3350
11750TIP3   OH256740   2.992   2.297   0.158  0.1708 -0.3182 -0.0394
11750TIP3    H156741   3.054   2.338   0.098  0.5061 -1.1559 -0.2732
11750TIP3    H256742   3.046   2.264   0.230  0.2832 -2.8116 -1.1929
11751TIP3   OH256743   2.885   1.447  12.521 -0.2773  0.0168  0.0885
11751TIP3    H156744   2.827   1.510  12.479 -0.2125 -1.6222 -2.7422
11751TIP3    H256745   2.833   1.367  12.528  1.0083 -0.9415 -0.7919
11752TIP3   OH256746   4.021   4.477   2.959 -0.0804 -0.3351 -0.2760
11752TIP3    H156747   3.947   4.499   2.903  0.5481 -0.0314 -1.0024
11752TIP3    H256748   4.053   4.562   2.990 -0.1288 -0.4742  0.1644
11753TIP3   OH256749   1.605   3.923   4.516 -0.1259  0.0978 -0.0983
11753TIP3    H156750   1.635   3.886   4.599  0.3972 -1.0583 -0.7823
11753TIP3    H256751   1.650   4.007   4.510  1.2263 -0.5943 -0.0265
11754TIP3   OH256752   1.299   1.101  13.889 -0.2399 -0.3531  0.4268
11754TIP3    H156753   1.393   1.116  13.894 -0.3085  0.5396 -0.5807
11754TIP3    H256754   1.263   1.148  13.965 -0.0086  0.6919 -0.0898
11755TIP3   OH256755   5.035   0.706  16.682  0.1055 -1.0428  0.0161
11755TIP3    H156756   5.104   0.677  16.622  1.6228  1.0217  0.6321
11755TIP3    H256757   5.006   0.790  16.647 -1.6050 -1.5226  0.1999
11756TIP3   OH256758   4.119   3.619  17.066 -0.0052  0.0606 -0.0707
11756TIP3    H156759   4.025   3.608  17.080 -0.0765  0.8481  0.1793
11756TIP3    H256760   4.127   3.702  17.019  0.6276  0.6877  1.0850
11757TIP3   OH256761   1.541   5.038  16.045 -0.2857  0.8472  0.6943
11757TIP3    H156762   1.588   5.090  15.980 -1.4958  1.5153  0.3223
11757TIP3    H256763   1.586   5.057  16.127  0.2652  1.2662  0.3016
11758TIP3   OH256764   5.063   2.401  15.171 -0.2626 -0.2431  0.3548
11758TIP3    H156765   5.138   2.451  15.201  0.1971 -0.4960 -0.3588
11758TIP3    H256766   5.031   2.357  15.250 -0.7747  1.2584  1.0326
11759TIP3   OH256767   0.226   0.698  13.227 -0.5814  0.3739  0.2432
11759TIP3    H156768   0.159   0.730  13.287 -0.5081  1.4331 -0.2233
11759TIP3    H256769   0.292   0.766  13.226 -0.6195  0.4132 -1.1002
11760TIP3   OH256770   2.332   3.574  12.196  0.2035 -0.3060  0.2403
11760TIP3    H156771   2.276   3.496  12.194 -0.0390 -0.1752  1.2984
11760TIP3    H256772   2.292   3.634  12.134 -0.6197 -0.3608  0.7035
11761TIP3   OH256773   2.464   0.064  16.957 -0.2997  0.0258  0.3771
11761TIP3    H156774   2.474   0.095  17.047 -0.3769  1.3420 -0.0542
11761TIP3    H256775   2.402   0.125  16.918  0.9959  0.4772 -1.0479
11762TIP3   OH256776   1.246   2.751  16.698 -0.1090  0.2021  0.5595
11762TIP3    H156777   1.301   2.689  16.652 -0.5808 -1.1009  1.6856
11762TIP3    H256778   1.197   2.796  16.629 -1.1376 -2.0086 -0.2237
11763TIP3   OH256779   0.521   5.511  11.736  0.1568 -0.0218  0.2594
11763TIP3    H156780   0.457   5.580  11.718  0.2071 -0.3317 -1.2234
11763TIP3    H256781   0.603   5.558  11.750  0.0092  0.2645  0.1752
11764TIP3   OH256782   6.537   2.733   4.545  0.5740 -0.0294  0.3261
11764TIP3    H156783   6.480   2.754   4.619  0.2670  1.9192 -0.3921
11764TIP3    H256784   6.552   2.818   4.502  0.7765 -1.0905 -1.8083
11765TIP3   OH256785   3.259   0.470   0.779  0.0832 -0.2832  0.7074
11765TIP3    H156786   3.325   0.403   0.795 -1.7288 -2.5594 -0.6565
11765TIP3    H256787   3.178   0.434   0.817 -0.7909  1.5513  0.7051
11766TIP3   OH256788   1.349   0.630  11.438 -0.6452  0.3080 -0.0592
11766TIP3    H156789   1.309   0.697  11.494  0.9270  2.0371 -0.8730
11766TIP3    H256790   1.396   0.573  11.499 -0.4034  1.1180  0.5448
11767TIP3   OH256791   4.585   4.560   3.094 -0.3643 -0.0942  0.3574
11767TIP3    H156792   4.657   4.552   3.157 -1.0751 -1.2237  1.0517
11767TIP3    H256793   4.598   4.646   3.055  1.7253 -0.5090  0.0167
11768TIP3   OH256794   5.213   1.781   0.121 -0.5322 -0.3849  0.4383
11768TIP3    H156795   5.133   1.764   0.170  0.6076 -0.8083  2.2706
11768TIP3    H256796   5.268   1.830   0.182 -0.2082  1.8996 -1.5476
11769TIP3   OH256797   5.446   4.996   4.976  0.1748  0.4049  0.0441
11769TIP3    H156798   5.354   4.970   4.970  0.2149  0.3264 -0.2742
11769TIP3    H256799   5.491   4.941   4.912  0.1295  1.8171 -1.2702
11770TIP3   OH256800   0.305   6.554   4.369 -0.0744  0.4098  0.6339
11770TIP3    H156801   0.244   6.516   4.433  0.5677 -0.1213  0.9438
11770TIP3    H256802   0.265   6.637   4.344 -2.3308 -1.1371 -1.2526
11771TIP3   OH256803   0.206   0.123  15.677 -0.2105  0.0613  0.0136
11771TIP3    H156804   0.140   0.094  15.614 -1.5958  1.9881  0.5051
11771TIP3    H256805   0.277   0.158  15.623 -0.2476 -0.5993 -0.4883
11772TIP3   OH256806   0.728   2.271  11.756 -0.7092 -0.0644 -0.5940
11772TIP3    H156807   0.747   2.365  11.753 -2.9255  0.4283 -2.9550
11772TIP3    H256808   0.642   2.263  11.716 -0.5432 -3.1369 -0.5565
11773TIP3   OH256809   3.638   0.210   2.813  0.1228  0.0838 -0.4419
11773TIP3    H156810   3.590   0.144   2.862 -2.0671  0.6394 -1.7000
11773TIP3    H256811   3.612   0.293   2.852  1.0072  0.3600 -0.4038
11774TIP3   OH256812   0.909   1.620   4.098  0.5381 -0.2595  0.1259
11774TIP3    H156813   0.979   1.658   4.045  0.8035  0.5791  1.0320
11774TIP3    H256814   0.882   1.691   4.157 -0.2189 -0.9432  0.6376
11775TIP3   OH256815   6.816   3.531  15.211 -0.2806  0.5726  0.3283
11775TIP3    H156816   6.740   3.582  15.236 -0.5050  0.9361 -1.0118
11775TIP3    H256817   6.839   3.563  15.124 -2.4046 -3.7281 -2.1225
11776TIP3   OH256818   2.330   3.259   0.315  0.0563  0.0296 -0.2902
11776TIP3    H156819   2.373   3.284   0.397  1.2407 -0.1125 -0.8392
11776TIP3    H256820   2.399   3.216   0.265 -0.7146 -0.0945 -1.2723
11777TIP3   OH256821   5.354   4.378  12.704  0.0653 -0.2891  0.5850
11777TIP3    H156822   5.295   4.310  12.672 -0.0260  0.7626 -1.6735
11777TIP3    H256823   5.311   4.412  12.783 -0.6815 -1.7296  0.8207
11778TIP3   OH256824   6.740   1.254  17.167  0.0105  0.4095  0.0085
11778TIP3    H156825   6.648   1.279  17.153 -0.0877  0.3620  0.5647
11778TIP3    H256826   6.790   1.317  17.114 -0.1815  2.2899  1.9108
11779TIP3   OH256827   4.059   5.306   3.328  0.1172  0.2206  0.6223
11779TIP3    H156828   4.041   5.343   3.414 -0.1985 -0.6656  0.9446
11779TIP3    H256829   4.062   5.212   3.342  0.1984  0.0752 -0.3127
11780TIP3   OH256830   4.764   0.144   0.752  0.1057  0.0942  0.0922
11780TIP3    H156831   4.761   0.230   0.795  1.3098 -0.7373  1.9556
11780TIP3    H256832   4.811   0.161   0.670  2.1204  0.9295  1.3310
11781TIP3   OH256833   1.388   6.642  14.994  0.1478 -0.7915 -0.2256
11781TIP3    H156834   1.462   6.590  14.964 -0.0011 -1.4386  0.4925
11781TIP3    H256835   1.361   6.600  15.076  0.8936  1.2223  1.1372
11782TIP3   OH256836   3.437   6.292   5.194 -0.3675  0.9222  0.2611
11782TIP3    H156837   3.471   6.234   5.125  0.8469  2.5079 -0.5439
11782TIP3    H256838   3.435   6.237   5.272  3.8567  0.5124  0.3434
11783TIP3   OH256839   1.461   2.319   5.537  0.0941  0.2926 -0.1155
11783TIP3    H156840   1.379   2.310   5.586 -0.6723 -2.3963 -1.6828
11783TIP3    H256841   1.434   2.340   5.448  1.3295  2.4222 -0.0308
11784TIP3   OH256842   0.842   4.889   2.015 -0.2580  0.0870  0.1862
11784TIP3    H156843   0.865   4.900   1.922  1.1974 -1.3511  0.3215
11784TIP3    H256844   0.816   4.976   2.044  0.0458  0.7312 -1.3726
11785TIP3   OH256845   4.381   5.456   4.731  0.3379  0.4111  0.1068
11785TIP3    H156846   4.369   5.523   4.798  0.9088 -1.1567  1.8526
11785TIP3    H256847   4.294   5.443   4.694 -0.1858  0.6552  1.2057
11786TIP3   OH256848   1.672   0.841  15.834  0.0078 -0.3578  0.2296
11786TIP3    H156849   1.700   0.930  15.857  0.7115 -0.3196 -0.7413
11786TIP3    H256850   1.640   0.805  15.917  0.6423  0.4561  0.8580
11787TIP3   OH256851   1.816   6.014   6.360  0.0611  0.5692 -0.0192
11787TIP3    H156852   1.856   6.079   6.303  0.3375  1.0227  0.6763
11787TIP3    H256853   1.755   6.064   6.415 -0.6317  0.0530 -0.3030
11788TIP3   OH256854   0.455   4.212   1.217 -0.2025 -0.8248  0.2234
11788TIP3    H156855   0.464   4.192   1.310  1.2322 -4.3161 -0.5291
11788TIP3    H256856   0.404   4.139   1.182 -0.9508  0.5610 -1.7376
11789TIP3   OH256857   6.013   0.488   2.457 -0.1873 -0.1404 -0.7061
11789TIP3    H156858   5.959   0.410   2.446  1.0297 -1.0471 -0.5006
11789TIP3    H256859   6.022   0.524   2.369 -1.4701  0.2795 -0.6780
11790TIP3   OH256860   2.507   4.928  13.161  0.0660 -0.3405  0.2231
11790TIP3    H156861   2.420   4.915  13.123 -0.3438 -0.2574  1.0886
11790TIP3    H256862   2.533   4.841  13.192  1.0145 -0.6986 -1.4518
11791TIP3   OH256863   1.835   0.399   0.970 -0.1008  0.4860  0.1180
11791TIP3    H156864   1.848   0.493   0.982 -0.9415  0.3995  2.2033
11791TIP3    H256865   1.782   0.392   0.891 -0.0323  1.7696 -0.0693
11792TIP3   OH256866   6.072   1.300   1.178  0.1532  0.0837 -0.1242
11792TIP3    H156867   6.147   1.358   1.192 -0.2929  1.0671 -1.5957
11792TIP3    H256868   6.106   1.230   1.122  0.5204 -0.7392  1.0938
11793TIP3   OH256869   1.338   0.687  14.290  0.0050  0.3974 -0.0620
11793TIP3    H156870   1.365   0.767  14.246 -0.8179  1.4328  1.2656
11793TIP3    H256871   1.409   0.669  14.352  0.8416 -0.6900 -1.2813
11794TIP3   OH256872   0.742   2.958   1.857 -0.2057 -0.6864  0.1875
11794TIP3    H156873   0.720   3.020   1.927  1.5156  0.4632 -0.2393
11794TIP3    H256874   0.669   2.897   1.856 -1.4300  0.6787  1.3855
11795TIP3   OH256875   1.646   5.502   0.213 -0.0670  0.5061  0.0077
11795TIP3    H156876   1.564   5.547   0.231 -0.4570 -0.8848  1.9836
11795TIP3    H256877   1.712   5.572   0.209 -1.0913  1.4907 -0.0437
11796TIP3   OH256878   4.382   5.072  12.971 -0.1115 -0.2949 -0.1654
11796TIP3    H156879   4.441   5.081  13.046 -1.2732  0.6358  0.6589
11796TIP3    H256880   4.342   5.158  12.960 -1.5701 -0.9722 -0.4908
11797TIP3   OH256881   1.332   0.010   3.208 -0.1661  0.2611  0.2147
11797TIP3    H156882   1.327   0.105   3.195  0.7929  0.3028  0.1068
11797TIP3    H256883   1.357  -0.025   3.123  0.2389 -0.0153  0.4439
11798TIP3   OH256884   1.498   3.671   3.664  0.3368  0.4143 -0.1329
11798TIP3    H156885   1.451   3.752   3.645  0.7283  0.3030 -1.7672
11798TIP3    H256886   1.429   3.605   3.669  0.0833  0.7127  0.4382
11799TIP3   OH256887   4.583   3.999   0.278  0.1363  0.1768 -0.4800
11799TIP3    H156888   4.595   3.985   0.184 -0.2900  0.6520 -0.6131
11799TIP3    H256889   4.630   3.927   0.319 -0.5718 -0.6632 -1.0811
11800TIP3   OH256890   6.804   2.195  13.556 -0.3062 -0.1360  0.1363
11800TIP3    H156891   6.828   2.175  13.646  0.6490  0.8237  0.1077
11800TIP3    H256892   6.839   2.283  13.540  2.6074 -1.5405 -2.2177
11801TIP3   OH256893   3.542   4.778  11.851  0.1732 -1.0566 -0.3330
11801TIP3    H156894   3.563   4.745  11.939  0.5421 -0.3090 -0.1364
11801TIP3    H256895   3.621   4.762  11.800  0.6887  0.2998 -0.0053
11802TIP3   OH256896   6.246   0.132   4.280  0.5337  0.4206  0.1480
11802TIP3    H156897   6.212   0.077   4.350 -0.1525 -1.0263 -1.2702
11802TIP3    H256898   6.314   0.185   4.322 -1.2410  1.1044  2.3519
11803TIP3   OH256899   4.498   6.635  13.965  0.1290  0.3443  0.0262
11803TIP3    H156900   4.552   6.642  13.886 -2.1361  0.5595 -1.5938
11803TIP3    H256901   4.465   6.723  13.980 -1.6874 -0.2054 -0.4943
11804TIP3   OH256902   4.861   1.315  13.296  0.0380 -0.2237 -0.1814
11804TIP3    H156903   4.827   1.238  13.252 -0.7266  0.3021 -0.5381
11804TIP3    H256904   4.921   1.355  13.232  2.6867 -1.9931  0.9988
11805TIP3   OH256905   1.248   4.209   6.661  0.0904 -0.1987  0.3301
11805TIP3    H156906   1.328   4.210   6.714  1.4140 -1.4124 -1.5524
11805TIP3    H256907   1.257   4.133   6.605 -2.5032 -0.4548  0.1635
11806TIP3   OH256908   5.694   2.659   5.147  0.6560  0.1821 -0.3834
11806TIP3    H156909   5.763   2.688   5.088  0.5715  0.5050 -0.3305
11806TIP3    H256910   5.652   2.586   5.102  0.3291  0.6811 -0.9142
11807TIP3   OH256911   4.387   4.747   0.646 -0.6570  0.0518  0.6746
11807TIP3    H156912   4.303   4.743   0.601  0.2396  0.3225 -1.1081
11807TIP3    H256913   4.395   4.662   0.689 -2.1176  0.2725  1.4461
11808TIP3   OH256914   2.113   2.229  12.953 -0.4028 -0.3451  0.0450
11808TIP3    H156915   2.038   2.281  12.979  0.2855 -0.2361  2.0851
11808TIP3    H256916   2.090   2.192  12.868 -1.9851  1.1270 -0.2082
11809TIP3   OH256917   0.836   1.271   5.426 -0.3843 -0.5259 -0.3838
11809TIP3    H156918   0.829   1.347   5.369  1.9338  1.5290  1.7927
11809TIP3    H256919   0.930   1.261   5.442 -0.8046 -2.1669  1.5417
11810TIP3   OH256920   2.219   2.288  12.659  0.1444  0.4537 -0.6500
11810TIP3    H156921   2.283   2.259  12.725  0.2729  0.4727 -0.7650
11810TIP3    H256922   2.145   2.229  12.671 -1.6462  2.9685  2.3213
11811TIP3   OH256923   3.982   6.463   2.220  0.0719 -0.2503 -0.0487
11811TIP3    H156924   4.052   6.527   2.237 -0.0453 -0.1458  0.0472
11811TIP3    H256925   3.952   6.483   2.131  0.7162 -0.8251 -0.4033
11812TIP3   OH256926   3.806   1.084   2.328 -0.0776  0.5394 -0.1193
11812TIP3    H156927   3.819   1.021   2.398 -0.2740  2.0509  1.3259
11812TIP3    H256928   3.879   1.145   2.335 -1.1041  1.8108  0.0274
11813TIP3   OH256929   2.136   6.134  14.152  0.3906 -0.4175 -0.5807
11813TIP3    H156930   2.177   6.136  14.065  0.5047  0.2550 -0.5167
11813TIP3    H256931   2.084   6.054  14.152 -1.0803  0.4866 -1.9421
11814TIP3   OH256932   0.547   3.928   5.893 -0.3389 -0.1149  0.1351
11814TIP3    H156933   0.590   3.858   5.943  0.5906  1.5317  1.7401
11814TIP3    H256934   0.549   4.004   5.951 -0.2338  1.6142 -2.0146
11815TIP3   OH256935   5.963   6.344   2.637 -0.1863 -0.2696  0.0360
11815TIP3    H156936   5.944   6.250   2.647 -1.2124 -0.1497 -0.6098
11815TIP3    H256937   5.889   6.378   2.587  1.5304  0.3756 -2.2121
11816TIP3   OH256938   6.101   2.663  11.357  0.2665  0.2810 -0.4113
11816TIP3    H156939   6.103   2.659  11.262 -3.0716 -0.0710 -0.5767
11816TIP3    H256940   6.008   2.653  11.380  1.0667 -0.8404  2.9413
11817TIP3   OH256941   4.761   5.221   5.043 -0.3674 -0.1325 -0.0683
11817TIP3    H156942   4.772   5.212   5.138 -1.9283  0.2081  0.1669
11817TIP3    H256943   4.674   5.259   5.033 -1.3500 -2.6019 -1.7206
11818TIP3   OH256944   0.218   3.604  12.488 -0.1544  0.2158 -0.3408
11818TIP3    H156945   0.219   3.699  12.503 -1.4041  0.2536 -0.4703
11818TIP3    H256946   0.159   3.592  12.414 -1.1072 -0.7884  0.5604
11819TIP3   OH256947   0.741   5.445   6.793 -0.2665 -0.3998 -0.2060
11819TIP3    H156948   0.833   5.421   6.802  0.1558  0.6451 -1.4031
11819TIP3    H256949   0.700   5.370   6.750 -0.5706 -1.9354  2.5132
11820TIP3   OH256950   2.558   5.443   0.938 -0.5226  0.1993  0.5871
11820TIP3    H156951   2.579   5.496   1.015 -0.1833 -0.6121  1.0815
11820TIP3    H256952   2.485   5.388   0.966 -0.6559  0.1791  0.2033
11821TIP3   OH256953   1.490   6.734   2.647 -0.0775 -0.2214 -0.1007
11821TIP3    H156954   1.451   6.649   2.631  0.8541 -0.3996 -1.5898
11821TIP3    H256955   1.580   6.726   2.616 -0.2599  1.5892 -1.2666
11822TIP3   OH256956   2.914   4.422  15.720  0.3126 -0.0559 -0.4718
11822TIP3    H156957   2.823   4.451  15.711  0.2710 -0.4050 -1.2756
11822TIP3    H256958   2.964   4.502  15.734  0.3482  0.6096 -3.6566
11823TIP3   OH256959   1.604   1.143  13.836  0.2177  0.2889 -0.2488
11823TIP3    H156960   1.667   1.076  13.859 -0.3011  0.1508  0.8017
11823TIP3    H256961   1.653   1.204  13.780  1.0080 -0.3129 -0.2202
11824TIP3   OH256962   5.633   5.822   0.021 -0.2611 -0.0052  0.8435
11824TIP3    H156963   5.668   5.741   0.058  1.4716 -0.9063 -2.3550
11824TIP3    H256964   5.635   5.884   0.093  2.0273 -1.7958  2.4751
11825TIP3   OH256965   0.273   6.463   4.692 -0.2616 -0.4770  0.6967
11825TIP3    H156966   0.243   6.458   4.783 -0.0659  1.6550  0.9271
11825TIP3    H256967   0.194   6.445   4.640 -1.1084  1.2395  1.3172
11826TIP3   OH256968   6.555   3.967   1.561 -0.3886 -0.4668 -0.0351
11826TIP3    H156969   6.583   3.875   1.559  1.0676 -0.0478  0.0321
11826TIP3    H256970   6.637   4.017   1.555 -1.0055  0.8338  1.6494
11827TIP3   OH256971   6.359   2.555  13.623  0.2117 -0.2004 -0.0355
11827TIP3    H156972   6.361   2.462  13.645 -0.4215 -0.3617 -0.6151
11827TIP3    H256973   6.278   2.566  13.573  1.0695  0.3326 -1.3762
11828TIP3   OH256974   5.205   2.833   5.287 -0.0682  0.7900 -0.3229
11828TIP3    H156975   5.187   2.742   5.261  0.0475  0.1658  1.6309
11828TIP3    H256976   5.300   2.837   5.296 -0.0214  1.2913 -1.0074
11829TIP3   OH256977   3.110   5.171   1.174  0.1868  0.2519  0.0649
11829TIP3    H156978   3.085   5.263   1.165  0.1976  0.1607 -1.1272
11829TIP3    H256979   3.055   5.125   1.111  2.9416 -0.0059 -2.4083
11830TIP3   OH256980   6.808   4.829   1.029 -0.9892  0.5745 -0.4020
11830TIP3    H156981   6.887   4.790   0.992 -0.8094  0.9264 -0.3875
11830TIP3    H256982   6.840   4.900   1.084 -1.3559  1.1599 -0.9362
11831TIP3   OH256983   4.913   4.298   0.477  0.0839  0.4501 -0.2698
11831TIP3    H156984   4.962   4.303   0.394  2.1301  3.2704  0.9420
11831TIP3    H256985   4.972   4.256   0.538 -0.8994 -0.4085  0.1221
11832TIP3   OH256986   3.368   5.011   5.740  0.4036  0.8968 -0.0182
11832TIP3    H156987   3.423   5.048   5.809 -1.2062 -0.7195  2.2678
11832TIP3    H256988   3.278   5.036   5.764 -0.5361 -2.3939  0.4115
11833TIP3   OH256989   0.664   6.285  10.542 -0.9663 -0.1682 -0.2780
11833TIP3    H156990   0.707   6.202  10.563  0.0240 -0.0698 -1.8031
11833TIP3    H256991   0.610   6.304  10.619  0.0578 -1.3867  0.7826
11834TIP3   OH256992   1.053   3.594   0.407 -0.0232 -0.2664 -0.2568
11834TIP3    H156993   1.022   3.514   0.365 -0.9688 -1.9751  3.2710
11834TIP3    H256994   1.146   3.580   0.423 -0.0994 -0.5055 -0.0166
11835TIP3   OH256995   2.625   2.671  13.932 -0.2958 -0.1757 -0.2617
11835TIP3    H156996   2.673   2.610  13.988 -0.6028 -0.1407  0.0380
11835TIP3    H256997   2.689   2.696  13.864 -0.8081 -2.5660 -1.7386
11836TIP3   OH256998   0.858   0.090  14.281 -0.0356 -0.0433 -0.2257
11836TIP3    H156999   0.860   0.002  14.242  0.0359 -0.9470  1.6894
11836TIP3    H257000   0.921   0.085  14.353 -1.4908  0.9520  1.1628
11837TIP3   OH257001   6.530   4.174   2.790 -0.0663 -0.3962  0.0446
11837TIP3    H157002   6.564   4.232   2.858 -3.5056  2.5820 -0.4790
11837TIP3    H257003   6.469   4.116   2.836 -0.7480  0.1576 -0.1371
11838TIP3   OH257004   1.333   2.426   5.061  0.2683 -0.3570  0.2860
11838TIP3    H157005   1.291   2.512   5.057 -0.0999 -0.5558 -0.4487
11838TIP3    H257006   1.317   2.395   5.150 -2.3634 -1.0009 -0.3321
11839TIP3   OH257007   0.312   4.073   0.696  0.0527  0.1029  0.1451
11839TIP3    H157008   0.294   3.982   0.719 -1.6712 -0.5562 -3.1646
11839TIP3    H257009   0.232   4.103   0.653  1.4382  2.3642 -1.0483
11840TIP3   OH257010   3.462   1.964   0.173  0.2910 -0.5143  0.0381
11840TIP3    H157011   3.480   1.939   0.083 -0.9406 -0.1907 -0.3240
11840TIP3    H257012   3.379   2.013   0.168 -0.9906 -2.3798  1.6115
11841TIP3   OH257013   0.187   6.008  15.891 -0.1185  0.0397  0.8634
11841TIP3    H157014   0.270   5.988  15.936  1.7113  0.8397 -1.9203
11841TIP3    H257015   0.204   5.988  15.799 -3.5973 -1.2716  0.3752
11842TIP3   OH257016   2.626   6.052   5.900 -0.4282  0.0971 -0.5276
11842TIP3    H157017   2.545   6.030   5.945 -0.1386 -1.5315 -0.7387
11842TIP3    H257018   2.688   6.075   5.969 -1.1917  1.9348 -0.3958
11843TIP3   OH257019   6.344   5.013  16.059  0.9205 -0.2722  0.6364
11843TIP3    H157020   6.327   4.996  15.966 -0.5572 -0.9720  1.0027
11843TIP3    H257021   6.331   4.928  16.101 -1.8412  0.6523  1.9037
11844TIP3   OH257022   6.702   6.807   2.960 -0.1890 -0.4506  0.2313
11844TIP3    H157023   6.691   6.837   2.870  1.4992 -0.3075  0.0466
11844TIP3    H257024   6.775   6.745   2.956 -0.5944 -1.0360  1.3877
11845TIP3   OH257025   5.388   1.842   3.310 -0.4685  0.6464 -0.4007
11845TIP3    H157026   5.316   1.878   3.258  1.7766  1.9669 -2.9402
11845TIP3    H257027   5.432   1.781   3.250 -0.2585 -1.2194  1.5559
11846TIP3   OH257028   4.450   1.017   4.203  0.1258 -0.2151  0.0048
11846TIP3    H157029   4.466   1.089   4.143 -0.0834 -0.3008 -0.1574
11846TIP3    H257030   4.355   1.009   4.206  0.1374 -0.2634  0.2860
11847TIP3   OH257031   3.452   0.131   0.103 -0.1434 -0.0864 -0.0464
11847TIP3    H157032   3.373   0.181   0.127  0.0825  0.0439  0.4368
11847TIP3    H257033   3.510   0.196   0.063 -0.5861 -0.3369 -1.1162
11848TIP3   OH257034   1.300   1.768  16.705 -0.0992  0.1905 -0.4065
11848TIP3    H157035   1.248   1.847  16.688 -2.6084 -1.4692 -0.8653
11848TIP3    H257036   1.386   1.802  16.730 -0.6743  3.0545 -1.8350
11849TIP3   OH257037   5.966   5.898   3.910  0.6183  0.4539  0.1356
11849TIP3    H157038   6.013   5.973   3.872 -1.0751  0.5549 -1.9162
11849TIP3    H257039   5.896   5.938   3.962  0.2621  0.3148 -0.2327
11850TIP3   OH257040   3.816   5.628   5.784 -0.2150 -0.6003 -0.4893
11850TIP3    H157041   3.736   5.578   5.771  1.1909 -3.0315 -0.5098
11850TIP3    H257042   3.854   5.591   5.864 -0.5265  2.6098  1.3210
11851TIP3   OH257043   4.540   0.736  10.079 -0.2007  0.1813  0.4248
11851TIP3    H157044   4.529   0.645  10.106  1.2240 -0.0865  0.1986
11851TIP3    H257045   4.634   0.753  10.091 -0.4457  1.6014  0.4167
11852TIP3   OH257046   0.227   0.677   5.097 -0.6480 -0.3079 -0.7484
11852TIP3    H157047   0.191   0.758   5.134  0.8866  0.2627 -0.4363
11852TIP3    H257048   0.216   0.612   5.166 -2.1023 -0.4481 -1.0849
11853TIP3   OH257049   0.089   0.855  10.547  0.1112 -0.5675  0.0712
11853TIP3    H157050   0.143   0.818  10.617 -1.9540 -1.8632  1.0694
11853TIP3    H257051   0.131   0.825  10.466  2.0686  0.2744  0.7193
11854TIP3   OH257052   5.487   6.683  17.123 -0.1170  0.3420 -0.0417
11854TIP3    H157053   5.554   6.693  17.191 -0.4937 -0.6664  0.4967
11854TIP3    H257054   5.517   6.610  17.069 -0.7353 -0.0783  0.1653
11855TIP3   OH257055   4.906   4.730   5.173  0.3092 -0.4862 -0.1029
11855TIP3    H157056   4.826   4.680   5.190  1.1667 -1.4851  1.1215
11855TIP3    H257057   4.941   4.691   5.092 -0.2824 -0.2365 -0.4853
11856TIP3   OH257058   3.174   3.667  13.526 -0.1252  0.2911  0.4613
11856TIP3    H157059   3.257   3.715  13.526  0.1007 -0.0548  1.8189
11856TIP3    H257060   3.113   3.724  13.573 -1.0381  1.0960 -1.5812
11857TIP3   OH257061   5.668   5.739  16.806 -0.3216  0.2556 -0.4476
11857TIP3    H157062   5.673   5.825  16.848 -0.3417  0.8087 -1.5512
11857TIP3    H257063   5.664   5.677  16.880 -0.1198  1.1755  0.3624
11858TIP3   OH257064   3.703   3.416   0.781 -0.2021 -0.3733 -0.0690
11858TIP3    H157065   3.670   3.429   0.692  1.0187  1.9459 -0.2549
11858TIP3    H257066   3.625   3.422   0.836 -0.4972  3.3935 -0.6172
11859TIP3   OH257067   4.414   2.099   4.549  0.2206 -0.2466  0.1036
11859TIP3    H157068   4.406   2.184   4.593 -0.5489 -0.2084 -0.1061
11859TIP3    H257069   4.338   2.094   4.491  0.3241 -1.0306  0.0215
11860TIP3   OH257070   2.178   1.580   1.617 -0.1480 -0.2378 -0.1615
11860TIP3    H157071   2.093   1.561   1.659  1.1091 -0.1779  2.6696
11860TIP3    H257072   2.197   1.671   1.641  0.7130 -0.2550 -0.7403
11861TIP3   OH257073   1.922   0.223   1.515 -0.9082 -0.5911 -0.3775
11861TIP3    H157074   1.910   0.261   1.427 -0.6509 -0.3505 -0.3096
11861TIP3    H257075   1.915   0.298   1.574  1.9582 -0.1915 -0.3775
11862TIP3   OH257076   6.816   4.069   6.563 -0.9528 -0.4832 -0.2887
11862TIP3    H157077   6.730   4.037   6.535 -0.3033 -2.4655 -0.1654
11862TIP3    H257078   6.878   4.009   6.523  0.2244 -0.8659  1.9201
11863TIP3   OH257079   4.158   1.224   5.499  0.3946  0.3917 -0.3057
11863TIP3    H157080   4.109   1.278   5.437 -0.9263  0.9247  1.1263
11863TIP3    H257081   4.108   1.143   5.506  0.0805  0.6428  0.6053
11864TIP3   OH257082   3.255   1.813  12.749  0.1281 -0.4761 -0.0003
11864TIP3    H157083   3.334   1.793  12.698  0.0681 -0.4180 -0.1144
11864TIP3    H257084   3.207   1.730  12.751  0.9757 -0.9800  1.4524
11865TIP3   OH257085   3.239   3.931  13.268  0.0504 -0.6218 -0.8004
11865TIP3    H157086   3.164   3.991  13.266  0.1943 -0.4444 -0.9591
11865TIP3    H257087   3.235   3.890  13.354 -0.1644 -0.5298 -0.7663
11866TIP3   OH257088   2.565   6.330   5.332  0.0827  0.3277 -0.1396
11866TIP3    H157089   2.628   6.334   5.404  0.5906  0.3076 -0.5727
11866TIP3    H257090   2.482   6.359   5.370  0.3942  0.5217  0.3970
11867TIP3   OH257091   2.186   1.985  13.053  0.0587 -0.3504  0.8087
11867TIP3    H157092   2.151   1.926  12.986  2.2782 -1.2653  0.3329
11867TIP3    H257093   2.161   2.072  13.024 -2.4730 -0.9381  1.0040
11868TIP3   OH257094   0.389   3.368  13.552 -0.1330  0.0039  0.4355
11868TIP3    H157095   0.431   3.413  13.625 -0.0657  0.2817  0.2285
11868TIP3    H257096   0.307   3.416  13.539 -0.1312 -0.0278  0.3104
11869TIP3   OH257097   6.442   3.513   0.572 -0.5026  0.2068  0.2095
11869TIP3    H157098   6.495   3.447   0.527 -1.0960  0.5052 -0.9498
11869TIP3    H257099   6.383   3.461   0.627 -0.4695 -0.2041 -0.1338
11870TIP3   OH257100   6.103   2.649  13.510 -0.0290 -0.4871  0.2669
11870TIP3    H157101   6.047   2.624  13.583  0.1694 -1.1399  0.2077
11870TIP3    H257102   6.090   2.579  13.445  0.4683 -0.3825  0.0476
11871TIP3   OH257103   6.145   4.498   2.158 -0.2482 -0.1084  0.1145
11871TIP3    H157104   6.221   4.543   2.123  0.4062 -1.1103  0.1972
11871TIP3    H257105   6.147   4.411   2.116 -1.7070  0.0575 -0.3865
11872TIP3   OH257106   0.795   6.135   3.751  0.3215  0.2320 -0.6172
11872TIP3    H157107   0.775   6.043   3.769  0.2873  0.6878  2.1211
11872TIP3    H257108   0.728   6.184   3.799  0.9984  1.6852 -1.0954
11873TIP3   OH257109   5.975   3.269  13.844  0.6024 -0.1957 -0.3668
11873TIP3    H157110   5.911   3.225  13.789  0.9457 -0.9671 -0.1570
11873TIP3    H257111   6.009   3.340  13.788 -0.8509  0.6237 -0.2696
11874TIP3   OH257112   5.093   5.680  17.055  0.0002  0.7711 -0.6605
11874TIP3    H157113   5.112   5.644  16.969 -1.6521 -2.1449  0.0529
11874TIP3    H257114   4.999   5.666  17.067  0.7560 -3.4294  3.2974
11875TIP3   OH257115   5.997   1.278  16.707  0.0022 -0.2709  0.6980
11875TIP3    H157116   6.022   1.365  16.678 -1.9869  0.0642 -0.1586
11875TIP3    H257117   5.953   1.291  16.791  2.4674 -0.8600  2.2101
11876TIP3   OH257118   3.947   1.981  13.160  0.2151  0.5737  0.1573
11876TIP3    H157119   4.022   1.926  13.137  0.1675  1.1124 -1.4441
11876TIP3    H257120   3.898   1.929  13.223  0.5875 -0.8939 -0.7132
11877TIP3   OH257121   2.000   1.819  13.920  0.2451 -0.5208  0.1755
11877TIP3    H157122   2.071   1.823  13.857 -0.6306 -0.3778 -0.8227
11877TIP3    H257123   1.923   1.795  13.869 -0.4723 -0.4854  1.2014
11878TIP3   OH257124   2.416   5.713  14.849  0.3982  0.1255 -0.2454
11878TIP3    H157125   2.332   5.668  14.862  0.6556 -0.3656 -0.2696
11878TIP3    H257126   2.395   5.785  14.789 -0.5087  1.5277  1.6343
11879TIP3   OH257127   5.108   4.831   0.956  0.3057 -0.2753 -0.0254
11879TIP3    H157128   5.024   4.853   0.916  0.7470 -0.0539 -0.8286
11879TIP3    H257129   5.088   4.758   1.014 -0.3191 -0.6609 -0.7201
11880TIP3   OH257130   4.951   5.889  16.485  0.4513  0.9715 -0.2515
11880TIP3    H157131   4.943   5.975  16.445 -0.0406  0.9707 -0.1531
11880TIP3    H257132   4.929   5.902  16.577 -2.8023  0.1993 -0.8156
11881TIP3   OH257133   1.772   3.117   6.234  0.1734  0.1194 -0.5826
11881TIP3    H157134   1.755   3.147   6.323 -0.5790 -0.6399 -0.4609
11881TIP3    H257135   1.866   3.097   6.233  0.2428  0.3928 -0.0505
11882TIP3   OH257136   6.712   1.509  16.114  0.6768  0.8623  0.1468
11882TIP3    H157137   6.760   1.513  16.196 -0.6554 -1.8878  1.1649
11882TIP3    H257138   6.777   1.479  16.050  1.0014 -0.1445  0.9212
11883TIP3   OH257139   1.330   0.057   1.451 -0.3930 -0.0216 -0.2976
11883TIP3    H157140   1.359   0.036   1.540 -0.9230  0.0025 -0.1173
11883TIP3    H257141   1.403   0.030   1.395 -0.8423 -1.9276 -0.0294
11884TIP3   OH257142   1.783   2.561   2.297  0.2525 -0.0341  0.4289
11884TIP3    H157143   1.703   2.515   2.273  0.7964 -0.3882 -0.7567
11884TIP3    H257144   1.778   2.570   2.392 -1.4103  0.3647  0.3331
11885TIP3   OH257145   4.241   1.534   0.748 -0.3338  0.2338 -0.1562
11885TIP3    H157146   4.223   1.506   0.838 -0.2389 -1.8957 -0.7409
11885TIP3    H257147   4.172   1.492   0.696  1.1636 -0.8237 -1.3774
11886TIP3   OH257148   6.452   5.810  16.724  0.4076 -0.6899 -0.3747
11886TIP3    H157149   6.428   5.802  16.631  0.8170 -1.2976 -0.4292
11886TIP3    H257150   6.420   5.730  16.764  1.1073 -0.8852 -0.1878
11887TIP3   OH257151   4.130   2.312   3.984  0.1086 -0.5874  0.0313
11887TIP3    H157152   4.072   2.361   3.927  0.9290  2.2087  1.4437
11887TIP3    H257153   4.204   2.289   3.928  0.1719  0.7156 -0.4501
11888TIP3   OH257154   3.916   5.257  11.298  0.3295 -0.6300  0.1375
11888TIP3    H157155   3.981   5.326  11.310  0.1221 -0.8030  2.8266
11888TIP3    H257156   3.851   5.295  11.238  1.0078  0.9102  0.3479
11889TIP3   OH257157   2.617   1.134   2.478 -0.2551 -0.8178 -0.8202
11889TIP3    H157158   2.576   1.172   2.400 -1.1506 -0.0971 -0.0286
11889TIP3    H257159   2.700   1.181   2.487 -1.2686  0.9039  0.0475
11890TIP3   OH257160   3.024   2.172   1.481  0.4645  0.1022  0.2027
11890TIP3    H157161   2.995   2.122   1.405 -2.8138  0.9837  0.7125
11890TIP3    H257162   2.946   2.180   1.536  2.3278  0.8029  2.9567
11891TIP3   OH257163   5.199   4.820   2.528 -0.4066  0.2583  0.1938
11891TIP3    H157164   5.135   4.829   2.457 -1.6696  0.9207  1.3455
11891TIP3    H257165   5.191   4.902   2.577  1.2962  0.3127  0.4349
11892TIP3   OH257166   3.395   5.377  10.527  0.2200 -0.2102  0.1392
11892TIP3    H157167   3.365   5.300  10.576  0.7153 -0.5595 -0.0968
11892TIP3    H257168   3.356   5.451  10.573 -1.5030 -0.6644 -0.5015
11893TIP3   OH257169   5.875   4.814   1.470 -0.4910  0.5397 -0.4527
11893TIP3    H157170   5.798   4.871   1.479  0.1009  1.2041  0.5019
11893TIP3    H257171   5.845   4.729   1.501 -1.3939  0.2826 -1.9263
11894TIP3   OH257172   5.467   1.732   0.219 -0.1305  0.0648 -0.0929
11894TIP3    H157173   5.448   1.807   0.164 -2.6555 -1.1383 -0.9877
11894TIP3    H257174   5.408   1.741   0.294  0.0141 -0.6739  0.1196
11895TIP3   OH257175   2.660   4.644  12.830 -0.1391 -0.1005  0.7173
11895TIP3    H157176   2.612   4.577  12.879 -1.2731 -0.4019 -0.7277
11895TIP3    H257177   2.751   4.612  12.828 -0.3761 -0.8321  1.3221
11896TIP3   OH257178   2.393   2.566  13.854 -0.3823 -0.0384  0.1689
11896TIP3    H157179   2.328   2.580  13.923  0.6783 -2.0092  1.6633
11896TIP3    H257180   2.474   2.604  13.889  0.3090 -1.5823  0.3241
11897TIP3   OH257181   2.066   2.071  12.728  0.0491 -0.0565  0.2427
11897TIP3    H157182   1.981   2.035  12.752  0.4418 -2.5554 -1.7071
11897TIP3    H257183   2.116   1.996  12.697  3.4447  1.1048  2.3812
11898TIP3   OH257184   5.383   0.813  11.982  0.0309  0.3710 -0.3303
11898TIP3    H157185   5.426   0.750  12.040  0.0076 -1.1950 -1.9285
11898TIP3    H257186   5.294   0.819  12.015 -0.6017 -2.1297 -1.3405
11899TIP3   OH257187   4.276   6.223   2.732  0.2079 -0.8496 -0.5882
11899TIP3    H157188   4.306   6.218   2.823  0.3641 -1.0928 -0.6524
11899TIP3    H257189   4.354   6.205   2.680  0.3703  0.3931 -0.8006
11900TIP3   OH257190   1.200   6.495   1.224 -0.4410 -0.7099  0.3088
11900TIP3    H157191   1.202   6.443   1.305  0.0844 -1.7942 -0.3779
11900TIP3    H257192   1.292   6.518   1.208 -0.6050 -0.0220  0.3001
11901TIP3   OH257193   5.630   5.376   3.486  0.1916 -0.0141 -0.2356
11901TIP3    H157194   5.610   5.455   3.536 -0.2484 -0.7416  0.7881
11901TIP3    H257195   5.680   5.321   3.547 -1.3022 -1.3835 -0.1528
11902TIP3   OH257196   2.741   3.883  16.080 -0.1689 -0.0636 -0.1540
11902TIP3    H157197   2.802   3.914  16.014 -1.6779  1.4403 -0.9350
11902TIP3    H257198   2.766   3.930  16.160  0.7215 -0.7440 -0.0203
11903TIP3   OH257199   3.915   5.291  12.960 -0.2276 -0.1222 -0.1453
11903TIP3    H157200   4.001   5.328  12.938  0.0404  0.4262  1.6129
11903TIP3    H257201   3.900   5.223  12.895  2.0896 -1.0098  0.1590
11904TIP3   OH257202   1.743   4.731  15.470  0.5019  0.4847 -0.2034
11904TIP3    H157203   1.716   4.639  15.464 -0.8200  0.6041  2.3384
11904TIP3    H257204   1.664   4.781  15.452  0.3979  1.0033  1.4899
11905TIP3   OH257205   0.030   2.976   3.222 -0.8754  0.0615  0.1173
11905TIP3    H157206   0.057   3.058   3.181 -0.2290 -0.6554 -0.9563
11905TIP3    H257207  -0.058   2.993   3.255 -1.4238  0.6852 -1.5764
11906TIP3   OH257208   4.238   2.910  13.607  0.4436  0.6695 -0.4023
11906TIP3    H157209   4.165   2.908  13.669 -0.6537  1.2328 -1.6064
11906TIP3    H257210   4.217   2.984  13.549  0.9638 -0.3534 -1.9512
11907TIP3   OH257211   1.282   1.096   1.928  0.1199 -0.0342 -0.2411
11907TIP3    H157212   1.196   1.112   1.890  0.9075  0.7867 -1.7955
11907TIP3    H257213   1.321   1.183   1.936  1.0795 -0.4492 -0.2251
11908TIP3   OH257214   0.827   3.225  12.712  0.2820 -0.0400 -0.0281
11908TIP3    H157215   0.827   3.297  12.650  0.3872  0.0841  0.1179
11908TIP3    H257216   0.858   3.263  12.794  2.9679 -0.8173 -0.5972
11909TIP3   OH257217   1.010   4.763   1.631 -0.0452  0.2512 -0.3870
11909TIP3    H157218   1.050   4.676   1.639  0.6268  0.6235  0.5540
11909TIP3    H257219   0.920   4.746   1.604  0.1930 -0.7201 -0.5916
11910TIP3   OH257220   6.362   2.536   4.856  0.0503  0.5358 -0.0493
11910TIP3    H157221   6.389   2.623   4.826 -3.8550  1.1208 -2.5516
11910TIP3    H257222   6.421   2.476   4.811  2.0339  1.7791  0.7645
11911TIP3   OH257223   2.818   3.113   3.151 -0.8143 -0.2658 -0.0438
11911TIP3    H157224   2.855   3.029   3.124 -2.1802 -1.8109  2.4832
11911TIP3    H257225   2.846   3.175   3.083  0.6457 -2.6335 -1.7476
11912TIP3   OH257226   0.915   1.917  13.439 -0.2708 -0.1151 -0.3914
11912TIP3    H157227   0.879   1.830  13.456 -0.3859  0.2809  1.6640
11912TIP3    H257228   1.008   1.901  13.419 -0.4065 -0.7294 -0.5720
11913TIP3   OH257229   2.748   5.117   3.947  0.7193 -0.0890 -0.1253
11913TIP3    H157230   2.769   5.102   3.855  1.5650  3.3175 -0.6406
11913TIP3    H257231   2.661   5.078   3.959  0.7382 -0.9110 -2.2482
11914TIP3   OH257232   2.566   4.555  14.177  0.7033  1.1058  0.3233
11914TIP3    H157233   2.515   4.630  14.149 -1.1951 -0.0502  0.5122
11914TIP3    H257234   2.508   4.506  14.235  2.4156  0.2782  1.4260
11915TIP3   OH257235   2.267   0.269   4.360  0.2650 -0.2140  0.1665
11915TIP3    H157236   2.186   0.296   4.403 -0.5365 -1.0517 -0.7479
11915TIP3    H257237   2.323   0.239   4.431  0.2255  1.4125  0.9312
11916TIP3   OH257238   4.427   6.064  13.379 -0.2535 -0.7130  0.2620
11916TIP3    H157239   4.423   5.988  13.321 -0.6485 -0.2724 -0.2858
11916TIP3    H257240   4.514   6.058  13.419  1.1635  0.4443 -2.3800
11917TIP3   OH257241   0.892   3.218   6.253  0.0325 -0.4640  0.4287
11917TIP3    H157242   0.969   3.236   6.199  0.8345 -0.4709  1.5479
11917TIP3    H257243   0.849   3.144   6.209  0.5555 -0.3370 -0.3135
11918TIP3   OH257244   0.202   4.980   1.734  0.2357 -0.0289 -0.1264
11918TIP3    H157245   0.244   5.060   1.764  0.6898 -0.4023  0.2565
11918TIP3    H257246   0.153   4.948   1.811  1.8736 -1.2961  0.4383
11919TIP3   OH257247   0.037   4.984  15.003 -0.1733  0.1057 -0.7100
11919TIP3    H157248   0.066   4.987  15.094 -0.9233  0.2102 -0.4619
11919TIP3    H257249   0.104   5.032  14.954 -0.7229  1.7468  0.0697
11920TIP3   OH257250   3.026   5.236  16.657  0.1370 -0.3909  0.3008
11920TIP3    H157251   2.977   5.311  16.622  0.7728  0.4401  1.1806
11920TIP3    H257252   2.963   5.164  16.652 -0.8696  0.4393  0.5014
11921TIP3   OH257253   3.196   4.432  10.497 -0.2894 -0.0390 -0.8798
11921TIP3    H157254   3.123   4.489  10.522 -0.4382 -0.5616 -0.0873
11921TIP3    H257255   3.203   4.370  10.570  1.9356  0.9272 -0.2038
11922TIP3   OH257256   0.119   2.839  14.505  0.3320 -0.0626 -0.0872
11922TIP3    H157257   0.109   2.835  14.600  1.0064 -0.8119 -0.0258
11922TIP3    H257258   0.091   2.927  14.480  0.5448  0.2792  0.8608
11923TIP3   OH257259   4.561   5.058   4.527 -0.1736 -0.1285 -0.9638
11923TIP3    H157260   4.490   5.060   4.592 -0.5269  0.9225 -1.3548
11923TIP3    H257261   4.578   4.965   4.513  2.0581 -0.4794  2.8950
11924TIP3   OH257262   3.706   6.165  12.700 -0.5016  0.4608 -0.3030
11924TIP3    H157263   3.707   6.133  12.610 -0.1763  1.4484 -0.6617
11924TIP3    H257264   3.736   6.091  12.752  0.6192  0.2918 -1.1495
11925TIP3   OH257265   1.968   6.459   3.273 -0.1129 -0.8262 -0.4088
11925TIP3    H157266   1.917   6.435   3.196 -0.0857 -0.9368 -0.3922
11925TIP3    H257267   2.019   6.535   3.245 -0.7721 -0.3043 -0.2276
11926TIP3   OH257268   5.133   4.144  12.072 -0.3897  0.4681  0.2560
11926TIP3    H157269   5.110   4.061  12.114  0.6821  0.2156  0.3823
11926TIP3    H257270   5.165   4.119  11.985 -1.5186  0.8946 -0.3094
11927TIP3   OH257271   2.271   2.150   1.658 -0.0193 -0.5270 -0.4974
11927TIP3    H157272   2.275   2.090   1.733 -0.3362 -0.0584 -0.0996
11927TIP3    H257273   2.186   2.131   1.617  0.8036 -1.8741 -1.6774
11928TIP3   OH257274   2.529   4.100  14.882 -0.2413 -0.4680 -0.6584
11928TIP3    H157275   2.486   4.077  14.964  0.6865 -0.9948 -0.3063
11928TIP3    H257276   2.488   4.183  14.856 -0.1256  0.0131  0.6355
11929TIP3   OH257277   1.759   4.040  13.255  0.8371  0.2581  0.0548
11929TIP3    H157278   1.765   4.081  13.342 -0.2824  1.2517 -0.3127
11929TIP3    H257279   1.734   4.111  13.197 -1.5265 -0.9919 -0.5602
11930TIP3   OH257280   1.148   3.846  14.118 -0.8951 -0.0043  0.1995
11930TIP3    H157281   1.185   3.789  14.051 -0.2952 -0.3084  0.7876
11930TIP3    H257282   1.068   3.801  14.146  0.2404 -1.2404  1.5883
11931TIP3   OH257283   0.863   5.234  13.805  0.1229  0.6512 -0.4776
11931TIP3    H157284   0.769   5.241  13.788  0.2354  0.8826 -1.0319
11931TIP3    H257285   0.878   5.289  13.882 -0.2248  0.4490 -0.2620
11932TIP3   OH257286   3.081   3.290  13.817 -0.2589  0.6122 -0.2284
11932TIP3    H157287   3.135   3.246  13.752 -0.6273  0.6555 -0.5582
11932TIP3    H257288   3.130   3.371  13.837  0.2877  0.1921  0.1960
11933TIP3   OH257289   6.650   3.972   3.106  0.1053 -0.2552 -1.1242
11933TIP3    H157290   6.594   4.050   3.106 -0.1172 -0.3673 -3.0612
11933TIP3    H257291   6.684   3.967   3.016  3.1129 -0.2933 -0.0889
11934TIP3   OH257292   2.336   6.359  17.020 -0.6133 -0.5901  0.1585
11934TIP3    H157293   2.285   6.290  17.063 -0.3144 -1.3701 -0.7074
11934TIP3    H257294   2.285   6.439  17.034 -1.2029 -1.0583  0.7687
11935TIP3   OH257295   6.525   2.370  14.497  0.2063  0.3840  0.3153
11935TIP3    H157296   6.526   2.466  14.493 -0.5471  0.4328  1.1150
11935TIP3    H257297   6.450   2.345  14.443  0.3863  0.2491  0.1297
11936TIP3   OH257298   2.170   3.900   0.293 -0.0911 -0.4874 -0.2973
11936TIP3    H157299   2.120   3.912   0.374 -1.8937 -0.2875 -1.4060
11936TIP3    H257300   2.134   3.821   0.254  0.9999 -0.7704 -0.7590
11937TIP3   OH257301   6.216   6.474   6.378  0.1647 -0.4341  0.6372
11937TIP3    H157302   6.262   6.429   6.448  0.3080 -1.1762  0.0823
11937TIP3    H257303   6.139   6.512   6.420  1.1662  0.6617  1.5397
11938TIP3   OH257304   2.891   5.600  10.990  0.2163  0.5256  1.0798
11938TIP3    H157305   2.951   5.531  11.019 -0.0116 -0.5671 -0.9011
11938TIP3    H257306   2.944   5.656  10.934 -0.6656 -0.7503 -1.1239
11939TIP3   OH257307   6.617   0.397   0.459 -0.1040 -0.2649  0.2282
11939TIP3    H157308   6.626   0.447   0.540 -0.9011  1.9923 -0.9714
11939TIP3    H257309   6.697   0.416   0.410 -2.1261  3.7341 -2.1055
11940TIP3   OH257310   3.053   5.370  15.920  0.3730  0.2600  0.1162
11940TIP3    H157311   3.091   5.407  16.000  0.6499 -1.3121  0.7449
11940TIP3    H257312   3.117   5.389  15.852  0.5992  0.7440  0.4586
11941TIP3   OH257313   2.193   1.456  11.399 -0.4268  0.1930 -0.0313
11941TIP3    H157314   2.108   1.423  11.429 -1.3582  1.9359 -0.6406
11941TIP3    H257315   2.216   1.400  11.325 -0.8611 -0.5249  0.3676
11942TIP3   OH257316   1.458   5.343   1.259  0.2733 -1.0148  0.1431
11942TIP3    H157317   1.398   5.399   1.308  0.0250 -0.3277 -0.9296
11942TIP3    H257318   1.537   5.341   1.312  0.5286  0.9016 -0.1120
11943TIP3   OH257319   2.482   2.155  16.774 -0.4101  0.4982 -0.2587
11943TIP3    H157320   2.444   2.133  16.859  0.8620  0.0046  0.2120
11943TIP3    H257321   2.410   2.148  16.712 -1.6195  1.9013  0.9234
11944TIP3   OH257322   2.863   4.809  16.340 -0.4011 -0.1762 -0.4934
11944TIP3    H157323   2.777   4.780  16.370 -0.1741 -0.9513 -0.5757
11944TIP3    H257324   2.923   4.740  16.367  0.0191 -0.2162 -1.4778
11945TIP3   OH257325   2.324   0.128   4.080  0.0571 -0.0902  0.7151
11945TIP3    H157326   2.239   0.171   4.090  1.4295  2.5516  2.1662
11945TIP3    H257327   2.376   0.189   4.028  1.3071 -1.2913  0.4883
11946TIP3   OH257328   2.792   5.320   0.901 -0.0882  0.0859  0.2989
11946TIP3    H157329   2.762   5.266   0.829 -1.2617 -1.6330  1.9592
11946TIP3    H257330   2.717   5.378   0.920  0.7396  1.5417 -0.7339
11947TIP3   OH257331   3.091   6.767   1.934  0.0343 -0.5321  0.6336
11947TIP3    H157332   3.112   6.675   1.918  0.9138 -0.0680 -1.1632
11947TIP3    H257333   3.156   6.795   1.999  1.3913 -0.5780 -0.6558
11948TIP3   OH257334   0.159   5.404   2.519 -0.7695  0.7881 -0.6280
11948TIP3    H157335   0.179   5.450   2.438 -1.4641  2.7617  0.2620
11948TIP3    H257336   0.190   5.462   2.589 -1.0811 -0.4004  0.5483
11949TIP3   OH257337   1.290   1.647   4.785 -0.4432 -0.0292  0.0233
11949TIP3    H157338   1.307   1.576   4.846  2.8333 -0.6734 -1.4155
11949TIP3    H257339   1.302   1.607   4.698 -0.1335  1.8930 -0.8745
11950TIP3   OH257340   0.714   3.003   3.664 -1.0067 -0.0680  0.0760
11950TIP3    H157341   0.694   3.097   3.660  1.0761  0.3925 -0.6407
11950TIP3    H257342   0.689   2.977   3.752  0.0011  1.5839  0.8992
11951TIP3   OH257343   5.576   5.947   2.343 -0.5410  0.0218 -0.7083
11951TIP3    H157344   5.593   5.853   2.339  0.1300  0.1704 -1.7374
11951TIP3    H257345   5.606   5.973   2.430  1.0875 -0.3944 -1.1072
11952TIP3   OH257346   0.804   4.423  12.926 -0.4259 -0.4285 -0.2809
11952TIP3    H157347   0.894   4.392  12.919 -0.3034 -0.3985  0.8823
11952TIP3    H257348   0.808   4.490  12.995 -1.3776 -0.6063 -0.0465
11953TIP3   OH257349   3.481   4.003   4.306  0.8251  0.3834 -0.1586
11953TIP3    H157350   3.568   3.977   4.274  1.1779 -2.0613  2.4150
11953TIP3    H257351   3.492   4.010   4.401 -1.6935  0.4657  0.1753
11954TIP3   OH257352   1.170   1.815   4.361  0.6471 -0.2743  0.3418
11954TIP3    H157353   1.252   1.862   4.375  0.3999  1.3050 -2.6782
11954TIP3    H257354   1.197   1.729   4.329  1.0840 -0.3594  0.9115
11955TIP3   OH257355   1.433   1.812  11.263  0.1505  0.0154  0.3535
11955TIP3    H157356   1.351   1.827  11.217  0.1831 -1.9174 -0.4331
11955TIP3    H257357   1.484   1.892  11.249 -1.2384  0.8735  0.0970
11956TIP3   OH257358   5.553   2.357   2.599  0.5647  0.0182 -0.4878
11956TIP3    H157359   5.493   2.293   2.637  2.2438 -0.6268  1.2652
11956TIP3    H257360   5.636   2.342   2.644  1.3610  2.6435 -0.8823
11957TIP3   OH257361   1.330   4.615  13.817  0.3524  0.5086  0.0477
11957TIP3    H157362   1.364   4.656  13.897 -1.7127 -1.9998  2.4253
11957TIP3    H257363   1.361   4.525  13.822 -1.7487 -0.3041 -0.7203
11958TIP3   OH257364   5.542   4.111   2.395 -0.0385 -0.0573  0.3507
11958TIP3    H157365   5.565   4.034   2.447  0.6927 -0.1981 -0.1696
11958TIP3    H257366   5.459   4.141   2.433 -0.1805 -0.9183  0.7569
11959TIP3   OH257367   5.359   5.122   2.376  0.1706  0.0932  0.0916
11959TIP3    H157368   5.450   5.094   2.389 -0.0773 -0.1732  1.4434
11959TIP3    H257369   5.343   5.107   2.283  1.1188 -1.0749  0.0779
11960TIP3   OH257370   4.925   4.262   4.973  0.4894 -0.0570  0.0862
11960TIP3    H157371   4.993   4.242   5.037  1.8643 -2.5484 -1.9672
11960TIP3    H257372   4.973   4.283   4.893 -0.9882 -3.4618 -1.8941
11961TIP3   OH257373   4.940   4.973   1.533 -0.1529  0.1685 -0.3470
11961TIP3    H157374   4.879   4.927   1.591  1.3724 -1.0315  0.3846
11961TIP3    H257375   4.985   5.035   1.590 -1.2437  1.6408 -1.0517
11962TIP3   OH257376   4.511   0.440   3.269  0.1827 -0.3142  0.2538
11962TIP3    H157377   4.559   0.364   3.302  1.3725 -0.0401 -0.7560
11962TIP3    H257378   4.579   0.505   3.249 -0.7883  0.9124  0.8148
11963TIP3   OH257379   3.399   5.959  11.980 -0.6921 -0.0785 -0.7625
11963TIP3    H157380   3.339   5.887  11.960 -0.3471 -0.0123 -2.1212
11963TIP3    H257381   3.433   5.938  12.067 -0.6748 -1.5184 -1.0837
11964TIP3   OH257382   2.189   3.724  15.780 -0.7674  0.2586  0.0745
11964TIP3    H157383   2.097   3.706  15.759 -1.2052  0.1320  1.8565
11964TIP3    H257384   2.189   3.817  15.805 -0.7967 -0.1289  1.6737
11965TIP3   OH257385   1.850   2.472   1.515 -0.7313 -0.0763 -0.0474
11965TIP3    H157386   1.927   2.450   1.568 -1.1002 -0.1997  0.4537
11965TIP3    H257387   1.800   2.390   1.512 -0.9914  0.0855 -0.1151
11966TIP3   OH257388   3.483   5.982  12.250  0.3534 -0.3785  0.5208
11966TIP3    H157389   3.552   5.916  12.252 -0.3932 -1.2062  0.0649
11966TIP3    H257390   3.413   5.944  12.304 -0.6583 -0.6297 -0.9167
11967TIP3   OH257391   0.277   0.038  12.782  0.0145  0.0376  0.1645
11967TIP3    H157392   0.299   0.126  12.813 -0.7532  0.3378 -0.1132
11967TIP3    H257393   0.361  -0.002  12.760  0.3642  0.7209  0.2410
11968TIP3   OH257394   5.275   4.783   0.433 -0.2589 -0.1663 -0.2353
11968TIP3    H157395   5.325   4.802   0.513 -0.5148  1.5562 -0.4359
11968TIP3    H257396   5.185   4.803   0.456 -0.1750  1.6284 -1.2920
11969TIP3   OH257397   2.643   5.320   0.235  0.0655 -0.2152 -0.2668
11969TIP3    H157398   2.670   5.273   0.156 -3.4529 -1.7255 -0.7662
11969TIP3    H257399   2.615   5.405   0.203  0.7889  0.0277 -0.2719
11970TIP3   OH257400   3.203   2.283  16.255 -0.5711  0.1845 -0.4000
11970TIP3    H157401   3.228   2.368  16.290  1.9538 -0.1858 -1.0865
11970TIP3    H257402   3.254   2.220  16.307  1.0772 -0.5477 -2.7055
11971TIP3   OH257403   4.943   6.797  11.664  0.0852 -0.2439  0.6747
11971TIP3    H157404   4.926   6.834  11.751  0.2980 -0.7375  0.9354
11971TIP3    H257405   4.857   6.786  11.625  0.0262  0.6581  0.5291
11972TIP3   OH257406   6.698   1.166   3.519 -0.2255 -0.7919  0.0325
11972TIP3    H157407   6.760   1.127   3.458  0.8214  0.7039  0.0898
11972TIP3    H257408   6.751   1.193   3.594 -0.5844  2.0514 -0.6214
11973TIP3   OH257409   5.468   5.658  14.612 -0.0864 -0.2895 -0.0223
11973TIP3    H157410   5.551   5.686  14.572  0.0102  0.9941  0.9845
11973TIP3    H257411   5.433   5.593  14.552  1.1838 -0.1492 -0.9659
11974TIP3   OH257412   5.449   1.680   3.096  0.1951  0.1780  0.3047
11974TIP3    H157413   5.507   1.753   3.075  0.9632 -0.6744 -0.6290
11974TIP3    H257414   5.461   1.618   3.024  0.4168 -1.3715  1.6190
11975TIP3   OH257415   2.532   3.459  14.152  0.6393 -0.6198  0.7447
11975TIP3    H157416   2.560   3.382  14.104  0.1840 -0.1955 -0.2337
11975TIP3    H257417   2.562   3.533  14.100  1.3764 -0.1114  1.8429
11976TIP3   OH257418   1.449   6.822   2.147 -0.3375 -0.6542  0.5122
11976TIP3    H157419   1.392   6.827   2.070  0.3364  0.5299  0.0582
11976TIP3    H257420   1.392   6.790   2.217 -1.5361  0.3592  0.0496
11977TIP3   OH257421   3.840   4.643   0.851  0.4791 -0.3001 -0.0278
11977TIP3    H157422   3.771   4.610   0.793  0.1521  0.2671  0.0294
11977TIP3    H257423   3.915   4.660   0.794  0.2058  0.1211 -0.2703
11978TIP3   OH257424   0.403   2.354   1.658 -1.0644  0.7448 -0.6548
11978TIP3    H157425   0.316   2.359   1.698 -0.4957  2.2426  0.5189
11978TIP3    H257426   0.386   2.351   1.564 -2.3949  0.9444 -0.4463
11979TIP3   OH257427   4.047   1.241  16.225  0.2424 -0.2253 -0.5607
11979TIP3    H157428   4.104   1.279  16.292  0.0229 -1.6788  0.5065
11979TIP3    H257429   3.963   1.229  16.269 -0.0509 -0.7665 -1.2498
11980TIP3   OH257430   4.096   4.579  15.988 -0.5813 -0.5541 -0.4592
11980TIP3    H157431   4.095   4.491  15.950  1.3722 -0.9985  0.3947
11980TIP3    H257432   4.059   4.567  16.076  1.7873 -1.0346  0.5353
11981TIP3   OH257433   2.584   2.412   2.267  0.4898 -0.3718  0.1498
11981TIP3    H157434   2.565   2.321   2.293  0.2319 -0.6452 -0.9422
11981TIP3    H257435   2.515   2.464   2.308  0.3401 -0.7380  0.3645
11982TIP3   OH257436   6.452   1.173  10.843  0.1567  0.1276  0.0427
11982TIP3    H157437   6.475   1.082  10.822 -2.4690 -0.3975 -1.0810
11982TIP3    H257438   6.380   1.165  10.905 -1.4286  1.3080 -1.5419
11983TIP3   OH257439   2.382   0.526   4.492 -0.3539  0.3244  0.6372
11983TIP3    H157440   2.362   0.487   4.406  0.1766 -0.2348  0.7585
11983TIP3    H257441   2.467   0.569   4.480 -1.4450  2.4830  0.1891
11984TIP3   OH257442   4.215   0.396   3.721  0.0834  0.5014 -0.2902
11984TIP3    H157443   4.181   0.474   3.678 -1.9182 -0.1017  0.1038
11984TIP3    H257444   4.226   0.333   3.650 -0.7996  0.3191 -0.2732
11985TIP3   OH257445   6.628   6.486   6.034  0.2134  0.6907  0.3281
11985TIP3    H157446   6.618   6.425   5.962  2.5032  0.6701 -0.0583
11985TIP3    H257447   6.658   6.432   6.107  2.0270  1.2221  0.0477
11986TIP3   OH257448   3.358   4.861  11.425  1.0451  0.0975  0.4363
11986TIP3    H157449   3.280   4.865  11.481  1.3291  0.1435  0.8277
11986TIP3    H257450   3.371   4.952  11.396  0.4484 -0.0482 -0.3320
11987TIP3   OH257451   0.756   0.662   2.390 -0.5319 -0.1453 -0.0661
11987TIP3    H157452   0.849   0.642   2.389 -0.1962  1.2974 -0.5653
11987TIP3    H257453   0.750   0.746   2.436 -1.3500  0.7440 -1.7040
11988TIP3   OH257454   3.613   5.256  11.384  0.2247 -0.4456 -0.4854
11988TIP3    H157455   3.533   5.235  11.335 -0.2068  0.2022 -0.0741
11988TIP3    H257456   3.621   5.185  11.448  0.3564 -0.8734 -0.9715
11989TIP3   OH257457   0.455   6.502  16.424 -0.0490 -0.8329 -0.3362
11989TIP3    H157458   0.443   6.597  16.425  0.7786 -0.7080  1.2378
11989TIP3    H257459   0.372   6.467  16.391 -0.4956  0.4237 -0.5796
11990TIP3   OH257460   1.804   2.377   5.132  0.4375  0.1598  0.2290
11990TIP3    H157461   1.756   2.303   5.169 -0.0533  0.9585  1.2385
11990TIP3    H257462   1.740   2.422   5.078  0.9837 -0.6458 -1.1425
11991TIP3   OH257463   2.372   6.329   6.003 -0.5085 -0.1012  0.0430
11991TIP3    H157464   2.422   6.388   6.059  1.3838 -1.0827 -0.5213
11991TIP3    H257465   2.384   6.242   6.042 -0.2571 -0.6135 -1.1080
11992TIP3   OH257466   0.848   3.462   1.900  0.4267 -0.0890  0.4847
11992TIP3    H157467   0.762   3.419   1.898  1.1818 -1.7448  1.6107
11992TIP3    H257468   0.834   3.546   1.856 -1.5734 -0.6640 -0.0635
11993TIP3   OH257469   1.937   0.273  14.345  0.0960  0.0295 -0.0833
11993TIP3    H157470   1.847   0.287  14.316  0.2494 -0.0518 -0.6051
11993TIP3    H257471   1.978   0.360  14.339 -0.5922  0.6113  2.4864
11994TIP3   OH257472   4.360   0.090   2.218  0.3226 -0.5849  0.3713
11994TIP3    H157473   4.378   0.043   2.299  0.9530 -0.6821  0.1854
11994TIP3    H257474   4.332   0.022   2.157  0.9133 -0.6823  0.1983
11995TIP3   OH257475   5.222   5.786   0.523  0.3911  0.1084 -0.2014
11995TIP3    H157476   5.209   5.873   0.486  2.5629  0.2884 -0.6771
11995TIP3    H257477   5.314   5.765   0.505  0.5207 -1.3940  1.7703
11996TIP3   OH257478   3.530   0.274   2.532 -0.1403  0.1648  0.1264
11996TIP3    H157479   3.446   0.272   2.578 -0.3400  0.6186 -0.2144
11996TIP3    H257480   3.596   0.271   2.602 -0.4384  0.0873  0.4031
11997TIP3   OH257481   0.024   0.489   3.397  0.0472  0.0536  0.0644
11997TIP3    H157482   0.004   0.430   3.469 -0.0443 -1.4498 -1.1442
11997TIP3    H257483   0.035   0.575   3.438  1.3781 -0.9985  2.0397
11998TIP3   OH257484   4.669   0.962  14.101  0.1360 -0.6365 -0.2305
11998TIP3    H157485   4.694   1.026  14.168  0.6121 -2.3656  1.3207
11998TIP3    H257486   4.594   1.001  14.057  1.4505  1.7455 -0.5304
11999TIP3   OH257487   0.173   4.447   2.504  0.0293 -0.2837 -0.1970
11999TIP3    H157488   0.080   4.463   2.521  0.0178  0.5402 -0.9421
11999TIP3    H257489   0.191   4.363   2.546 -1.4331 -1.2444 -1.3909
12000TIP3   OH257490   5.502   5.352  12.772  0.2343  0.2210 -0.4650
12000TIP3    H157491   5.420   5.307  12.751 -0.7669 -0.0075  3.2153
12000TIP3    H257492   5.562   5.281  12.795  0.1225  0.5326  0.8439
12001TIP3   OH257493   1.796   4.363  17.084 -0.2853 -0.0174 -0.5583
12001TIP3    H157494   1.874   4.351  17.030 -0.4251 -0.6567 -0.6176
12001TIP3    H257495   1.826   4.346  17.173  0.2859  2.4086 -0.2166
12002TIP3   OH257496   3.418   4.816   1.952 -0.0811 -0.4254  0.0340
12002TIP3    H157497   3.478   4.815   2.026 -0.3453 -0.3137  0.2516
12002TIP3    H257498   3.402   4.723   1.933 -1.4371 -0.4821  1.2932
12003TIP3   OH257499   1.611   6.299   2.502  0.2477 -0.5297 -0.4804
12003TIP3    H157500   1.669   6.227   2.477  0.6386 -0.1873 -0.5587
12003TIP3    H257501   1.644   6.375   2.455 -0.5009 -0.4109 -0.8271
12004TIP3   OH257502   6.327   6.350   2.689  0.3556 -0.1678 -0.6412
12004TIP3    H157503   6.321   6.409   2.765  0.8033 -0.9500  0.0200
12004TIP3    H257504   6.332   6.409   2.614  0.3968  0.6344 -0.0297
12005TIP3   OH257505   2.399   3.826  14.444  0.4506 -0.1340 -0.2240
12005TIP3    H157506   2.361   3.896  14.392  1.7485  1.3842  0.7605
12005TIP3    H257507   2.372   3.846  14.534  1.7596 -0.2054  0.2159
12006TIP3   OH257508   5.191   5.713  14.185 -0.2260 -0.0743  0.0303
12006TIP3    H157509   5.181   5.630  14.138  0.3593 -0.8650  1.2559
12006TIP3    H257510   5.120   5.714  14.248  0.6477 -0.3640  1.0391
12007TIP3   OH257511   4.669   2.257   3.782  0.0307  0.7181 -0.1099
12007TIP3    H157512   4.603   2.326   3.780 -0.7113  0.0121 -0.7437
12007TIP3    H257513   4.664   2.217   3.695  0.7769  0.1745  0.0912
12008TIP3   OH257514   4.890   5.984  11.582 -0.5775 -0.2178  0.2644
12008TIP3    H157515   4.887   6.075  11.551  0.9017 -0.1216  0.3228
12008TIP3    H257516   4.835   5.935  11.521 -0.7308  0.5835 -0.2509
12009TIP3   OH257517   4.060   2.460  13.042  0.4225  0.0853  0.2714
12009TIP3    H157518   4.028   2.399  13.109 -0.6379  0.8026  0.4556
12009TIP3    H257519   4.149   2.482  13.070  0.2995 -0.2799  0.9840
12010TIP3   OH257520   1.708   4.880   2.017 -0.4984 -0.3394  0.2585
12010TIP3    H157521   1.780   4.817   2.023 -0.4216 -0.2340  0.4871
12010TIP3    H257522   1.630   4.827   2.004 -0.1864 -0.3775 -1.7475
12011TIP3   OH257523   5.075   6.487   5.714 -0.0437 -0.1648  0.1402
12011TIP3    H157524   5.116   6.554   5.768 -0.3863 -0.9313  1.4007
12011TIP3    H257525   5.004   6.452   5.768 -1.0730 -0.2567 -1.2097
12012TIP3   OH257526   4.537   4.832  13.342  0.2154 -0.0668 -0.0892
12012TIP3    H157527   4.626   4.842  13.308  0.4343 -2.4969 -0.4519
12012TIP3    H257528   4.549   4.800  13.432 -0.3274  0.9389  0.3589
12013TIP3   OH257529   5.668   4.919   2.148 -0.8919  0.2146 -0.0149
12013TIP3    H157530   5.594   4.858   2.152 -1.5243  0.9738  0.1892
12013TIP3    H257531   5.669   4.961   2.234 -0.7398  0.7931 -0.2952
12014TIP3   OH257532   0.365   0.598   2.455 -0.1052 -0.0987 -0.2673
12014TIP3    H157533   0.288   0.573   2.507  1.6785 -0.6216  2.3478
12014TIP3    H257534   0.404   0.515   2.429  0.5342  0.1110 -0.0016
12015TIP3   OH257535   1.974   5.517   6.774  0.0580  0.2206 -0.0294
12015TIP3    H157536   1.920   5.538   6.850  0.7609  0.5960  0.3754
12015TIP3    H257537   1.985   5.600   6.728 -1.4073 -0.2088 -1.2679
12016TIP3   OH257538   3.822   4.050   3.345 -0.3408  1.0091 -0.4007
12016TIP3    H157539   3.868   4.010   3.271  1.0491  1.4440  0.2030
12016TIP3    H257540   3.860   4.138   3.353 -0.0358  0.7627  1.1975
12017TIP3   OH257541   0.030   4.868  12.607  0.5302 -0.0525 -0.6876
12017TIP3    H157542   0.073   4.813  12.672 -0.4748 -0.8556 -0.6855
12017TIP3    H257543   0.035   4.956  12.644 -1.1863 -0.6558  1.1663
12018TIP3   OH257544   4.723   6.196   5.679 -0.2537  0.4111 -0.3101
12018TIP3    H157545   4.685   6.163   5.760 -0.9193  1.0059 -0.3753
12018TIP3    H257546   4.773   6.273   5.705  0.6452 -0.1665 -0.2761
12019TIP3   OH257547   4.770   6.268   0.019 -0.1726 -0.4632 -0.3305
12019TIP3    H157548   4.691   6.290  -0.031 -2.3165  0.4838  3.0810
12019TIP3    H257549   4.777   6.339   0.084  2.5920 -1.3924  0.5047
12020TIP3   OH257550   6.698   6.052   1.382  0.0720  0.1072 -0.1259
12020TIP3    H157551   6.785   6.057   1.342 -0.3071 -2.3525 -1.4963
12020TIP3    H257552   6.705   5.981   1.446 -0.6407  0.7123  0.6554
12021TIP3   OH257553   1.313   0.855  11.902  0.1420 -0.5405  0.1502
12021TIP3    H157554   1.260   0.927  11.936 -0.2357 -1.2223  1.0522
12021TIP3    H257555   1.381   0.898  11.850 -0.8380  0.3912 -0.4182
12022TIP3   OH257556   2.666   4.471   3.772  0.4172  0.5216 -0.4785
12022TIP3    H157557   2.660   4.565   3.756  0.2718  0.2077 -2.4602
12022TIP3    H257558   2.716   4.436   3.698 -0.7820 -1.1619 -0.5617
12023TIP3   OH257559   0.187   6.787   4.270 -0.8376 -0.5667 -0.1206
12023TIP3    H157560   0.170   6.846   4.343 -0.0441 -0.5133  0.0333
12023TIP3    H257561   0.118   6.806   4.206 -0.4552  0.6921 -0.1798
12024TIP3   OH257562   1.572   5.554  15.782 -0.1000 -0.3000  0.4028
12024TIP3    H157563   1.541   5.569  15.693  0.1831 -0.6609  0.2377
12024TIP3    H257564   1.647   5.495  15.771  1.3646  1.4106  0.6668
12025TIP3   OH257565   1.656   6.466  13.494  0.1566  0.2032  0.1746
12025TIP3    H157566   1.718   6.489  13.563  0.7404  2.3312 -0.9756
12025TIP3    H257567   1.570   6.486  13.531  0.3197 -0.4019  0.9029
12026TIP3   OH257568   3.932   4.872  14.075  0.0232 -0.3037  0.2594
12026TIP3    H157569   3.869   4.800  14.082 -0.5808  0.0770 -0.9511
12026TIP3    H257570   3.930   4.914  14.160 -0.5537 -0.9647  0.5819
12027TIP3   OH257571   2.299   4.687  11.719  0.7174 -0.1019 -0.3061
12027TIP3    H157572   2.352   4.763  11.740 -3.0434  2.2890  1.5890
12027TIP3    H257573   2.326   4.662  11.631  3.3126  2.2856 -0.3028
12028TIP3   OH257574   2.978   5.490  11.457  0.1135 -0.2462 -0.0044
12028TIP3    H157575   2.886   5.496  11.431  0.3898  1.6367 -0.6870
12028TIP3    H257576   2.984   5.407  11.505 -2.0132 -0.2229  0.4006
12029TIP3   OH257577   0.701   3.090   5.606  0.0961  0.1576 -0.4641
12029TIP3    H157578   0.781   3.048   5.575  0.9060  2.1731 -1.2760
12029TIP3    H257579   0.681   3.156   5.540 -1.3695  0.7313  0.5000
12030TIP3   OH257580   1.625   0.429  12.630 -0.0927  0.7212  0.2638
12030TIP3    H157581   1.678   0.496  12.585 -1.6610  2.1456  0.4490
12030TIP3    H257582   1.603   0.469  12.714  1.6182 -1.3528  1.8335
12031TIP3   OH257583   5.299   3.141   4.418 -0.8173  0.0398  0.0377
12031TIP3    H157584   5.299   3.084   4.495  1.9479  0.5440  0.5010
12031TIP3    H257585   5.253   3.091   4.351 -0.7846 -1.6113  1.1990
12032TIP3   OH257586   3.174   2.404   1.932 -0.0727  0.1485 -0.2415
12032TIP3    H157587   3.153   2.333   1.993  0.6121  0.4579  0.3660
12032TIP3    H257588   3.190   2.480   1.988  2.1075  0.0741 -0.6647
12033TIP3   OH257589   1.670   1.478  14.276  0.3867 -0.5565  0.3508
12033TIP3    H157590   1.664   1.404  14.217  1.2100 -1.7672  1.7052
12033TIP3    H257591   1.586   1.480  14.321 -1.3735  2.0900 -2.6550
12034TIP3   OH257592   1.592   4.641   3.600  0.5399  0.3723  0.1999
12034TIP3    H157593   1.670   4.695   3.586  0.2335  0.9003  0.5218
12034TIP3    H257594   1.567   4.659   3.691 -0.0983  0.3854  0.0213
12035TIP3   OH257595   2.577   2.548  11.842  0.6003  0.7364 -0.4179
12035TIP3    H157596   2.615   2.467  11.809 -1.4997  0.2519 -1.8918
12035TIP3    H257597   2.484   2.527  11.855 -0.1440  3.0404 -1.4476
12036TIP3   OH257598   4.566   1.808   4.004 -0.9933 -0.1560 -0.5842
12036TIP3    H157599   4.519   1.891   4.005  0.6854  0.8585  0.9296
12036TIP3    H257600   4.648   1.827   4.049 -0.5023 -2.6200 -0.3185
12037TIP3   OH257601   5.224   0.166  11.662  0.5447 -0.4546  0.1145
12037TIP3    H157602   5.276   0.181  11.741  0.0877  0.0184  0.3314
12037TIP3    H257603   5.180   0.249  11.646 -0.3960 -0.9333  0.1206
12038TIP3   OH257604   5.745   4.650   0.903 -0.1442  0.9484  0.0037
12038TIP3    H157605   5.818   4.703   0.871 -1.1682  1.8080 -1.0141
12038TIP3    H257606   5.700   4.621   0.824 -0.8052  0.2860  0.6095
12039TIP3   OH257607   5.806   6.211   3.282  0.2060  0.0986 -1.1576
12039TIP3    H157608   5.811   6.273   3.209 -2.4235 -0.4789 -1.9347
12039TIP3    H257609   5.753   6.256   3.348 -1.8968 -1.3118 -1.8090
12040TIP3   OH257610   5.919   3.035   3.269  0.2820  0.2113 -0.9082
12040TIP3    H157611   5.954   2.974   3.333  0.9033  0.4517 -1.0144
12040TIP3    H257612   5.964   3.013   3.187  1.2760  1.4642 -0.7285
12041TIP3   OH257613   1.449   5.167  15.673 -0.1990  0.1502 -0.3373
12041TIP3    H157614   1.379   5.218  15.713 -1.4984 -0.6748 -1.4779
12041TIP3    H257615   1.492   5.228  15.613 -0.4613  0.4460 -0.2257
12042TIP3   OH257616   5.439   5.360   3.046 -0.5777 -0.1310  0.2280
12042TIP3    H157617   5.481   5.446   3.044 -2.4091  0.8071  0.2342
12042TIP3    H257618   5.501   5.305   3.094 -1.7564  2.6044  5.7861
12043TIP3   OH257619   0.510   2.601  15.184 -0.2264 -0.1310 -0.3203
12043TIP3    H157620   0.503   2.609  15.279  1.3669 -0.3449 -0.1600
12043TIP3    H257621   0.596   2.637  15.163  0.0281 -1.3382 -1.5036
12044TIP3   OH257622   3.987   2.785   6.272 -0.5363 -0.5477  0.0997
12044TIP3    H157623   3.939   2.798   6.190 -0.9906  0.1078  0.4546
12044TIP3    H257624   4.079   2.792   6.248 -0.6910  1.6080 -0.0794
12045TIP3   OH257625   0.152   2.927   2.918 -0.3474  0.6259 -0.1825
12045TIP3    H157626   0.245   2.912   2.936 -0.2496  1.1775 -0.2075
12045TIP3    H257627   0.110   2.930   3.004 -0.2600  0.8824 -0.1483
12046TIP3   OH257628   2.845   5.227  12.186 -0.2056 -0.4332  0.2048
12046TIP3    H157629   2.898   5.148  12.188  0.7939  0.2401  1.6917
12046TIP3    H257630   2.842   5.257  12.277  1.0713  2.2709 -0.5340
12047TIP3   OH257631   6.137   6.450   1.408  0.0309 -0.2050  0.3958
12047TIP3    H157632   6.220   6.476   1.448 -0.8466  1.8854  1.0312
12047TIP3    H257633   6.070   6.492   1.462 -1.5548 -2.9327  0.7080
12048TIP3   OH257634   1.775   4.650  13.007 -0.7656 -0.1132 -0.8835
12048TIP3    H157635   1.794   4.718  12.942 -0.8860 -0.7823 -1.6317
12048TIP3    H257636   1.853   4.649  13.064 -1.1603  1.2914 -0.2731
12049TIP3   OH257637   3.812   6.337   2.903 -0.0120  0.4422 -0.4945
12049TIP3    H157638   3.755   6.372   2.971 -0.5002  0.2268 -0.7863
12049TIP3    H257639   3.754   6.318   2.830  0.2007 -1.0716 -0.3107
12050TIP3   OH257640   3.128   4.359   5.181  0.3757  0.1370 -0.3220
12050TIP3    H157641   3.110   4.290   5.117 -0.2526 -0.2991  0.3048
12050TIP3    H257642   3.218   4.342   5.209  0.4784  0.0192 -0.7161
12051TIP3   OH257643   2.555   2.290  13.504 -0.1247 -0.0647 -0.8604
12051TIP3    H157644   2.546   2.384  13.487  0.0851  0.2009  0.3724
12051TIP3    H257645   2.589   2.286  13.593 -2.3954 -1.3726  0.0089
12052TIP3   OH257646   3.724   4.202  11.669 -0.2869  0.8886  0.5154
12052TIP3    H157647   3.713   4.247  11.753 -0.7943  0.3967  0.7176
12052TIP3    H257648   3.659   4.243  11.612  0.2656  1.4352  0.2674
12053TIP3   OH257649   4.926   2.348  11.170 -0.2593  0.2391 -0.6466
12053TIP3    H157650   4.997   2.397  11.128  0.0541  0.7363  0.4301
12053TIP3    H257651   4.954   2.339  11.262 -1.3746  0.0213 -0.3155
12054TIP3   OH257652   3.414   0.068   4.785 -0.1429  0.0654  0.0765
12054TIP3    H157653   3.385   0.084   4.875 -0.8562 -0.1524 -0.1104
12054TIP3    H257654   3.471   0.142   4.765 -1.7251  1.3031 -0.0445
12055TIP3   OH257655   6.612   5.318  13.745 -0.3467 -0.2788  0.2509
12055TIP3    H157656   6.563   5.299  13.825 -1.9401 -1.0496 -0.8537
12055TIP3    H257657   6.701   5.337  13.775 -0.3742 -2.5677  2.0565
12056TIP3   OH257658   3.012   6.559   5.073  0.0987  0.1711  0.0618
12056TIP3    H157659   2.944   6.617   5.106 -0.4375  0.2925 -1.1769
12056TIP3    H257660   3.072   6.617   5.026 -1.0114 -0.3220 -2.1076
12057TIP3   OH257661   6.173   3.983  13.236 -0.0239  0.0999 -0.3681
12057TIP3    H157662   6.163   3.901  13.284 -0.3971  1.3975  1.9043
12057TIP3    H257663   6.260   3.978  13.197 -0.9522 -2.3734 -2.4493
12058TIP3   OH257664   4.363   4.399  15.446 -0.6600  0.0814 -0.8979
12058TIP3    H157665   4.399   4.408  15.358 -1.9274 -1.5533 -1.6489
12058TIP3    H257666   4.326   4.485  15.466  0.2480  0.6664 -1.6720
12059TIP3   OH257667   5.592   2.852  14.556  0.8834 -0.4131 -0.2043
12059TIP3    H157668   5.603   2.759  14.538  0.3990 -0.4913 -0.1043
12059TIP3    H257669   5.673   2.892  14.526  1.5292 -1.0017  0.6874
12060TIP3   OH257670   2.193   4.198  12.674  0.7652 -0.1854  0.4805
12060TIP3    H157671   2.099   4.185  12.661  0.9797  0.8792 -2.9734
12060TIP3    H257672   2.199   4.244  12.758 -2.1738  2.8541 -0.7386
12061TIP3   OH257673   2.867   4.111   1.745 -0.4893 -0.0523  0.0810
12061TIP3    H157674   2.948   4.125   1.794 -0.5315  0.0313  0.1265
12061TIP3    H257675   2.799   4.105   1.812 -0.8522  2.1029 -0.0456
12062TIP3   OH257676   0.362   3.786   2.892  0.0925 -0.2411  0.2613
12062TIP3    H157677   0.363   3.753   2.982  2.8921 -2.2283 -0.3712
12062TIP3    H257678   0.331   3.876   2.900 -0.1833 -0.5002  3.1440
12063TIP3   OH257679   3.164   3.138  11.359 -0.6560 -0.9583  0.2016
12063TIP3    H157680   3.244   3.181  11.390 -1.5190  0.9766 -0.0810
12063TIP3    H257681   3.194   3.082  11.287  0.3241  0.6958 -0.7521
12064TIP3   OH257682   5.293   1.786  17.059 -0.0620 -0.2804 -0.0034
12064TIP3    H157683   5.232   1.771  17.131 -0.6532  1.7056 -0.0205
12064TIP3    H257684   5.262   1.729  16.989 -0.0318 -1.5516  0.9913
12065TIP3   OH257685   5.070   4.051  15.710 -0.6409 -0.8361  0.7523
12065TIP3    H157686   5.091   4.011  15.625 -0.4261  0.9920 -0.1139
12065TIP3    H257687   5.045   4.140  15.688 -0.9103 -0.4211  2.6089
12066TIP3   OH257688   2.722   3.440  15.571  0.1381 -0.0115  0.4745
12066TIP3    H157689   2.680   3.516  15.610  0.6507 -0.7459  2.6199
12066TIP3    H257690   2.799   3.475  15.526 -0.8931  0.9555 -0.5978
12067TIP3   OH257691   2.463   5.281  11.787  0.0832  0.4300 -0.1687
12067TIP3    H157692   2.392   5.296  11.849 -0.9918  1.7749 -1.6461
12067TIP3    H257693   2.535   5.248  11.841 -1.2725  0.0938  1.5445
12068TIP3   OH257694   1.900   2.590  15.143 -0.3805 -0.1097 -0.1932
12068TIP3    H157695   1.869   2.575  15.232 -0.8650  1.1905 -0.1228
12068TIP3    H257696   1.963   2.520  15.127  0.0375 -0.0975  1.3192
12069TIP3   OH257697   4.256   4.370   1.947  0.2668 -0.7018 -0.1324
12069TIP3    H157698   4.204   4.389   2.026 -0.8226  0.8114 -1.1566
12069TIP3    H257699   4.317   4.302   1.975  0.4254  0.2947  2.2232
12070TIP3   OH257700   3.645   0.631  12.167 -0.4341 -0.2615 -0.1645
12070TIP3    H157701   3.612   0.713  12.131 -1.4401 -0.4096  0.3952
12070TIP3    H257702   3.707   0.658  12.236 -2.0796  0.0836  1.2485
12071TIP3   OH257703   5.798   5.704  14.227 -0.6035 -0.5139 -0.8315
12071TIP3    H157704   5.734   5.646  14.269 -0.0536 -0.2634  0.3958
12071TIP3    H257705   5.814   5.665  14.141 -0.0713 -2.3110  0.0468
12072TIP3   OH257706   5.348   4.447  15.812 -0.2343  0.0435  0.7438
12072TIP3    H157707   5.343   4.385  15.740 -1.1028  0.0441  0.7865
12072TIP3    H257708   5.364   4.532  15.770  0.4449 -0.1255  0.6493
12073TIP3   OH257709   3.733   3.559  11.655  0.1179  0.1302 -0.0605
12073TIP3    H157710   3.694   3.473  11.637  0.6775  0.0103 -0.7582
12073TIP3    H257711   3.799   3.570  11.587  1.2536  0.3637  1.0449
12074TIP3   OH257712   4.985   5.243   1.882 -0.2212 -0.3800  0.5157
12074TIP3    H157713   5.065   5.257   1.933 -0.0836 -1.4256  0.6183
12074TIP3    H257714   4.922   5.305   1.919  0.7391  0.9693 -0.0574
12075TIP3   OH257715   3.448   5.091   4.585  0.0521  0.0948  0.6150
12075TIP3    H157716   3.529   5.058   4.547 -1.6466 -2.2488 -1.2458
12075TIP3    H257717   3.420   5.023   4.646 -0.5493  0.8657  1.2229
12076TIP3   OH257718   2.241   0.785  14.143  0.2018  0.5256  0.0034
12076TIP3    H157719   2.151   0.765  14.170  0.0222  1.0323 -0.2145
12076TIP3    H257720   2.284   0.813  14.223  0.4497 -0.6823  0.3144
12077TIP3   OH257721   1.945   4.758   1.938  0.3029  0.6369 -0.0433
12077TIP3    H157722   1.885   4.735   1.867  2.3779 -2.2756 -1.0346
12077TIP3    H257723   2.012   4.811   1.895 -0.6187  2.5337  0.7383
12078TIP3   OH257724   1.752   6.688   1.812  0.2472  0.2238 -0.0029
12078TIP3    H157725   1.801   6.651   1.738 -0.6310  1.5536 -1.3120
12078TIP3    H257726   1.697   6.756   1.773 -0.9205  0.3693  1.7649
12079TIP3   OH257727   3.644   2.285   5.061 -0.4337  0.5056 -0.5640
12079TIP3    H157728   3.710   2.288   5.131  0.5319  0.7180 -1.4501
12079TIP3    H257729   3.573   2.341   5.092  0.2018  0.9907  0.0385
12080TIP3   OH257730   2.923   5.848   0.326  0.2157 -0.1261 -0.2877
12080TIP3    H157731   3.005   5.829   0.373  1.0001  0.2290 -1.4628
12080TIP3    H257732   2.888   5.925   0.370  1.1176  0.4149 -0.4935
12081TIP3   OH257733   0.441   5.054   0.349  0.2272  0.2244 -0.0082
12081TIP3    H157734   0.355   5.019   0.327  1.0432 -0.7463 -1.8846
12081TIP3    H257735   0.473   5.092   0.268  1.5730  0.5677  0.6492
12082TIP3   OH257736   2.961   4.383   3.339  0.5661 -0.7941  1.1826
12082TIP3    H157737   2.972   4.288   3.348  1.9659 -0.6776  0.8859
12082TIP3    H257738   3.013   4.405   3.262  1.9525  0.5197  2.4522
12083TIP3   OH257739   0.205   1.253   2.465 -0.7342 -0.2227  0.3750
12083TIP3    H157740   0.129   1.229   2.518  0.4576 -1.0442  1.7674
12083TIP3    H257741   0.256   1.172   2.457 -0.6802 -0.0546 -1.7609
12084TIP3   OH257742   1.625   0.147  15.223  0.1055 -0.1063 -0.5425
12084TIP3    H157743   1.699   0.114  15.275 -0.0276  1.3362  0.6372
12084TIP3    H257744   1.563   0.075  15.221  1.0897 -0.9794 -0.6669
12085TIP3   OH257745   5.039   4.024   2.058 -0.0359  0.5996  0.3804
12085TIP3    H157746   5.049   3.980   1.974  0.1540 -0.5505  0.9883
12085TIP3    H257747   4.992   4.105   2.037 -1.2567 -0.3288 -0.6486
12086TIP3   OH257748   4.374   5.350  14.371 -0.3337  0.2363  0.5948
12086TIP3    H157749   4.310   5.411  14.407 -0.7841 -0.1893  0.5330
12086TIP3    H257750   4.348   5.339  14.280 -0.5619 -0.4256  0.7334
12087TIP3   OH257751   6.762   3.217  10.935  0.0442 -0.8876 -0.1802
12087TIP3    H157752   6.669   3.239  10.935  0.0324 -0.9427 -0.0268
12087TIP3    H257753   6.781   3.198  10.843  0.2185  0.4477 -0.4519
12088TIP3   OH257754   5.549   1.404   1.033 -0.4826  0.1657  0.0004
12088TIP3    H157755   5.466   1.447   1.013 -0.2290  0.4745 -0.3920
12088TIP3    H257756   5.543   1.318   0.990 -0.5440  0.2385 -0.1358
12089TIP3   OH257757   4.852   4.303   0.923 -0.0545  0.3844  0.4561
12089TIP3    H157758   4.792   4.261   0.984  1.2749  0.9551  2.2766
12089TIP3    H257759   4.802   4.374   0.885 -1.0684 -0.2750  0.5267
12090TIP3   OH257760   6.309   1.657   2.427 -0.2834  0.3973  0.0172
12090TIP3    H157761   6.294   1.607   2.346  0.1036  0.7476 -0.2728
12090TIP3    H257762   6.402   1.676   2.427 -0.1831 -0.0450  0.8179
12091TIP3   OH257763   1.602   3.888   3.323 -0.3543  0.7439  0.1951
12091TIP3    H157764   1.692   3.919   3.334 -0.6946  1.9064 -0.1438
12091TIP3    H257765   1.556   3.923   3.399  0.0086 -2.1447  1.8815
12092TIP3   OH257766   0.037   0.769   3.371 -0.4499 -0.4487  0.2811
12092TIP3    H157767   0.070   0.749   3.283 -0.7249  0.1892  0.0285
12092TIP3    H257768   0.048   0.864   3.379 -0.9096 -0.4333  0.7363
12093TIP3   OH257769   6.761   1.995  11.469 -0.0065 -0.2359 -0.1066
12093TIP3    H157770   6.821   1.954  11.406  1.2292 -0.0039  0.8629
12093TIP3    H257771   6.791   1.962  11.554  0.1565  1.5953  0.5892
12094TIP3   OH257772   2.082   3.066  13.044 -0.4944 -0.1786 -0.1107
12094TIP3    H157773   2.008   3.021  13.003  0.6844 -2.2117 -0.1091
12094TIP3    H257774   2.142   2.996  13.069  1.2637  1.3940  0.2536
12095TIP3   OH257775   0.889   1.526   6.064 -0.2049  0.7165  0.4732
12095TIP3    H157776   0.826   1.502   6.132  1.0586  1.1109  1.8439
12095TIP3    H257777   0.867   1.470   5.990 -0.4255 -1.1534  1.8748
12096TIP3   OH257778   2.403   3.178  15.513  0.0226  0.5201 -0.5369
12096TIP3    H157779   2.325   3.128  15.534 -0.9998  1.9464 -0.8126
12096TIP3    H257780   2.449   3.188  15.597 -0.4715  0.2938 -0.2373
12097TIP3   OH257781   4.850   6.540   4.764 -0.2888 -0.2260 -0.2465
12097TIP3    H157782   4.819   6.490   4.839  0.0349  1.8833  1.4018
12097TIP3    H257783   4.773   6.551   4.709 -0.7858 -0.9395  0.2887
12098TIP3   OH257784   2.760   5.303   1.208 -0.2248 -0.3961  0.4481
12098TIP3    H157785   2.841   5.323   1.256 -1.0687  0.5184  1.5504
12098TIP3    H257786   2.715   5.388   1.202 -0.5896 -0.6842 -1.1316
12099TIP3   OH257787   4.784   2.320  16.747 -0.1709 -0.5512 -0.1166
12099TIP3    H157788   4.755   2.299  16.658 -1.6128  0.2888  0.1186
12099TIP3    H257789   4.791   2.236  16.791  1.8475 -1.0995 -1.3588
12100TIP3   OH257790   5.039   1.164  11.192  0.2718 -0.5954  0.7879
12100TIP3    H157791   5.091   1.208  11.125  0.0373 -0.9378  0.3771
12100TIP3    H257792   5.103   1.136  11.257  0.3325  1.1524  1.5291
12101TIP3   OH257793   1.083   3.303   1.261 -0.1330  0.1477 -0.4174
12101TIP3    H157794   1.010   3.360   1.237 -0.8863 -1.3688 -2.0139
12101TIP3    H257795   1.047   3.244   1.328  0.7764  1.7422  1.5781
12102TIP3   OH257796   3.658   3.241   2.077  0.6310 -0.5199 -0.0903
12102TIP3    H157797   3.657   3.175   2.007  1.1496 -0.8610  0.2176
12102TIP3    H257798   3.646   3.324   2.031  0.9212 -0.7427 -0.5860
12103TIP3   OH257799   2.860   2.723   1.499  0.1033  0.3770 -0.2930
12103TIP3    H157800   2.833   2.811   1.526  1.2851  0.0850  2.1006
12103TIP3    H257801   2.954   2.719   1.521  0.0209 -1.5403 -0.1459
12104TIP3   OH257802   5.197   2.582  13.542 -0.1261  0.0967 -0.5809
12104TIP3    H157803   5.108   2.610  13.525 -0.9130 -1.2170  1.0665
12104TIP3    H257804   5.218   2.522  13.470 -0.7932 -0.0280 -0.6751
12105TIP3   OH257805   1.699   2.932  16.354 -0.2105  0.3360 -0.5801
12105TIP3    H157806   1.614   2.935  16.311 -1.2183  0.2918  1.2899
12105TIP3    H257807   1.678   2.937  16.447  1.9672  2.6106 -0.1164
12106TIP3   OH257808   5.273   0.462   4.612  0.3850 -0.0651  0.4255
12106TIP3    H157809   5.307   0.495   4.528  0.1805  0.2514  0.4665
12106TIP3    H257810   5.347   0.415   4.650  0.6333  0.2052  0.2891
12107TIP3   OH257811   2.098   0.781   1.202  0.1786 -0.7508 -0.5202
12107TIP3    H157812   2.094   0.754   1.110  0.5612 -1.8958 -0.2214
12107TIP3    H257813   2.176   0.738   1.236  2.2179  2.6328 -0.5469
12108TIP3   OH257814   4.246   3.259  15.558  0.4063  0.3219 -0.3954
12108TIP3    H157815   4.257   3.269  15.463 -0.7804  2.4504 -0.3696
12108TIP3    H257816   4.334   3.245  15.591  1.0731  1.3826 -1.6481
12109TIP3   OH257817   3.859   3.100  16.968 -0.1322 -0.1527  0.3918
12109TIP3    H157818   3.800   3.047  17.022 -1.2306  0.4325 -0.1849
12109TIP3    H257819   3.810   3.114  16.887  1.0923 -0.2094 -0.3810
12110TIP3   OH257820   0.824   3.564  11.445  0.3811 -0.1026  0.5118
12110TIP3    H157821   0.826   3.513  11.525  0.3301 -2.1497 -0.7248
12110TIP3    H257822   0.743   3.616  11.452  0.7412  0.3088  2.0509
12111TIP3   OH257823   4.120   3.096  17.067  0.5367  0.3683  0.6910
12111TIP3    H157824   4.033   3.091  17.026  0.4310  0.0034  0.9568
12111TIP3    H257825   4.105   3.144  17.148  0.9010  1.8792 -0.0972
12112TIP3   OH257826   3.914   4.179   0.193 -0.4851  0.3566  0.0430
12112TIP3    H157827   3.945   4.184   0.284  1.2916 -0.7162 -0.4625
12112TIP3    H257828   3.867   4.096   0.188  0.4120 -0.1496 -0.2722
12113TIP3   OH257829   1.097   5.688   5.514  0.3886  0.0776  0.1398
12113TIP3    H157830   1.090   5.668   5.420 -0.6723  0.3058  0.1545
12113TIP3    H257831   1.042   5.766   5.526  1.9019  1.1029  0.6537
12114TIP3   OH257832   1.221   1.547  13.703  0.3075  0.3852 -0.1133
12114TIP3    H157833   1.187   1.459  13.717 -0.0928  0.7272  1.2726
12114TIP3    H257834   1.145   1.604  13.717  0.2839  0.9230 -2.1273
12115TIP3   OH257835   5.463   0.921   2.421 -1.0243  0.0532 -0.4881
12115TIP3    H157836   5.444   1.014   2.428  1.5861  0.6357  0.1536
12115TIP3    H257837   5.491   0.908   2.331 -0.7618  0.0377 -0.4061
12116TIP3   OH257838   6.356   3.243   3.573 -0.1869  0.2033 -0.1586
12116TIP3    H157839   6.310   3.218   3.493  1.4726 -2.0880 -0.5005
12116TIP3    H257840   6.405   3.165   3.598  0.6822  1.3886  2.1766
12117TIP3   OH257841   5.539   2.819   2.068  0.0516 -0.4043 -0.1434
12117TIP3    H157842   5.621   2.849   2.027  1.3692  0.1674  2.6607
12117TIP3    H257843   5.518   2.738   2.022  1.5917 -0.0114 -1.6640
12118TIP3   OH257844   6.467   3.847   2.006 -0.3837  0.0418  0.0277
12118TIP3    H157845   6.408   3.922   2.005  0.4877  0.7461 -0.0290
12118TIP3    H257846   6.411   3.772   1.987 -1.5053  0.4916  1.3887
12119TIP3   OH257847   1.265   1.889   6.613 -0.0868  0.6200 -0.1757
12119TIP3    H157848   1.330   1.820   6.604  0.4326  1.1391 -0.3876
12119TIP3    H257849   1.187   1.854   6.570  0.0131 -0.0412  0.1663
12120TIP3   OH257850   1.482   6.677   1.531  0.3454  0.2734 -0.7251
12120TIP3    H157851   1.514   6.705   1.616  0.7276 -2.5249  0.1709
12120TIP3    H257852   1.547   6.710   1.469  1.7809 -0.2296  0.4387
12121TIP3   OH257853   4.982   2.581  12.001 -0.2484  0.0835  0.1472
12121TIP3    H157854   5.036   2.660  11.994  0.7257 -0.6295 -0.7375
12121TIP3    H257855   4.971   2.552  11.910 -3.1943  0.8630  0.1460
12122TIP3   OH257856   4.217   3.836  11.177  0.6033 -0.8585  0.1620
12122TIP3    H157857   4.243   3.781  11.250  1.5773 -1.5265 -0.6568
12122TIP3    H257858   4.262   3.798  11.101  1.0171  0.8424 -0.4919
12123TIP3   OH257859   1.551   3.466   3.926 -0.6012  0.3859  0.0504
12123TIP3    H157860   1.587   3.404   3.989  1.1381 -0.2260 -1.4623
12123TIP3    H257861   1.467   3.429   3.900 -0.7883  0.0431  1.0965
12124TIP3   OH257862   5.940   6.430  16.690  0.0300  0.1035  0.1072
12124TIP3    H157863   6.031   6.429  16.720  0.2270 -0.5422 -0.5073
12124TIP3    H257864   5.943   6.472  16.604 -0.6217  2.5658  1.1822
12125TIP3   OH257865   3.002   3.404   1.315 -0.1164  0.1569 -0.0717
12125TIP3    H157866   2.990   3.394   1.221  1.9774  0.3588 -0.4217
12125TIP3    H257867   2.950   3.334   1.354 -0.5662 -0.2792 -1.4176
12126TIP3   OH257868   5.241   5.463  10.823  0.6528 -0.0797  0.2373
12126TIP3    H157869   5.158   5.423  10.798  0.2474  0.1072  1.2482
12126TIP3    H257870   5.221   5.556  10.834  1.3892  0.2867 -1.2068
12127TIP3   OH257871   3.633   0.659  11.284 -0.1400 -0.4513  0.1643
12127TIP3    H157872   3.714   0.623  11.248  0.8294 -0.0322  1.7988
12127TIP3    H257873   3.592   0.586  11.330 -0.5171 -0.5711 -0.3520
12128TIP3   OH257874   4.655   2.042  16.050  0.3638 -0.9161  0.2789
12128TIP3    H157875   4.722   2.038  16.118 -1.1522 -2.5747  1.7770
12128TIP3    H257876   4.610   1.957  16.056 -1.0393 -0.3582 -1.5266
12129TIP3   OH257877   5.844   4.190  15.198 -0.1308 -0.3958 -0.4608
12129TIP3    H157878   5.770   4.131  15.188 -0.3411 -0.0111 -1.3045
12129TIP3    H257879   5.808   4.277  15.177 -0.1209  0.2433  1.8967
12130TIP3   OH257880   2.109   3.864  16.874 -0.3925 -0.2692  0.1707
12130TIP3    H157881   2.162   3.784  16.876  0.0185  0.0016  1.2722
12130TIP3    H257882   2.151   3.921  16.939 -1.0652  0.5930 -0.1373
12131TIP3   OH257883   4.893   6.641   4.347  0.6919 -0.4388  0.6654
12131TIP3    H157884   4.983   6.657   4.374  0.6072  1.7347 -0.1327
12131TIP3    H257885   4.850   6.726   4.353 -1.0023 -1.1790 -0.1174
12132TIP3   OH257886   6.502   2.944  12.138  0.0850  0.5037 -0.7308
12132TIP3    H157887   6.409   2.925  12.125 -0.1737  1.5038 -0.4210
12132TIP3    H257888   6.524   3.003  12.065  0.3047  0.8071 -0.4194
12133TIP3   OH257889   0.118   3.730  14.122  0.2076  0.7030  0.5705
12133TIP3    H157890   0.177   3.759  14.052  0.8123  1.3329  1.3234
12133TIP3    H257891   0.139   3.786  14.196  0.2554 -0.5776  1.5724
12134TIP3   OH257892   2.425   0.152   6.663 -0.3838  0.0082  0.2268
12134TIP3    H157893   2.379   0.112   6.737 -0.0662 -1.2179 -0.2084
12134TIP3    H257894   2.423   0.246   6.682 -0.6139 -0.2424  1.6079
12135TIP3   OH257895   5.526   1.255  12.371 -0.1703  0.0434 -0.3378
12135TIP3    H157896   5.521   1.208  12.454 -2.0875  0.7066 -0.0216
12135TIP3    H257897   5.599   1.214  12.325 -0.4185 -1.7965  0.7851
12136TIP3   OH257898   0.764   3.036   1.585 -0.0751  0.0171 -0.5166
12136TIP3    H157899   0.702   3.109   1.592 -0.4788 -0.4175  0.8645
12136TIP3    H257900   0.770   3.001   1.674  1.1430 -0.7999 -0.8837
12137TIP3   OH257901   4.582   2.225   2.759 -0.2829  0.1771  0.2446
12137TIP3    H157902   4.583   2.317   2.733 -0.1666 -0.0302 -0.5083
12137TIP3    H257903   4.520   2.221   2.832 -2.1128  0.4537 -1.2436
12138TIP3   OH257904   1.424   1.316   1.148 -0.0276  0.3810 -0.4813
12138TIP3    H157905   1.503   1.370   1.159 -0.6793  1.5884 -1.4018
12138TIP3    H257906   1.393   1.339   1.060  0.0796 -2.0869 -1.2262
12139TIP3   OH257907   5.628   1.248   4.251 -0.1590 -0.3182 -0.6115
12139TIP3    H157908   5.698   1.230   4.188 -1.5252 -1.6832 -1.8181
12139TIP3    H257909   5.578   1.166   4.255 -2.0310  0.7900 -0.2564
12140TIP3   OH257910   6.659   3.539   2.119  0.2711  0.3730 -0.2753
12140TIP3    H157911   6.599   3.498   2.181  0.0615  1.1975  0.0922
12140TIP3    H257912   6.728   3.474   2.105 -0.0521 -0.0985  0.2767
12141TIP3   OH257913   6.024   2.079   0.999  0.0462  0.4259 -0.1778
12141TIP3    H157914   6.061   1.995   0.973  0.4550  0.0499  1.5132
12141TIP3    H257915   5.988   2.115   0.918  1.8385 -0.3460 -1.3928
12142TIP3   OH257916   5.179   1.402   0.257 -0.0647  0.3283  0.6709
12142TIP3    H157917   5.134   1.482   0.229  0.2984 -0.1160 -1.2830
12142TIP3    H257918   5.107   1.343   0.282 -0.4614  0.4573 -0.1286
12143TIP3   OH257919   4.105   0.527   5.470 -0.6356  0.2081 -0.1938
12143TIP3    H157920   4.030   0.485   5.513 -0.0708  0.5612  1.1721
12143TIP3    H257921   4.085   0.519   5.377 -1.3889 -1.5325  0.0569
12144TIP3   OH257922   5.304   0.002   4.532 -1.0846  0.3369 -0.3425
12144TIP3    H157923   5.267  -0.027   4.616  2.1275 -1.7480  0.5454
12144TIP3    H257924   5.253  -0.045   4.466 -1.6535 -0.4695  0.6336
12145TIP3   OH257925   0.097   1.198   4.913 -0.6305  0.7980  0.2186
12145TIP3    H157926   0.051   1.281   4.920 -2.7412 -0.2466 -0.5333
12145TIP3    H257927   0.148   1.205   4.832 -1.7970  0.9163 -0.5175
12146TIP3   OH257928   6.284   1.932   5.633 -0.2050 -0.0278  0.0833
12146TIP3    H157929   6.226   1.859   5.657  1.7522 -1.4879  0.6181
12146TIP3    H257930   6.319   1.907   5.547 -0.6024  1.0111 -0.3959
12147TIP3   OH257931   2.282   3.132  13.741  0.1976  0.0164  0.6035
12147TIP3    H157932   2.207   3.073  13.731 -0.5028  1.2844 -3.0044
12147TIP3    H257933   2.243   3.217  13.763  0.7927  0.1633  1.1175
12148TIP3   OH257934   1.104   1.241   5.221  0.0851  0.6910  0.2426
12148TIP3    H157935   1.079   1.258   5.130 -0.8475 -1.3566  0.0631
12148TIP3    H257936   1.190   1.200   5.214 -0.8819 -1.4860  0.0210
12149TIP3   OH257937   4.025   4.815   0.016  1.0034 -0.0765  0.2008
12149TIP3    H157938   4.088   4.744   0.007  0.5043 -0.5332  0.2527
12149TIP3    H257939   4.056   4.882  -0.044  1.0912 -0.6249 -0.3782
12150TIP3   OH257940   6.259   6.184  14.093  0.0254  0.0010  0.0093
12150TIP3    H157941   6.176   6.142  14.068 -1.2449  1.4734  1.5148
12150TIP3    H257942   6.288   6.227  14.013 -1.4076  0.6200 -0.2114
12151TIP3   OH257943   4.275   1.748  16.726  0.6102 -0.2605  0.1117
12151TIP3    H157944   4.302   1.839  16.711 -0.4917 -0.1444 -1.4193
12151TIP3    H257945   4.273   1.709  16.638 -2.3305 -0.7559  0.2872
12152TIP3   OH257946   2.541   6.657  15.164  0.6001 -0.0761  0.2146
12152TIP3    H157947   2.541   6.654  15.068 -0.1411  0.2360  0.1990
12152TIP3    H257948   2.633   6.667  15.187  0.8409 -0.6577 -0.4455
12153TIP3   OH257949   5.558   1.729   3.684 -0.2039 -0.0551 -0.5755
12153TIP3    H157950   5.639   1.717   3.732 -0.2025 -0.9292 -0.7840
12153TIP3    H257951   5.490   1.689   3.739 -0.2208 -0.9420 -1.2128
12154TIP3   OH257952   0.389   5.228   5.148 -0.0488  0.0437  0.4852
12154TIP3    H157953   0.294   5.229   5.138 -0.2082 -3.8223  0.0293
12154TIP3    H257954   0.403   5.206   5.240  0.5477  2.4093  1.0249
12155TIP3   OH257955   2.723   4.595   1.390  0.0402 -0.5154  0.1906
12155TIP3    H157956   2.683   4.675   1.354  2.1300  1.0842  1.2304
12155TIP3    H257957   2.729   4.612   1.484  1.1184 -1.6354  0.3393
12156TIP3   OH257958   2.534   3.940   1.265  0.2355 -0.0666  0.2110
12156TIP3    H157959   2.546   3.845   1.273  1.8584 -0.0237 -1.0204
12156TIP3    H257960   2.601   3.978   1.322  0.8121  0.2828 -0.6581
12157TIP3   OH257961   4.856   0.210   0.479 -0.2199  0.3500  0.7956
12157TIP3    H157962   4.878   0.175   0.393 -1.5042 -0.5586  0.8022
12157TIP3    H257963   4.828   0.300   0.461 -1.6201 -0.1970  0.0620
12158TIP3   OH257964   1.833   5.589   3.019 -0.1009 -0.0685  0.3540
12158TIP3    H157965   1.877   5.515   3.060 -0.0017 -0.4624 -0.4392
12158TIP3    H257966   1.801   5.642   3.092 -1.2013 -1.5016  0.9567
12159TIP3   OH257967   4.048   2.608   1.763 -0.3667  0.5285 -0.4278
12159TIP3    H157968   3.984   2.645   1.702 -1.6698  0.9647  1.1367
12159TIP3    H257969   4.104   2.682   1.786  1.0129  0.0667 -2.0841
12160TIP3   OH257970   1.523   1.099   6.385 -0.1067 -0.0326  0.0706
12160TIP3    H157971   1.485   1.012   6.396 -0.6665 -0.0160 -1.4948
12160TIP3    H257972   1.447   1.156   6.374  0.3044  0.3531 -0.8223
12161TIP3   OH257973   3.573   1.217   6.438 -0.0476  0.1943 -0.3247
12161TIP3    H157974   3.644   1.259   6.486 -0.2218 -0.7254  0.8033
12161TIP3    H257975   3.608   1.131   6.414 -0.5090  0.0395 -0.4588
12162TIP3   OH257976   2.783   0.164  12.503  0.7424  0.0449 -0.3141
12162TIP3    H157977   2.740   0.220  12.568  2.6146  2.1616 -0.7630
12162TIP3    H257978   2.712   0.136  12.445 -0.6076  0.0189  1.2673
12163TIP3   OH257979   0.931   4.470   2.737 -0.2950  0.1877 -0.3090
12163TIP3    H157980   0.962   4.386   2.703 -0.1232 -0.0062  0.3149
12163TIP3    H257981   0.915   4.454   2.830 -0.6891  0.7296 -0.2786
12164TIP3   OH257982   1.083   2.204   1.783  0.2318  0.5027 -0.4289
12164TIP3    H157983   1.088   2.206   1.688  1.4211 -1.6893 -0.4864
12164TIP3    H257984   0.997   2.241   1.804 -0.5826 -0.1577 -2.4264
12165TIP3   OH257985   6.042   0.710   4.235  0.5925  0.3030 -0.2679
12165TIP3    H157986   6.105   0.719   4.163  0.5280  0.4244 -0.3096
12165TIP3    H257987   6.061   0.783   4.293  2.0404 -0.9746  0.9324
12166TIP3   OH257988   4.874   1.560  10.938  0.1964  0.0445 -0.6732
12166TIP3    H157989   4.839   1.479  10.902 -1.3833  1.3033 -2.1856
12166TIP3    H257990   4.961   1.569  10.898  1.1053 -1.6607  0.8019
12167TIP3   OH257991   3.657   2.335   2.371 -0.0398  0.4042  0.1132
12167TIP3    H157992   3.740   2.327   2.418  0.3370 -0.4611 -0.6729
12167TIP3    H257993   3.648   2.252   2.324 -1.5393  0.3416  0.4774
12168TIP3   OH257994   2.909   1.245  16.342  0.0295 -0.0595 -0.0139
12168TIP3    H157995   2.825   1.216  16.308 -0.5241  0.4334  0.8946
12168TIP3    H257996   2.973   1.188  16.299 -0.8544 -1.2170  0.1531
12169TIP3   OH257997   2.138   1.469  16.323  0.2258 -0.2125  0.4610
12169TIP3    H157998   2.111   1.377  16.317  0.9335 -0.5447  1.9302
12169TIP3    H257999   2.196   1.481  16.248 -0.0563 -0.8954  0.1174
12170TIP3   OH258000   4.511   3.539  10.574 -0.1539  0.1632  0.0351
12170TIP3    H158001   4.509   3.543  10.669  0.2357  0.8105  0.0190
12170TIP3    H258002   4.423   3.508  10.549 -0.1393 -0.3547  0.6126
12171TIP3   OH258003   0.211   2.625   5.399  0.1692  0.1204  0.7272
12171TIP3    H158004   0.209   2.558   5.331  1.7027  0.3249  0.4515
12171TIP3    H258005   0.148   2.691   5.370  0.2650 -0.1484 -0.1095
12172TIP3   OH258006   5.544   6.431   1.244 -0.3550  0.1491  0.5480
12172TIP3    H158007   5.463   6.382   1.251 -0.7128  0.4604 -1.1321
12172TIP3    H258008   5.600   6.379   1.187 -1.2514  2.1995 -2.4620
12173TIP3   OH258009   0.490   0.372  15.878  0.1725 -0.0155  0.2461
12173TIP3    H158010   0.492   0.297  15.818  0.3599 -1.1908  1.6825
12173TIP3    H258011   0.569   0.422  15.857  0.0819 -0.2344 -0.6773
12174TIP3   OH258012   0.597   4.629   1.378 -0.4811 -0.0645  0.0022
12174TIP3    H158013   0.652   4.706   1.362 -0.6988  0.0740 -0.0863
12174TIP3    H258014   0.640   4.558   1.330 -1.3153  0.4262 -1.5312
12175TIP3   OH258015   0.964   2.427  13.410 -0.0712  0.1941  0.5544
12175TIP3    H158016   1.013   2.350  13.441  1.7873  1.5156  1.0708
12175TIP3    H258017   0.992   2.498  13.468  0.7009  1.9627 -1.8261
12176TIP3   OH258018   4.436   3.742   0.289  0.1719  0.1630 -0.3195
12176TIP3    H158019   4.455   3.835   0.275  1.0982  0.5749  2.8215
12176TIP3    H258020   4.364   3.723   0.229 -2.1212  3.7187  0.9279
12177TIP3   OH258021   5.020   4.649  11.779 -0.0839  0.4071 -0.5465
12177TIP3    H158022   5.048   4.558  11.784 -1.6421 -0.0404  2.9405
12177TIP3    H258023   5.029   4.672  11.686 -1.1663 -3.7790 -1.9056
12178TIP3   OH258024   0.280   5.838   5.367 -0.4435 -0.1982 -0.1703
12178TIP3    H158025   0.301   5.765   5.426  0.7000  1.2943  1.3612
12178TIP3    H258026   0.224   5.896   5.419 -0.5202  0.5129 -1.0209
12179TIP3   OH258027   1.401   3.700  15.675 -0.4909 -0.5737  0.4507
12179TIP3    H158028   1.406   3.617  15.721  1.5771 -2.2896 -2.5228
12179TIP3    H258029   1.308   3.712  15.656 -0.8933 -1.8173  1.4984
12180TIP3   OH258030   4.435   2.452   5.770 -0.0858  0.0002  0.4397
12180TIP3    H158031   4.413   2.364   5.801 -0.6941  0.1867  0.5349
12180TIP3    H258032   4.460   2.500   5.849 -0.4732  0.1260  0.4878
12181TIP3   OH258033   6.509   4.816   6.036  0.3268  0.3387 -0.3273
12181TIP3    H158034   6.590   4.788   6.078  1.1497  1.1980 -1.2802
12181TIP3    H258035   6.515   4.781   5.947 -0.8327 -0.4349 -0.1307
12182TIP3   OH258036   2.125   2.223   6.314 -0.2406 -0.0039 -0.5776
12182TIP3    H158037   2.148   2.307   6.275 -1.8094  1.1959  0.8909
12182TIP3    H258038   2.029   2.225   6.321 -0.1337 -0.5968  2.2040
12183TIP3   OH258039   0.301   4.002   2.058 -0.5864  0.0974 -0.2340
12183TIP3    H158040   0.366   3.932   2.048  0.7971  1.1054  1.2412
12183TIP3    H258041   0.347   4.082   2.032 -1.3259  0.7898  0.5120
12184TIP3   OH258042   2.836   4.339  15.145 -0.4163  0.1318 -0.3218
12184TIP3    H158043   2.796   4.305  15.225  0.9588 -1.0729 -0.1004
12184TIP3    H258044   2.775   4.406  15.115 -2.1348 -0.9846  0.4658
12185TIP3   OH258045   1.277   5.116  16.494  0.1173 -0.2020 -0.7071
12185TIP3    H158046   1.248   5.118  16.585 -0.5306 -1.4271 -0.8753
12185TIP3    H258047   1.201   5.145  16.444 -0.1534 -1.3233 -0.9813
12186TIP3   OH258048   4.246   6.798   2.464 -0.2282 -0.4820 -0.1779
12186TIP3    H158049   4.309   6.728   2.482 -0.6402 -0.3700  1.9044
12186TIP3    H258050   4.176   6.784   2.527 -1.5493  0.3409 -1.4055
12187TIP3   OH258051   1.663   6.485  14.877 -0.1065  0.2776  0.4128
12187TIP3    H158052   1.737   6.429  14.899 -1.2852 -1.3016  0.5857
12187TIP3    H258053   1.662   6.488  14.781  0.5849  0.8937  0.4219
12188TIP3   OH258054   2.226   1.650  13.322 -0.3226 -0.6331 -0.1624
12188TIP3    H158055   2.166   1.672  13.393 -1.0655 -2.0640 -0.3031
12188TIP3    H258056   2.273   1.732  13.303 -0.2609 -0.1606  1.8036
12189TIP3   OH258057   0.145   6.215  12.409  0.3914  0.1000  0.3292
12189TIP3    H158058   0.059   6.257  12.401 -0.2004 -0.8834  1.2123
12189TIP3    H258059   0.188   6.233  12.326 -2.1432 -2.5736 -1.8196
12190TIP3   OH258060   0.065   4.797  15.336 -0.3189  0.6009 -0.2134
12190TIP3    H158061   0.007   4.795  15.260 -0.3099 -1.2516 -0.2259
12190TIP3    H258062   0.142   4.845  15.306 -0.1259 -0.4736 -1.5458
12191TIP3   OH258063   0.481   2.293  11.628  0.0690  0.0696  0.2045
12191TIP3    H158064   0.411   2.283  11.693 -0.3074 -1.5320 -0.3954
12191TIP3    H258065   0.445   2.353  11.563 -0.8289 -0.8803 -0.1890
12192TIP3   OH258066   1.263   5.788   1.954 -0.2228  0.1280 -0.2785
12192TIP3    H158067   1.226   5.875   1.969 -1.3684 -0.5565  1.1575
12192TIP3    H258068   1.342   5.786   2.007 -0.6114  0.0483  0.3095
12193TIP3   OH258069   4.346   0.897  15.221 -0.6606  0.0081  0.1939
12193TIP3    H158070   4.423   0.847  15.250 -1.6008 -1.1567  0.7326
12193TIP3    H258071   4.374   0.989  15.226  0.5677 -0.3782  0.7427
12194TIP3   OH258072   0.665   6.449   1.597 -0.7517 -0.1449 -0.1202
12194TIP3    H158073   0.587   6.394   1.588  0.3121 -2.4154  2.9372
12194TIP3    H258074   0.727   6.414   1.532 -0.7509 -1.3256  0.4978
12195TIP3   OH258075   0.588   0.194   0.271  0.1940 -0.2560 -0.0736
12195TIP3    H158076   0.522   0.178   0.338  1.8200 -0.6681  1.5028
12195TIP3    H258077   0.585   0.289   0.256  0.0206 -0.1226  0.7970
12196TIP3   OH258078   3.077   1.663   3.269  0.0097 -0.3479  0.0584
12196TIP3    H158079   3.127   1.719   3.209 -2.0079  0.4898 -0.9505
12196TIP3    H258080   3.130   1.584   3.278  1.4751  0.4622 -0.9654
12197TIP3   OH258081   3.919   4.931   4.091  0.0194 -0.2985 -0.2370
12197TIP3    H158082   3.901   4.837   4.083 -1.8873  0.1736 -2.8580
12197TIP3    H258083   3.833   4.971   4.101  0.5284  1.3259 -1.8948
12198TIP3   OH258084   2.333   5.884  15.316  0.8154 -0.0609 -0.0603
12198TIP3    H158085   2.392   5.946  15.273  1.8931 -0.9916  0.0200
12198TIP3    H258086   2.351   5.800  15.272 -0.4140 -0.3848  0.0154
12199TIP3   OH258087   2.260   5.452  11.127 -0.0771 -0.6336  0.8427
12199TIP3    H158088   2.223   5.501  11.054  1.2739 -1.9131 -0.7764
12199TIP3    H258089   2.334   5.504  11.157 -0.4304 -0.2746  1.1101
12200TIP3   OH258090   0.215   1.322  15.204  0.4366  0.1844  0.4737
12200TIP3    H158091   0.212   1.227  15.215  1.5915  0.0697 -0.0794
12200TIP3    H258092   0.307   1.345  15.220 -0.2254  1.5112  2.8920
12201TIP3   OH258093   5.443   1.803  11.693  0.2097  0.2996  0.2074
12201TIP3    H158094   5.369   1.743  11.702  0.3209  0.0185 -0.6588
12201TIP3    H258095   5.425   1.873  11.756 -0.6217  0.0645  0.2374
12202TIP3   OH258096   0.140   0.359   4.024 -0.0679  0.4011  0.0054
12202TIP3    H158097   0.130   0.326   4.113  0.7598 -0.4633 -0.2058
12202TIP3    H258098   0.178   0.446   4.035 -1.7263  1.0997  0.5442
12203TIP3   OH258099   2.154   3.784   6.641  0.4818 -0.8760 -0.0556
12203TIP3    H158100   2.162   3.779   6.546 -0.3117 -0.0811 -0.1819
12203TIP3    H258101   2.111   3.867   6.657  0.1912 -1.2061  0.9783
12204TIP3   OH258102   1.179   5.947   2.321  0.6594  0.4483 -0.3970
12204TIP3    H158103   1.176   5.853   2.304 -0.2941  0.6911 -1.6940
12204TIP3    H258104   1.247   5.957   2.388  1.0704 -1.1066 -0.5488
12205TIP3   OH258105   0.922   4.162  14.728  0.2015 -0.3808 -0.1274
12205TIP3    H158106   0.978   4.146  14.652  0.6992 -1.5031  0.4388
12205TIP3    H258107   0.941   4.089  14.787  0.5007  0.9344  1.4698
12206TIP3   OH258108   4.296   0.017  11.502  0.2172  0.2431 -0.3044
12206TIP3    H158109   4.207  -0.018  11.511  0.3857 -0.1939 -0.3020
12206TIP3    H258110   4.302   0.085  11.569  0.3822 -0.7595  0.7312
12207TIP3   OH258111   3.053   5.334   5.589  0.5021 -0.3497  0.4916
12207TIP3    H158112   3.074   5.280   5.665  1.4058 -2.6380 -1.2628
12207TIP3    H258113   3.135   5.341   5.541 -0.3211 -0.1159 -0.9410
12208TIP3   OH258114   5.281   5.495   4.709  0.5156  0.4364 -0.0854
12208TIP3    H158115   5.302   5.437   4.635  0.3103  1.5829 -1.0661
12208TIP3    H258116   5.186   5.506   4.704  0.6163  1.3066 -0.2706
12209TIP3   OH258117   5.915   5.103  12.432  0.1683  0.2184  0.3258
12209TIP3    H158118   5.855   5.171  12.405 -0.0469  0.2447  0.8514
12209TIP3    H258119   5.969   5.086  12.355 -0.7844 -0.1057 -0.2818
12210TIP3   OH258120   2.047   0.624   4.940 -0.1532  0.4780  0.4569
12210TIP3    H158121   2.027   0.549   4.995  0.2815  0.0942  0.1023
12210TIP3    H258122   2.042   0.590   4.851  1.3741  0.5236  0.3281
12211TIP3   OH258123   2.146   4.119   4.293  0.2642 -0.5446  0.4339
12211TIP3    H158124   2.121   4.211   4.287  1.8512  0.0025  1.4405
12211TIP3    H258125   2.131   4.084   4.205 -2.6825 -0.0007  0.6363
12212TIP3   OH258126   4.018   5.186  16.659  0.4713  0.3215  0.4941
12212TIP3    H158127   4.024   5.123  16.586  1.0736  1.5058 -0.5152
12212TIP3    H258128   3.943   5.241  16.636 -0.0222  0.0181  1.3493
12213TIP3   OH258129   1.783   1.940  12.825 -0.0157  0.3004  0.1095
12213TIP3    H158130   1.771   1.863  12.880  4.0071 -0.7008 -0.1058
12213TIP3    H258131   1.746   2.012  12.876 -1.5025 -1.3760  1.5183
12214TIP3   OH258132   3.538   6.797   1.130  0.4249 -0.2271  0.5459
12214TIP3    H158133   3.450   6.786   1.165  0.2019 -1.2899 -0.3021
12214TIP3    H258134   3.529   6.782   1.036  1.8037 -2.3086  0.6712
12215TIP3   OH258135   1.040   5.415   0.600 -0.6931  0.6148 -0.0814
12215TIP3    H158136   0.952   5.392   0.570  0.1679 -3.1568 -0.2529
12215TIP3    H258137   1.070   5.338   0.648  3.6877  0.3553 -2.7155
12216TIP3   OH258138   6.356   5.076   1.696  0.9529  0.0412  0.2484
12216TIP3    H158139   6.451   5.068   1.701  0.9136 -1.2792 -0.6916
12216TIP3    H258140   6.323   5.011   1.758  0.6569 -0.3604 -0.3245
12217TIP3   OH258141   0.334   1.519  16.234 -0.0090 -0.4343  0.7458
12217TIP3    H158142   0.289   1.447  16.278 -1.8615  0.7237  0.9004
12217TIP3    H258143   0.341   1.587  16.301 -1.6640  0.8526 -0.2868
12218TIP3   OH258144   2.374   3.521   1.954 -0.0116  0.3270  0.0209
12218TIP3    H158145   2.382   3.518   2.049  2.5507  0.0616 -0.1169
12218TIP3    H258146   2.410   3.606   1.929 -0.3114  0.2435 -0.7209
12219TIP3   OH258147   6.129   0.323  11.713  0.0507 -0.0357 -0.3216
12219TIP3    H158148   6.166   0.235  11.726 -0.6734 -0.2548  0.3472
12219TIP3    H258149   6.057   0.309  11.651  0.5332  0.2462 -0.9493
12220TIP3   OH258150   6.696   3.855  12.913  0.1866  0.7302  0.1489
12220TIP3    H158151   6.730   3.813  12.834  1.3882  1.1120  0.4402
12220TIP3    H258152   6.759   3.832  12.981 -0.8090  0.4450  0.9974
12221TIP3   OH258153   2.816   3.999   2.392  0.0772  0.1765 -0.3483
12221TIP3    H158154   2.873   4.013   2.317 -0.4565 -0.5252 -0.9072
12221TIP3    H258155   2.728   3.996   2.354 -0.1861 -0.3163  0.2819
12222TIP3   OH258156   0.846   2.329   2.617  0.6134  0.1729 -0.1451
12222TIP3    H158157   0.938   2.356   2.610  0.8076  0.0857  1.5322
12222TIP3    H258158   0.826   2.290   2.532  1.5714  1.8011 -1.1750
12223TIP3   OH258159   4.628   1.933  10.522  0.0808 -0.2773  0.6141
12223TIP3    H158160   4.532   1.936  10.517 -0.0638 -1.3474  1.9591
12223TIP3    H258161   4.650   1.842  10.502  0.8590  0.0399 -0.0274
12224TIP3   OH258162   4.689   2.039   2.613  0.2827 -0.3337  0.0394
12224TIP3    H158163   4.656   2.047   2.524  0.6492 -1.9051 -0.2645
12224TIP3    H258164   4.643   2.106   2.663  0.2416  0.7110 -1.3757
12225TIP3   OH258165   1.728   0.057  13.847 -0.2940 -0.0540 -0.5281
12225TIP3    H158166   1.705   0.148  13.866 -0.6651 -0.3633  0.5608
12225TIP3    H258167   1.823   0.054  13.856 -0.4064 -0.0597  0.7622
12226TIP3   OH258168   5.543   1.460  14.711  0.2690  0.1646 -0.3348
12226TIP3    H158169   5.477   1.468  14.781  1.5611  0.2967  0.9226
12226TIP3    H258170   5.558   1.365  14.704  0.7344  0.1991  0.1579
12227TIP3   OH258171   1.319   3.077  11.640 -0.5641 -0.0767 -0.1338
12227TIP3    H158172   1.275   3.104  11.721 -0.9045  0.9081 -0.6356
12227TIP3    H258173   1.412   3.073  11.664 -0.6605  0.2252  0.3043
12228TIP3   OH258174   5.817   1.405  13.801 -0.1156  0.0979 -0.0464
12228TIP3    H158175   5.809   1.431  13.710  3.4323 -0.6803 -0.7216
12228TIP3    H258176   5.737   1.354  13.819 -1.1279  0.7086 -2.5046
12229TIP3   OH258177   5.589   6.289   3.882 -0.8447  0.1110 -0.5887
12229TIP3    H158178   5.602   6.195   3.870 -0.0391  0.1522 -0.0705
12229TIP3    H258179   5.543   6.297   3.965 -3.4306  0.0323 -1.9081
12230TIP3   OH258180   1.902   1.512   1.653  0.0934 -0.2046  0.2300
12230TIP3    H158181   1.869   1.528   1.741 -0.1646 -0.0686  0.1102
12230TIP3    H258182   1.874   1.423   1.632 -3.5217  1.0995 -1.3013
12231TIP3   OH258183   2.507   1.908   5.337  0.0724  0.2112 -0.1121
12231TIP3    H158184   2.522   1.983   5.280 -1.4002 -0.5873 -1.6560
12231TIP3    H258185   2.576   1.846   5.314 -0.1059  0.1709 -0.5604
12232TIP3   OH258186   4.903   5.103   5.677 -0.2970  0.5530  0.5323
12232TIP3    H158187   4.904   5.074   5.585 -2.1585  0.0433  0.6292
12232TIP3    H258188   4.984   5.067   5.714  0.2443  0.3474 -0.7755
12233TIP3   OH258189   0.100   1.118  16.360  0.2059  0.2247 -0.1838
12233TIP3    H158190   0.022   1.119  16.304 -0.0926 -1.9186  0.1058
12233TIP3    H258191   0.116   1.025  16.376  1.4433  0.7163  1.6802
12234TIP3   OH258192   3.553   0.225   4.175  0.0236 -0.0666  0.6141
12234TIP3    H158193   3.607   0.174   4.114  0.2025  0.1726  0.5679
12234TIP3    H258194   3.539   0.308   4.129 -1.8949 -0.7723 -0.1524
12235TIP3   OH258195   3.259   4.195  11.237 -0.2450 -0.3422 -0.4483
12235TIP3    H158196   3.260   4.195  11.141 -2.2031 -0.4666 -0.5135
12235TIP3    H258197   3.188   4.255  11.260 -0.6166 -1.2507  0.8815
12236TIP3   OH258198   1.985   3.967   4.845 -0.1720 -0.1693  0.7562
12236TIP3    H158199   2.013   3.991   4.757  0.2809 -1.2080  0.6091
12236TIP3    H258200   1.958   3.875   4.839 -2.7909  0.4909  1.1004
12237TIP3   OH258201   5.933   4.722  12.092 -0.6151  0.1217  0.0829
12237TIP3    H158202   5.898   4.810  12.099 -2.4512 -0.4651 -0.9446
12237TIP3    H258203   5.934   4.689  12.183  2.8938  2.1058  0.9158
12238TIP3   OH258204   5.866   0.170  12.928  0.6612 -0.0372 -0.3839
12238TIP3    H158205   5.929   0.241  12.939 -0.2856  0.7760 -0.0428
12238TIP3    H258206   5.841   0.174  12.836  1.0045 -0.2900 -0.4933
12239TIP3   OH258207   4.854   5.519   2.602  0.0001 -0.1549 -0.1509
12239TIP3    H158208   4.836   5.434   2.563  1.4043 -0.7036  0.3217
12239TIP3    H258209   4.917   5.501   2.672 -0.1816  1.1882  0.3991
12240TIP3   OH258210   6.073   5.922   2.359 -0.0261 -0.2779 -0.6500
12240TIP3    H158211   6.099   5.931   2.451 -1.6650 -1.9667  0.0537
12240TIP3    H258212   6.000   5.983   2.349  1.0535  0.9310 -1.2449
12241TIP3   OH258213   2.944   5.856   3.952  0.0233  0.3938  0.1796
12241TIP3    H158214   2.943   5.762   3.934 -0.4477  0.6062 -1.0021
12241TIP3    H258215   2.993   5.894   3.879 -2.8846  1.4078 -1.4149
12242TIP3   OH258216   0.543   4.268  12.875  0.1877  0.4079  0.1650
12242TIP3    H158217   0.461   4.306  12.905  0.6388  0.9526  0.7304
12242TIP3    H258218   0.596   4.342  12.846  0.4622  0.0556 -0.2668
12243TIP3   OH258219   4.819   2.325   1.541  0.1343 -0.2089  0.5494
12243TIP3    H158220   4.729   2.293   1.542  0.1367 -0.2279  0.1021
12243TIP3    H258221   4.868   2.260   1.491 -0.3283  1.6680 -2.5807
12244TIP3   OH258222   5.317   2.154   3.080  1.0315  0.1653 -0.5224
12244TIP3    H158223   5.392   2.200   3.120 -0.8217  2.1983  0.8395
12244TIP3    H258224   5.245   2.217   3.085 -1.8257 -2.9385  1.7781
12245TIP3   OH258225   2.445   5.793  13.156 -0.4826  0.1410 -0.4162
12245TIP3    H158226   2.409   5.779  13.244 -2.2634  2.8444 -0.5948
12245TIP3    H258227   2.539   5.785  13.168 -0.5925  1.3293  2.0030
12246TIP3   OH258228   5.864   0.612  13.411 -0.1005 -0.8188  0.3466
12246TIP3    H158229   5.833   0.701  13.395 -0.4969 -0.7912  1.2209
12246TIP3    H258230   5.832   0.591  13.499 -2.2497 -2.7929 -0.8261
12247TIP3   OH258231   0.573   3.758   4.870 -0.2782  0.4809 -0.3856
12247TIP3    H158232   0.587   3.777   4.962 -0.5540 -0.7593 -0.0693
12247TIP3    H258233   0.658   3.772   4.829  0.2914 -0.6233  0.3699
12248TIP3   OH258234   2.325   2.212  17.008  0.3912 -0.5962  0.6587
12248TIP3    H158235   2.249   2.171  16.967  0.8962 -0.1119 -0.8301
12248TIP3    H258236   2.295   2.300  17.032  1.0383  0.4482 -2.0179
12249TIP3   OH258237   1.076   5.204   1.951 -0.2374 -0.0770 -0.3688
12249TIP3    H158238   1.156   5.155   1.964 -1.0641 -1.1931  0.6683
12249TIP3    H258239   1.034   5.161   1.876  0.5011  1.0404 -1.4644
12250TIP3   OH258240   5.479   2.824   1.055  0.2797 -0.6090 -0.4281
12250TIP3    H158241   5.537   2.894   1.023  0.2151 -0.5776 -0.4752
12250TIP3    H258242   5.522   2.743   1.026  1.4867 -0.6959  1.4265
12251TIP3   OH258243   2.685   0.733  14.864 -0.1604 -0.3063  0.7574
12251TIP3    H158244   2.607   0.776  14.901  0.0289 -0.1789  1.0152
12251TIP3    H258245   2.675   0.641  14.889 -1.1615 -0.6542 -0.8058
12252TIP3   OH258246   1.766   0.240   4.841 -0.2717  0.3232 -0.1480
12252TIP3    H158247   1.836   0.184   4.876  0.5937  1.1454 -0.5230
12252TIP3    H258248   1.699   0.240   4.909 -1.8445 -3.7931 -1.3756
12253TIP3   OH258249   5.801   3.627   4.623 -0.0498 -0.0238 -0.0926
12253TIP3    H158250   5.762   3.592   4.543 -0.6006 -0.7775  0.4849
12253TIP3    H258251   5.894   3.635   4.604 -0.3172  0.7243 -1.1266
12254TIP3   OH258252   3.031   1.015  16.974  0.4435  0.5945  0.6642
12254TIP3    H158253   3.090   1.009  17.049  0.1939 -0.0540  0.8142
12254TIP3    H258254   2.959   1.069  17.005 -0.7778 -1.4892  1.6614
12255TIP3   OH258255   1.934   5.305   4.135 -0.2927  0.1069 -0.6034
12255TIP3    H158256   1.961   5.214   4.122 -1.2806 -0.5140  1.2217
12255TIP3    H258257   1.952   5.348   4.052  1.9742 -1.2919 -0.9373
12256TIP3   OH258258   3.458   4.584   1.225  0.0621 -0.2534 -0.1937
12256TIP3    H158259   3.450   4.628   1.310 -1.7931  1.3149 -1.1077
12256TIP3    H258260   3.523   4.515   1.240  0.8110  0.8448  2.1245
12257TIP3   OH258261   5.043   4.045   0.582 -0.1226  0.2039  0.4641
12257TIP3    H158262   5.122   3.997   0.560  0.4253  2.1433 -2.4290
12257TIP3    H258263   5.071   4.112   0.644  0.2825  0.1694  0.3194
12258TIP3   OH258264   5.873   5.545   4.138  0.4799 -0.3849 -0.0071
12258TIP3    H158265   5.807   5.510   4.198  0.2083 -1.1199 -0.7022
12258TIP3    H258266   5.859   5.640   4.139  0.1389 -0.4358  0.6811
12259TIP3   OH258267   6.792   5.585  13.339  0.4212 -0.0162  0.6551
12259TIP3    H158268   6.701   5.612  13.324  0.2299  0.3132  2.2746
12259TIP3    H258269   6.816   5.538  13.259 -0.8497  0.7236 -0.2040
12260TIP3   OH258270   3.108   5.151  13.963  0.1673 -0.0094 -0.4452
12260TIP3    H158271   3.114   5.162  13.869  2.0883  1.3820 -0.2343
12260TIP3    H258272   3.078   5.236  13.996 -0.2154 -0.3870  0.2128
12261TIP3   OH258273   5.994   3.811  13.070 -0.4280  0.0393 -0.0483
12261TIP3    H158274   6.054   3.805  13.145  0.4088 -2.4386 -0.8075
12261TIP3    H258275   6.050   3.835  12.997 -1.2409  2.4245  0.0188
12262TIP3   OH258276   1.748   1.111  15.895  0.2553 -0.1222 -0.2161
12262TIP3    H158277   1.729   1.192  15.848  0.3395  0.1848  0.2672
12262TIP3    H258278   1.690   1.114  15.972  0.8301 -0.1254  0.2247
12263TIP3   OH258279   2.716   1.957  15.010 -0.2379 -0.4288 -0.2055
12263TIP3    H158280   2.670   1.995  15.085  0.3096 -0.6820  0.2764
12263TIP3    H258281   2.755   2.032  14.965 -0.4069 -0.2898 -0.1209
12264TIP3   OH258282   1.256   3.887   3.015 -0.0810 -0.0875  0.4821
12264TIP3    H158283   1.193   3.833   2.968 -0.0183  1.0300 -0.9544
12264TIP3    H258284   1.229   3.881   3.107 -1.2500 -0.9629  0.1089
12265TIP3   OH258285   5.311   4.542  13.266 -0.4177  0.5808 -0.3583
12265TIP3    H158286   5.344   4.469  13.213 -2.2093  1.0329 -2.2163
12265TIP3    H258287   5.372   4.614  13.248 -1.2714  0.8877 -2.3539
12266TIP3   OH258288   3.461   3.982  13.135  0.2778  0.2033  0.7251
12266TIP3    H158289   3.372   3.955  13.159  0.6845 -2.0337 -0.0539
12266TIP3    H258290   3.448   4.055  13.074 -0.9390  0.9004  1.7506
12267TIP3   OH258291   3.032   3.864   5.700 -0.2408 -0.4044  0.4229
12267TIP3    H158292   3.011   3.923   5.772 -0.7451  0.2921 -0.2799
12267TIP3    H258293   2.952   3.858   5.648  0.2361 -0.5401 -0.3243
12268TIP3   OH258294   4.365   1.865  10.582  0.4979 -0.3511  0.1940
12268TIP3    H158295   4.320   1.818  10.511 -0.7716 -0.2280  0.8970
12268TIP3    H258296   4.378   1.799  10.649 -0.6823  0.1003  0.9064
12269TIP3   OH258297   0.243   4.760   0.046  0.5265 -0.0499 -0.1106
12269TIP3    H158298   0.282   4.724   0.125  1.0557  0.7462  0.0073
12269TIP3    H258299   0.318   4.780  -0.011  0.3624  1.8022  0.2411
12270TIP3   OH258300   2.675   6.308  13.133  0.1026  0.3131  0.2877
12270TIP3    H158301   2.703   6.331  13.044 -2.2484 -0.6826 -0.7774
12270TIP3    H258302   2.674   6.392  13.180 -0.1546  1.1020 -1.0653
12271TIP3   OH258303   2.908   5.077   1.400  0.3312 -0.0636 -0.5099
12271TIP3    H158304   2.859   5.102   1.322 -0.0535 -1.2381 -0.6661
12271TIP3    H258305   2.881   5.140   1.466 -0.1262  0.3183 -1.0457
12272TIP3   OH258306   5.983   5.481  15.236  0.2200 -0.0321  0.1385
12272TIP3    H158307   5.942   5.411  15.287 -1.7624  1.2245  0.3534
12272TIP3    H258308   6.077   5.466  15.247 -0.1517 -1.3741  1.9494
12273TIP3   OH258309   4.390   1.733   5.958  0.4484 -0.1521  0.5091
12273TIP3    H158310   4.360   1.732   6.049 -2.5293 -0.7220 -0.3586
12273TIP3    H258311   4.381   1.643   5.928 -2.6606  0.6260 -1.3988
12274TIP3   OH258312   5.346   6.229   1.267 -0.1258  0.3578  0.0824
12274TIP3    H158313   5.294   6.156   1.302  0.7952 -0.9701 -1.2150
12274TIP3    H258314   5.296   6.260   1.191  0.6879 -0.6168 -0.8866
12275TIP3   OH258315   5.908   5.736   3.200 -0.1858 -0.5997  0.0228
12275TIP3    H158316   5.886   5.679   3.274 -4.7264 -0.3235 -0.8196
12275TIP3    H258317   5.907   5.678   3.124 -2.9372  0.1569 -0.6043
12276TIP3   OH258318   1.550   0.673   0.812  0.0148 -0.1663 -0.1345
12276TIP3    H158319   1.590   0.720   0.886  0.6025  0.9815 -1.1506
12276TIP3    H258320   1.622   0.658   0.751 -0.6381 -0.2745 -0.8888
12277TIP3   OH258321   2.270   4.518  14.059  0.3756 -0.2215 -0.1274
12277TIP3    H158322   2.270   4.468  13.978 -2.5648  1.7616 -1.5578
12277TIP3    H258323   2.242   4.456  14.126  1.8665 -1.6515 -0.7740
12278TIP3   OH258324   1.691   4.112   3.727 -0.1903 -0.1552 -0.0650
12278TIP3    H158325   1.684   4.199   3.766 -0.6707 -0.4354  0.5003
12278TIP3    H258326   1.696   4.052   3.803  0.3716 -0.5984 -0.4447
12279TIP3   OH258327   0.902   4.397   4.222  0.1378  0.6583  0.2909
12279TIP3    H158328   0.996   4.387   4.240  0.2635  2.4481  0.8493
12279TIP3    H258329   0.898   4.450   4.143 -0.4611 -2.5355 -1.9994
12280TIP3   OH258330   2.025   0.449  14.008  0.6705 -0.1851  0.0210
12280TIP3    H158331   1.937   0.481  14.028  0.7000  0.8504 -1.3891
12280TIP3    H258332   2.015   0.399  13.927  1.4559  0.3638 -0.4246
12281TIP3   OH258333   2.317   3.815  13.125  0.5407  0.8405 -0.4809
12281TIP3    H158334   2.245   3.788  13.182  2.0256  2.8923  2.6664
12281TIP3    H258335   2.364   3.735  13.105 -1.0908 -0.1854 -0.4020
12282TIP3   OH258336   0.996   4.346   0.235 -0.2223  0.5619  0.1710
12282TIP3    H158337   1.024   4.366   0.324  0.7117  0.4448 -0.0812
12282TIP3    H258338   1.070   4.298   0.197 -1.9009 -2.4162  0.3938
12283TIP3   OH258339   0.274   2.631  15.043 -0.3583 -0.1967 -0.8151
12283TIP3    H158340   0.362   2.634  15.080 -0.2262 -0.4699 -1.1045
12283TIP3    H258341   0.220   2.679  15.106 -0.0964 -0.4611 -0.3841
12284TIP3   OH258342   3.612   0.302  14.137  0.0437  0.6853  0.5713
12284TIP3    H158343   3.647   0.360  14.205 -1.0149  0.5703  1.2532
12284TIP3    H258344   3.670   0.227  14.137  0.0124  0.6412  1.4456
12285TIP3   OH258345   0.899   1.302   2.618  0.7444  0.3348  0.1338
12285TIP3    H158346   0.986   1.275   2.587  1.4921  1.7188  0.9482
12285TIP3    H258347   0.851   1.323   2.538  0.7483 -1.4979 -0.4040
12286TIP3   OH258348   6.608   5.203  13.479  0.3784  0.0542 -0.5283
12286TIP3    H158349   6.556   5.259  13.422 -1.9229  2.2014  3.3046
12286TIP3    H258350   6.634   5.259  13.552  0.9523 -3.0226  1.8576
12287TIP3   OH258351   6.611   5.737   1.845  0.3291  0.1185 -0.6748
12287TIP3    H158352   6.646   5.783   1.921  1.9013 -1.1348 -0.5803
12287TIP3    H258353   6.547   5.675   1.880  2.6823 -2.0912  0.0161
12288TIP3   OH258354   0.929   0.851  14.647  0.1538 -0.2466 -0.0862
12288TIP3    H158355   0.940   0.932  14.696  0.7884  0.6264 -1.6380
12288TIP3    H258356   1.015   0.809  14.649  0.4095  0.2113 -1.1653
12289TIP3   OH258357   3.199   6.137  11.382  0.1592  0.4879  0.0342
12289TIP3    H158358   3.235   6.111  11.297 -0.3510 -1.6182  0.4056
12289TIP3    H258359   3.247   6.084  11.446 -0.9024  0.5076  0.8760
12290TIP3   OH258360   2.255   1.330   4.173 -0.6258 -0.4966  0.3078
12290TIP3    H158361   2.260   1.248   4.223 -1.3808  0.4465  2.0202
12290TIP3    H258362   2.344   1.344   4.141 -0.1587 -1.2566  1.2136
12291TIP3   OH258363   4.705   1.871   3.480  0.5470  0.7553 -0.5362
12291TIP3    H158364   4.771   1.871   3.411  0.5131 -1.0772 -0.6234
12291TIP3    H258365   4.622   1.864   3.433  0.5254 -0.5109 -0.3466
12292TIP3   OH258366   3.548   2.304  16.352 -0.0648  0.0907 -0.3464
12292TIP3    H158367   3.598   2.285  16.431 -0.2073  0.1511 -0.2415
12292TIP3    H258368   3.572   2.234  16.291 -1.2003 -0.8931  0.3026
12293TIP3   OH258369   2.917   5.359  16.328 -0.3624 -0.1481  0.1279
12293TIP3    H158370   3.007   5.328  16.332  0.2124  1.2701 -1.0241
12293TIP3    H258371   2.905   5.388  16.237 -3.2371 -3.8987 -0.9847
12294TIP3   OH258372   3.419   0.062  15.172 -0.2587 -0.6657 -0.0545
12294TIP3    H158373   3.338   0.113  15.178 -0.2951 -0.2941 -2.7342
12294TIP3    H258374   3.487   0.121  15.206 -0.5886  0.4491 -1.2599
12295TIP3   OH258375   2.926   3.776   3.302  0.1160 -0.2544 -0.1265
12295TIP3    H158376   3.016   3.751   3.325 -0.7014 -1.9086  1.4214
12295TIP3    H258377   2.913   3.860   3.346  0.4348 -0.7179  0.8740
12296TIP3   OH258378   4.423   0.642  16.705 -0.3148  0.1990 -0.0618
12296TIP3    H158379   4.473   0.576  16.753  1.6997  2.4267  1.1090
12296TIP3    H258380   4.482   0.671  16.635  0.0318  2.6389  1.1370
12297TIP3   OH258381   2.760   0.291  15.997  0.5116 -0.4797  0.6956
12297TIP3    H158382   2.726   0.318  15.911  0.3240 -0.1498  0.8693
12297TIP3    H258383   2.847   0.258  15.979  0.1133 -1.3123  0.2436
12298TIP3   OH258384   2.359   6.393   4.208 -0.2834  0.0815 -0.4058
12298TIP3    H158385   2.352   6.488   4.221 -1.2889  0.0738 -0.7659
12298TIP3    H258386   2.410   6.384   4.127  0.7389  0.2823  0.2120
12299TIP3   OH258387   5.821   6.282   5.817  0.2132  0.0943 -0.5761
12299TIP3    H158388   5.766   6.255   5.743  1.4184 -0.6104 -1.2391
12299TIP3    H258389   5.890   6.217   5.821  0.9063  0.8580  0.3601
12300TIP3   OH258390   1.748   1.484   5.389  0.4573  0.0583  0.4153
12300TIP3    H158391   1.791   1.421   5.447 -0.2552  0.3452  1.2687
12300TIP3    H258392   1.734   1.435   5.308  0.4459 -0.7094  0.8674
12301TIP3   OH258393   4.506   4.826  11.143  0.1426  0.5891 -0.1004
12301TIP3    H158394   4.426   4.812  11.194 -0.0920 -1.1154 -0.8428
12301TIP3    H258395   4.516   4.921  11.138  0.4040  0.8852  3.4291
12302TIP3   OH258396   5.585   2.506  12.260  0.0429 -0.0053 -0.8042
12302TIP3    H158397   5.556   2.416  12.249  0.0409 -0.1636  0.4369
12302TIP3    H258398   5.619   2.511  12.349 -1.0290  1.4975 -0.4213
12303TIP3   OH258399   6.732   1.090  12.253 -0.0802 -0.4193 -0.4384
12303TIP3    H158400   6.709   1.148  12.326  0.1902  1.0212 -1.4590
12303TIP3    H258401   6.707   1.139  12.174 -0.0452 -1.7916 -1.3383
12304TIP3   OH258402   5.897   5.555   5.717 -0.0367  0.2447  0.4791
12304TIP3    H158403   5.837   5.511   5.777 -0.2061 -1.3779 -0.7756
12304TIP3    H258404   5.840   5.595   5.651  0.1898  0.6857  0.5488
12305TIP3   OH258405   4.594   6.817   2.813 -0.3669  0.0001 -0.1119
12305TIP3    H158406   4.531   6.769   2.867 -1.4226  3.0666  1.6274
12305TIP3    H258407   4.640   6.874   2.875  0.5001  1.5213 -2.0462
12306TIP3   OH258408   5.085   0.223  14.198  0.0944  0.1000  0.6994
12306TIP3    H158409   5.133   0.290  14.247  0.1768 -0.6818  1.7131
12306TIP3    H258410   5.145   0.149  14.195 -0.4298 -0.3203  0.5535
12307TIP3   OH258411   3.548   2.029   1.329 -0.5342  1.0963 -0.2640
12307TIP3    H158412   3.574   2.098   1.389 -0.8882 -0.0597  1.2677
12307TIP3    H258413   3.626   1.974   1.319 -0.9348  0.3495  0.5102
12308TIP3   OH258414   4.650   4.218   3.745  0.1677 -0.2881  0.2189
12308TIP3    H158415   4.683   4.211   3.835  3.3656 -0.8664 -0.8586
12308TIP3    H258416   4.702   4.289   3.707  0.2060 -1.2600 -1.6540
12309TIP3   OH258417   2.151   0.225  10.668  0.4011  0.6587 -0.4813
12309TIP3    H158418   2.154   0.243  10.762  1.9049  1.7414 -0.7162
12309TIP3    H258419   2.158   0.129  10.662  0.0416  0.5563  0.5013
12310TIP3   OH258420   3.487   5.829   3.412 -0.5733 -0.0924 -0.8116
12310TIP3    H158421   3.523   5.767   3.349 -0.2796 -0.5225 -0.2246
12310TIP3    H258422   3.525   5.803   3.496 -0.7521  0.6420 -0.4990
12311TIP3   OH258423   6.477   2.302   1.824  0.6337  0.4406  0.0515
12311TIP3    H158424   6.497   2.254   1.743  0.1233  0.0821  0.1294
12311TIP3    H258425   6.539   2.267   1.888 -1.3927 -2.0791  0.8003
12312TIP3   OH258426   1.503   5.176  16.674  0.1989 -0.9029  0.0934
12312TIP3    H158427   1.512   5.081  16.679 -0.7489 -0.9924  0.2658
12312TIP3    H258428   1.440   5.190  16.604  0.6655 -0.3725 -0.2330
12313TIP3   OH258429   0.288   4.203   2.674 -0.0957 -0.3476  0.4394
12313TIP3    H158430   0.296   4.146   2.598 -2.4344 -2.0892  1.3772
12313TIP3    H258431   0.205   4.178   2.714  0.9616  0.6156  3.4994
12314TIP3   OH258432   5.586   4.362  14.790  0.1058 -0.4915  0.4448
12314TIP3    H158433   5.657   4.343  14.729 -1.0289 -0.5757 -0.8949
12314TIP3    H258434   5.510   4.316  14.753 -0.6210 -0.5186  1.9126
12315TIP3   OH258435   4.526   1.424   2.302  0.3024 -0.0273 -0.2834
12315TIP3    H158436   4.475   1.410   2.382 -0.9011  1.7396 -0.7022
12315TIP3    H258437   4.462   1.433   2.233  1.2506  0.5602 -1.1154
12316TIP3   OH258438   3.867   5.548   3.931  0.2808  0.5767  0.1956
12316TIP3    H158439   3.931   5.478   3.948 -0.2881 -0.1757 -0.6431
12316TIP3    H258440   3.796   5.504   3.884 -0.8425  1.4051  1.0696
12317TIP3   OH258441   3.558   2.864  13.409 -0.2877  0.2596  0.3630
12317TIP3    H158442   3.649   2.880  13.431 -0.0215 -0.7823  0.0928
12317TIP3    H258443   3.557   2.856  13.313 -0.3637 -1.2521  0.4554
12318TIP3   OH258444   1.530   3.547  15.231 -0.3945 -0.4608 -0.0260
12318TIP3    H158445   1.588   3.486  15.275 -1.1433 -1.4139 -0.3374
12318TIP3    H258446   1.577   3.573  15.152 -0.2696 -0.9930 -0.1273
12319TIP3   OH258447   2.903   3.105   2.474  0.5121 -0.2342  0.0697
12319TIP3    H158448   2.924   3.193   2.442  0.9929  0.1781  1.4348
12319TIP3    H258449   2.965   3.048   2.428  0.3560  0.1629 -0.6501
12320TIP3   OH258450   4.526   6.745  10.834  0.3622  0.3539  0.6084
12320TIP3    H158451   4.603   6.692  10.814  0.7447  0.8561  0.7233
12320TIP3    H258452   4.540   6.827  10.787 -1.2982 -0.4491 -1.4063
12321TIP3   OH258453   1.859   1.316  12.454 -0.0809 -0.4764  0.3436
12321TIP3    H158454   1.813   1.339  12.535 -4.4140 -0.9739 -1.6661
12321TIP3    H258455   1.842   1.222  12.443 -2.5797  0.1273 -2.5523
12322TIP3   OH258456   3.141   3.035  15.332  0.2740 -0.4386 -0.2222
12322TIP3    H158457   3.077   2.983  15.284  0.4803  0.0900 -1.0867
12322TIP3    H258458   3.150   3.115  15.282  0.7222  0.0070  0.5432
12323TIP3   OH258459   2.464   1.636   1.438 -0.6870  0.7763  0.0339
12323TIP3    H158460   2.374   1.638   1.405 -0.8286 -0.4313  0.3006
12323TIP3    H258461   2.514   1.594   1.367 -0.6592 -0.1516  0.5942
12324TIP3   OH258462   0.504   1.873  13.172  0.2014 -0.7288 -0.1274
12324TIP3    H158463   0.506   1.918  13.257 -1.2382 -1.9403  0.5984
12324TIP3    H258464   0.575   1.810  13.178 -0.1722 -1.1146  0.3763
12325TIP3   OH258465   3.492   6.258   0.283  0.3259 -0.4254 -0.5239
12325TIP3    H158466   3.547   6.180   0.273 -1.5199 -1.9418  0.3539
12325TIP3    H258467   3.461   6.276   0.194 -0.4858 -1.7167 -0.5301
12326TIP3   OH258468   2.117   3.198  13.299 -0.3805 -0.4581 -0.1479
12326TIP3    H158469   2.032   3.169  13.334 -0.3071 -0.4556  0.0346
12326TIP3    H258470   2.120   3.161  13.210 -1.0415  0.4452 -0.5611
12327TIP3   OH258471   2.627   3.288   1.140  0.3923 -0.5643 -0.0045
12327TIP3    H158472   2.615   3.349   1.212 -1.0924 -1.0338  0.1862
12327TIP3    H258473   2.640   3.344   1.063  1.7207 -0.0613  0.5509
12328TIP3   OH258474   6.584   0.421   3.205  0.0302 -0.4025  0.6737
12328TIP3    H158475   6.597   0.328   3.184  2.3744 -0.4401  1.9864
12328TIP3    H258476   6.587   0.466   3.120 -1.7672 -1.5157 -0.0504
12329TIP3   OH258477   4.194   0.747  13.640  0.3050  0.1205  0.0758
12329TIP3    H158478   4.150   0.755  13.725 -1.8119  1.1322 -1.0216
12329TIP3    H258479   4.136   0.691  13.588  1.3948 -0.2188 -0.8221
12330TIP3   OH258480   6.707   1.123  14.141 -0.1861 -0.0938 -0.3853
12330TIP3    H158481   6.668   1.038  14.117  0.3214  0.0493 -1.8202
12330TIP3    H258482   6.755   1.150  14.063  2.4418 -0.0399  1.1428
12331TIP3   OH258483   0.161   2.696   6.228  0.5059  0.5987  0.3782
12331TIP3    H158484   0.151   2.776   6.175 -0.0658  1.1074  1.2299
12331TIP3    H258485   0.239   2.713   6.281 -0.2163  1.0486  1.3211
12332TIP3   OH258486   4.989   5.773   5.387  0.0093 -0.3653 -0.0518
12332TIP3    H158487   4.921   5.706   5.374  0.2099 -0.3398 -1.3157
12332TIP3    H258488   4.956   5.826   5.460 -2.2829  0.7893 -1.7653
12333TIP3   OH258489   2.851   2.665   5.961  0.0427 -0.4836 -0.1705
12333TIP3    H158490   2.807   2.608   5.898 -0.5565 -1.2903  0.9344
12333TIP3    H258491   2.793   2.741   5.969 -0.2566 -0.7219 -0.0477
12334TIP3   OH258492   1.224   3.102   2.584  0.0284  0.6425 -0.2152
12334TIP3    H158493   1.229   3.156   2.505 -1.1388  0.4600 -0.4321
12334TIP3    H258494   1.265   3.156   2.652 -2.0142  2.3248 -0.1911
12335TIP3   OH258495   3.531   2.048   1.886  1.1127 -0.1792 -0.4952
12335TIP3    H158496   3.457   2.037   1.826  1.0297 -0.1396 -0.4006
12335TIP3    H258497   3.604   2.005   1.842  0.9427 -0.5451 -0.4231
12336TIP3   OH258498   5.929   1.914   3.568  0.0498 -0.1773 -0.1733
12336TIP3    H158499   6.002   1.951   3.618 -0.6782  1.9915 -0.6107
12336TIP3    H258500   5.970   1.872   3.492  0.8221  1.8802 -0.9462
12337TIP3   OH258501   5.263   1.566  16.159  0.0361 -0.3756  0.4234
12337TIP3    H158502   5.306   1.623  16.223  0.7340  0.3526 -0.6649
12337TIP3    H258503   5.222   1.626  16.097  0.9080 -1.0205 -0.8277
12338TIP3   OH258504   1.234   6.718   4.367  0.1275  0.3469 -0.6360
12338TIP3    H158505   1.171   6.785   4.393  0.2123 -0.0004  0.5373
12338TIP3    H258506   1.306   6.767   4.328  0.1349  0.9451  0.0987
12339TIP3   OH258507   5.189   4.733   3.497 -0.1482  1.0160  0.0919
12339TIP3    H158508   5.281   4.707   3.486 -0.1723  1.1798 -0.5936
12339TIP3    H258509   5.193   4.812   3.551  0.0021  0.2331  1.2501
12340TIP3   OH258510   5.931   0.023   1.579 -0.0381 -0.0166 -0.4596
12340TIP3    H158511   5.929  -0.013   1.491  0.6042  1.8896 -1.3040
12340TIP3    H258512   6.010   0.078   1.581 -1.6020  2.3896  0.2489
12341TIP3   OH258513   6.459   2.291  16.916  0.4423  0.5600 -0.2585
12341TIP3    H158514   6.387   2.307  16.856 -1.9537 -1.9285  1.7084
12341TIP3    H258515   6.518   2.233  16.868 -1.0840 -0.8499 -0.5251
12342TIP3   OH258516   3.487   1.990  15.498  0.1484 -0.1499 -0.1493
12342TIP3    H158517   3.426   2.043  15.446 -0.9797 -1.4846 -0.2391
12342TIP3    H258518   3.439   1.971  15.579  1.7784  1.6722  1.3261
12343TIP3   OH258519   2.699   4.388   2.404  0.3046 -0.7503  0.3241
12343TIP3    H158520   2.702   4.299   2.438  4.5930 -0.3691  1.4698
12343TIP3    H258521   2.716   4.444   2.480 -1.4699  1.0725 -0.5033
12344TIP3   OH258522   0.683   5.105   2.074 -0.3420  0.2538  0.0001
12344TIP3    H158523   0.735   5.185   2.064  0.7065 -0.4682 -0.5998
12344TIP3    H258524   0.629   5.121   2.151  1.6931  0.5759  1.4376
12345TIP3   OH258525   2.922   4.818  15.162 -0.4055 -0.0272  0.4217
12345TIP3    H158526   2.912   4.887  15.228 -1.4913 -0.5129  0.7911
12345TIP3    H258527   2.887   4.856  15.082 -1.0401 -0.1463  0.6353
12346TIP3   OH258528   6.472   2.343  15.069  0.3521  0.4061 -0.0242
12346TIP3    H158529   6.561   2.377  15.059  1.0442 -1.4572 -0.4667
12346TIP3    H258530   6.429   2.366  14.986  1.4455 -1.5219 -1.1965
12347TIP3   OH258531   6.802   4.688  11.209 -0.8736  0.0253  0.0440
12347TIP3    H158532   6.835   4.648  11.290 -0.6205  0.0992 -0.0202
12347TIP3    H258533   6.871   4.671  11.145 -2.1050 -2.1908 -0.8165
12348TIP3   OH258534   3.619   0.084   1.370 -0.2139 -0.5652  0.0590
12348TIP3    H158535   3.702   0.093   1.322 -0.6776  0.9750 -0.5170
12348TIP3    H258536   3.572   0.016   1.322  0.7966 -1.6614  0.5573
12349TIP3   OH258537   1.394   2.113  15.480  0.4310  0.0001  0.1014
12349TIP3    H158538   1.344   2.172  15.423  0.2204 -1.4515 -1.3014
12349TIP3    H258539   1.327   2.057  15.520  0.7619 -0.7413 -0.3547
12350TIP3   OH258540   0.461   2.536  11.355  0.3370 -0.3772  0.3571
12350TIP3    H158541   0.390   2.493  11.307 -0.3099  0.5202  0.4719
12350TIP3    H258542   0.424   2.621  11.379  2.4534  1.5010 -2.3494
12351TIP3   OH258543   5.837   0.064   4.492 -0.1485  0.7472  0.0679
12351TIP3    H158544   5.884   0.015   4.425  0.5240 -0.4308  1.3328
12351TIP3    H258545   5.905   0.093   4.553 -0.8489  0.8392  0.8298
12352TIP3   OH258546   5.077   5.414  14.842  0.0091 -0.6732 -0.2030
12352TIP3    H158547   4.984   5.422  14.863  0.4672 -3.1046  3.6929
12352TIP3    H258548   5.085   5.329  14.799  0.4878 -1.0217  0.5388
12353TIP3   OH258549   5.563   4.970  15.830  0.3271  0.0697  0.3427
12353TIP3    H158550   5.609   4.941  15.751  0.1841 -0.2357  0.3710
12353TIP3    H258551   5.489   5.022  15.798  0.4022  0.1391  0.2829
12354TIP3   OH258552   6.207   1.464   4.834  0.1668  0.0254  0.5994
12354TIP3    H158553   6.188   1.515   4.756  3.2109  0.4175  0.0238
12354TIP3    H258554   6.154   1.505   4.903 -0.8442  1.0907 -0.7582
12355TIP3   OH258555   0.371   5.755  11.712  0.3252  0.2210 -0.2143
12355TIP3    H158556   0.436   5.817  11.681  0.9446  1.2778  2.7882
12355TIP3    H258557   0.288   5.785  11.675  1.1154  0.5824 -1.7586
12356TIP3   OH258558   6.645   5.065  16.942 -0.4607  0.5797  0.1343
12356TIP3    H158559   6.559   5.078  16.902 -1.3624 -1.4658  1.2821
12356TIP3    H258560   6.685   4.995  16.891 -0.0901  0.5243  0.4967
12357TIP3   OH258561   0.232   2.831  15.260  0.1311  0.0399 -0.0922
12357TIP3    H158562   0.301   2.807  15.323 -0.3908 -0.2238  0.3835
12357TIP3    H258563   0.220   2.925  15.274 -2.3097 -0.5215  2.6245
12358TIP3   OH258564   1.436   2.612  15.888  0.3444  0.0533  0.1132
12358TIP3    H158565   1.417   2.519  15.882 -0.1996  0.2075 -0.6871
12358TIP3    H258566   1.352   2.655  15.870  0.8350  0.7135 -0.6489
12359TIP3   OH258567   3.692   0.562  13.184 -0.8021 -0.4483 -0.0655
12359TIP3    H158568   3.696   0.573  13.279  0.9153 -1.1785 -0.0147
12359TIP3    H258569   3.662   0.646  13.151 -0.5169  0.1163  1.0742
12360TIP3   OH258570   1.171   1.847  13.594 -0.3849 -0.1471  0.5526
12360TIP3    H158571   1.236   1.833  13.525 -0.4776 -0.5229  0.5402
12360TIP3    H258572   1.187   1.937  13.624 -0.1100 -0.1063  0.2899
12361TIP3   OH258573   3.071   1.437   1.392 -0.0895  0.0809  0.4666
12361TIP3    H158574   3.152   1.387   1.399 -0.3554 -0.2475  1.3206
12361TIP3    H258575   3.073   1.497   1.467 -0.8880 -0.3203  0.8321
12362TIP3   OH258576   5.857   0.918   3.356 -0.8683  0.4557 -0.1075
12362TIP3    H158577   5.941   0.922   3.400 -1.0015 -2.0462  0.4725
12362TIP3    H258578   5.847   1.005   3.316  1.4494  1.1609  0.7108
12363TIP3   OH258579   1.495   1.266   2.622  0.2737 -0.1581 -0.1219
12363TIP3    H158580   1.516   1.173   2.606 -0.3412 -0.3095 -0.0499
12363TIP3    H258581   1.563   1.314   2.574  1.9033 -0.6401  1.5622
12364TIP3   OH258582   2.790   5.640  17.190  0.0309  0.2501 -0.2274
12364TIP3    H158583   2.737   5.562  17.211  0.1221 -0.1399 -1.3766
12364TIP3    H258584   2.773   5.700  17.262  0.1655 -0.9350  0.8354
12365TIP3   OH258585   5.081   1.342  12.508 -0.0266  0.0110 -0.0367
12365TIP3    H158586   5.105   1.328  12.600 -0.4102 -1.2543 -0.1088
12365TIP3    H258587   5.041   1.429  12.507 -2.1731 -0.8634  1.4700
12366TIP3   OH258588   1.233   5.459  14.988  0.0782  0.0070  0.0143
12366TIP3    H158589   1.307   5.504  15.029 -0.4591  1.4022 -0.4605
12366TIP3    H258590   1.158   5.517  15.004 -1.1789 -1.8582  1.4078
12367TIP3   OH258591   2.276   0.947  14.644 -0.0429 -0.8030 -0.2236
12367TIP3    H158592   2.325   0.870  14.672  1.8547 -0.2663 -1.8308
12367TIP3    H258593   2.232   0.918  14.564  0.0864 -0.4224 -0.4320
12368TIP3   OH258594   5.608   5.372   1.536 -0.4046  0.0939  0.5855
12368TIP3    H158595   5.674   5.441   1.535 -1.0004  0.6879  1.1858
12368TIP3    H258596   5.657   5.292   1.516  0.5988  0.4443  1.4901
12369TIP3   OH258597   0.390   4.813   0.848  0.1143 -0.1131  0.1906
12369TIP3    H158598   0.443   4.773   0.917  0.0598  0.1312  0.3704
12369TIP3    H258599   0.318   4.751   0.835 -0.0394 -0.0136  0.5577
12370TIP3   OH258600   0.561   0.437   5.997  0.1277  0.6440  0.0217
12370TIP3    H158601   0.476   0.464   6.032 -0.1338  1.0660 -0.9108
12370TIP3    H258602   0.624   0.466   6.063 -0.5471 -1.2886  1.6318
12371TIP3   OH258603   2.873   3.337   4.008  0.3299  0.0473 -0.4866
12371TIP3    H158604   2.847   3.333   4.100 -1.1652 -0.7372 -0.9136
12371TIP3    H258605   2.798   3.375   3.962  1.4806  1.4850 -1.2605
12372TIP3   OH258606   5.448   1.934  16.573  0.2408  0.2603 -0.1997
12372TIP3    H158607   5.512   2.005  16.576  0.7800 -0.2298  1.6441
12372TIP3    H258608   5.389   1.952  16.646  0.2317 -1.0247  0.1382
12373TIP3   OH258609   1.320   2.938   5.280  0.1645  0.3413 -0.0163
12373TIP3    H158610   1.287   2.986   5.204  0.2378  0.3209 -0.0617
12373TIP3    H258611   1.369   3.003   5.330 -0.6819  0.5790  0.5109
12374TIP3   OH258612   4.682   4.582   2.397 -0.0523 -0.1236  0.4362
12374TIP3    H158613   4.647   4.599   2.310  0.2094  0.4688  0.4395
12374TIP3    H258614   4.652   4.494   2.419 -2.3717  0.7109  0.8507
12375TIP3   OH258615   5.938   2.880  15.737 -0.4183  0.1079  0.9157
12375TIP3    H158616   5.877   2.808  15.721  2.1050 -2.2089  0.9403
12375TIP3    H258617   5.980   2.894  15.653 -0.5897  1.3043  1.0188
12376TIP3   OH258618   3.440   0.631  10.298  1.1247 -0.4674 -0.1575
12376TIP3    H158619   3.430   0.652  10.391 -0.2105  0.5388 -0.5046
12376TIP3    H258620   3.434   0.716  10.253  0.5035 -1.0696 -1.2548
12377TIP3   OH258621   4.086   2.856   4.582  0.4865  0.2811  0.0747
12377TIP3    H158622   4.136   2.791   4.631 -2.0006 -1.9931 -0.1460
12377TIP3    H258623   4.063   2.812   4.500 -2.5692  0.7604  0.5580
12378TIP3   OH258624   6.517   1.426  17.134  0.7899  0.4849 -0.1985
12378TIP3    H158625   6.435   1.411  17.088  0.3980  1.0384  0.3014
12378TIP3    H258626   6.493   1.481  17.209  1.7454  1.3544 -0.5069
12379TIP3   OH258627   3.214   3.804   1.457  0.2152 -0.5564 -0.1631
12379TIP3    H158628   3.194   3.859   1.381 -3.1070 -0.4192  0.6594
12379TIP3    H258629   3.193   3.715   1.430 -0.0433 -0.6390  0.2895
12380TIP3   OH258630   2.109   0.205  16.302  0.0141 -0.3723 -0.3840
12380TIP3    H158631   2.086   0.115  16.324  0.0329 -0.2810  0.0343
12380TIP3    H258632   2.054   0.258  16.360  0.8154 -0.1400  0.1988
12381TIP3   OH258633   1.920   2.239   1.867  0.0785  0.0179  0.2430
12381TIP3    H158634   1.923   2.288   1.785 -3.2799  0.4024  0.2022
12381TIP3    H258635   1.907   2.306   1.935 -1.0780 -0.5165  0.5833
12382TIP3   OH258636   1.672   6.791   0.446  0.0691 -0.1651  0.2980
12382TIP3    H158637   1.741   6.818   0.386 -0.1180  1.7184  0.8369
12382TIP3    H258638   1.605   6.751   0.391 -0.8161  2.8996 -1.1006
12383TIP3   OH258639   1.914   5.530   1.231  0.0778  0.1350 -0.0206
12383TIP3    H158640   1.956   5.611   1.202  1.1067 -0.1828  0.5155
12383TIP3    H258641   1.934   5.526   1.325  0.5998 -1.0618 -0.1660
12384TIP3   OH258642   1.041   1.058   1.754  0.1856  0.0388 -0.5139
12384TIP3    H158643   1.021   0.993   1.686 -2.3608 -0.1715  0.3145
12384TIP3    H258644   1.022   1.142   1.714  0.3737  0.0397 -0.6005
12385TIP3   OH258645   4.483   0.501  16.370  0.4413 -0.2145  0.9063
12385TIP3    H158646   4.393   0.531  16.385  0.3448  0.2761 -0.5174
12385TIP3    H258647   4.513   0.472  16.456 -0.8712  0.1701  1.5229
12386TIP3   OH258648   3.868   4.492   5.633  0.3559 -0.6511 -0.1409
12386TIP3    H158649   3.802   4.546   5.675  0.8822 -2.4224  3.4179
12386TIP3    H258650   3.821   4.414   5.604  0.5468 -1.2232  0.9957
12387TIP3   OH258651   2.424   1.552   5.367 -0.2537  0.2953  0.0353
12387TIP3    H158652   2.331   1.549   5.342 -0.7860  0.8894  1.8168
12387TIP3    H258653   2.433   1.484   5.434  0.6816  0.0791 -0.2924
12388TIP3   OH258654   4.364   4.859   2.089 -0.1909  0.4309  0.0228
12388TIP3    H158655   4.402   4.894   2.169  1.1705  0.4181 -0.5907
12388TIP3    H258656   4.373   4.929   2.025 -2.3338  0.8809  0.1304
12389TIP3   OH258657   4.984   2.888   1.931  0.5877 -0.0782  0.4431
12389TIP3    H158658   5.077   2.897   1.949  0.4095  2.6944  0.4117
12389TIP3    H258659   4.946   2.853   2.012  1.4802 -0.1883  0.8190
12390TIP3   OH258660   3.644   0.313   5.623  0.4486 -0.4027 -0.1917
12390TIP3    H158661   3.619   0.402   5.597 -0.3180 -0.8953 -1.1998
12390TIP3    H258662   3.715   0.290   5.563 -0.7129 -1.2038 -1.3093
12391TIP3   OH258663   5.588   3.010  13.072  0.6659  0.1675  0.2334
12391TIP3    H158664   5.583   2.977  12.982 -2.3172 -1.3960  0.8359
12391TIP3    H258665   5.537   3.091  13.070  0.9144  0.3244  0.4254
12392TIP3   OH258666   5.293   5.951  10.400  0.0610 -0.1446  0.0845
12392TIP3    H158667   5.328   5.862  10.405 -0.7457 -0.4382  0.7302
12392TIP3    H258668   5.233   5.958  10.474 -0.8698  0.5042 -0.7051
12393TIP3   OH258669   0.013   3.870   0.962  0.3007  0.1988 -0.5884
12393TIP3    H158670   0.026   3.949   1.014 -0.7888  0.6855 -1.0170
12393TIP3    H258671   0.043   3.894   0.874 -0.0366  0.1459 -0.7205
12394TIP3   OH258672   2.603   5.437  16.989 -0.6084  0.0779 -0.5580
12394TIP3    H158673   2.568   5.402  16.907 -0.1082 -0.6116 -0.4867
12394TIP3    H258674   2.697   5.446  16.973 -0.5381  0.1289 -0.1259
12395TIP3   OH258675   1.103   5.247   2.339  0.0698  0.1581 -0.2059
12395TIP3    H158676   1.025   5.199   2.314 -0.5704  0.9310  0.2554
12395TIP3    H258677   1.160   5.181   2.380 -0.8486 -0.1867  0.5587
12396TIP3   OH258678   2.804   6.651  13.081 -0.1354  1.1992  0.1638
12396TIP3    H158679   2.772   6.628  12.994  0.7587  0.8021 -0.0740
12396TIP3    H258680   2.728   6.641  13.138 -1.2244  3.2635 -0.8300
12397TIP3   OH258681   1.242   0.428  12.967 -0.2362 -0.8644  0.1701
12397TIP3    H158682   1.169   0.418  13.029 -0.7987 -1.0858 -0.5233
12397TIP3    H258683   1.283   0.342  12.964  0.1003 -0.7252  0.6025
12398TIP3   OH258684   6.078   6.074   1.531  0.1912  0.5250  0.2631
12398TIP3    H158685   6.090   6.111   1.443 -0.8297 -1.5871 -0.8429
12398TIP3    H258686   5.985   6.051   1.534  0.2775  0.3252  1.8004
12399TIP3   OH258687   2.195   5.060  16.127 -0.1006  0.3424 -0.3593
12399TIP3    H158688   2.228   4.970  16.128 -0.0136  0.2616 -3.2042
12399TIP3    H258689   2.263   5.111  16.172  0.2432 -0.8497  0.5457
12400TIP3   OH258690   6.305   3.736  13.731 -0.1050  0.1626  0.3893
12400TIP3    H158691   6.371   3.699  13.790  0.0657  1.7879  1.2899
12400TIP3    H258692   6.353   3.761  13.653  0.2737  0.8335  0.8245
12401TIP3   OH258693   6.458   4.220  12.872  0.6021 -0.0220 -0.3504
12401TIP3    H158694   6.392   4.185  12.932  0.0112  0.7563 -0.5286
12401TIP3    H258695   6.447   4.170  12.791  2.3311 -2.0601  0.5707
12402TIP3   OH258696   1.410   6.551  11.169  0.0878 -0.2716 -0.2128
12402TIP3    H158697   1.464   6.550  11.090 -0.6409  0.5711 -0.7298
12402TIP3    H258698   1.366   6.466  11.169 -1.0476  0.2760 -1.5317
12403TIP3   OH258699   2.205   0.428  14.215 -0.4425  0.1889 -0.1899
12403TIP3    H158700   2.146   0.427  14.141  0.6158  2.2674 -1.1306
12403TIP3    H258701   2.202   0.518  14.248  3.7419  1.1347 -1.6965
12404TIP3   OH258702   4.002   1.765  11.864 -0.3961 -0.2315 -0.6056
12404TIP3    H158703   3.965   1.677  11.862 -2.4840  0.5242  0.7269
12404TIP3    H258704   3.959   1.810  11.791  0.1698 -0.1488 -0.8876
12405TIP3   OH258705   4.573   6.035  15.447 -0.2747  0.1866  0.5678
12405TIP3    H158706   4.513   6.110  15.450  1.0116  1.2828  0.0774
12405TIP3    H258707   4.614   6.034  15.533 -0.3662 -0.0302  0.6097
12406TIP3   OH258708   5.396   2.809  16.195  0.9196  0.0155 -0.4453
12406TIP3    H158709   5.388   2.724  16.151  0.7322  0.0985 -0.5752
12406TIP3    H258710   5.429   2.788  16.282 -2.2689 -0.5900  0.7837
12407TIP3   OH258711   6.734   1.462   1.765 -0.0641  0.8611  0.1205
12407TIP3    H158712   6.821   1.476   1.804 -0.9291 -0.2839  2.7213
12407TIP3    H258713   6.752   1.431   1.677  2.2225  0.0270  0.7885
12408TIP3   OH258714   6.644   2.461   1.378  0.1611 -0.0861  0.8013
12408TIP3    H158715   6.736   2.470   1.402  0.5265 -1.5121  0.0330
12408TIP3    H258716   6.632   2.523   1.306  0.6929 -0.3877  0.4516
12409TIP3   OH258717   5.151   2.578   4.433  0.3263  0.4439  0.2193
12409TIP3    H158718   5.068   2.600   4.392  0.4306  0.7314  0.1573
12409TIP3    H258719   5.191   2.513   4.375  1.3692  2.2676 -1.2235
12410TIP3   OH258720   5.613   3.211  11.463  0.3303  0.6905 -0.1273
12410TIP3    H158721   5.672   3.161  11.406 -1.4223 -1.7104  0.0368
12410TIP3    H258722   5.621   3.168  11.549  1.1713  2.7877  0.9084
12411TIP3   OH258723   1.231   6.419   2.750  0.1795 -0.4553  0.5562
12411TIP3    H158724   1.273   6.433   2.666  0.5799  2.4835  1.1544
12411TIP3    H258725   1.160   6.358   2.732  0.5840 -0.3012 -1.7726
12412TIP3   OH258726   3.477   3.776   5.097 -0.3794  0.5965  0.0059
12412TIP3    H158727   3.568   3.770   5.067  0.5988  1.9653  2.4218
12412TIP3    H258728   3.477   3.734   5.182 -1.6785  1.8176  0.6436
12413TIP3   OH258729   2.998   4.594  10.596 -0.2286  0.5951 -0.1670
12413TIP3    H158730   2.963   4.512  10.632  0.4544  0.5725  0.4795
12413TIP3    H258731   2.986   4.658  10.666  0.3505  0.7566 -0.2103
12414TIP3   OH258732   3.686   6.771   3.503 -0.0374  0.3252  0.2536
12414TIP3    H158733   3.726   6.689   3.474 -0.8315  0.5061 -1.5593
12414TIP3    H258734   3.594   6.763   3.477 -0.5884  1.0070  1.8511
12415TIP3   OH258735   5.605   2.658   3.719  0.6259 -0.1819  0.0014
12415TIP3    H158736   5.682   2.675   3.773  1.9130  0.4396 -1.9391
12415TIP3    H258737   5.587   2.741   3.674 -2.9431  0.5955  2.4011
12416TIP3   OH258738   5.445   4.635  11.861 -0.0012  0.0840 -0.3682
12416TIP3    H158739   5.404   4.652  11.775 -1.3360 -0.8877  0.0414
12416TIP3    H258740   5.391   4.565  11.899  2.0356 -1.2217  0.2527
12417TIP3   OH258741   2.830   0.981   2.159  0.0534  0.5053  0.6020
12417TIP3    H158742   2.784   0.907   2.118  1.7746 -0.3033  0.0245
12417TIP3    H258743   2.853   1.038   2.086  0.8198  0.3969  0.7559
12418TIP3   OH258744   4.844   5.720  11.149  0.0397 -0.1144 -0.0920
12418TIP3    H158745   4.886   5.654  11.095  0.7989 -0.5588  1.0097
12418TIP3    H258746   4.896   5.799  11.135 -0.6537  0.1835 -1.1306
12419TIP3   OH258747   0.152   2.592  14.243 -0.0174 -0.3781  0.1414
12419TIP3    H158748   0.075   2.644  14.264  0.6084  1.3817 -1.6361
12419TIP3    H258749   0.118   2.516  14.196 -0.6575  0.6642 -1.1160
12420TIP3   OH258750   5.695   1.779  11.831 -0.2137 -0.1630 -0.1142
12420TIP3    H158751   5.734   1.855  11.788 -0.1934 -0.8111 -1.3032
12420TIP3    H258752   5.610   1.769  11.788 -1.2795  0.6027  1.7026
12421TIP3   OH258753   6.200   0.337   0.027 -0.4869 -0.5145  0.4084
12421TIP3    H158754   6.161   0.383  -0.047 -1.3450  0.8864  1.6742
12421TIP3    H258755   6.204   0.245  -0.001 -1.6620 -0.1682 -0.9960
12422TIP3   OH258756   5.593   1.500  16.348  0.6262 -0.0242  0.0390
12422TIP3    H158757   5.555   1.459  16.270  1.6817 -0.3280 -0.3283
12422TIP3    H258758   5.685   1.473  16.347  0.9746  1.0712  0.6516
12423TIP3   OH258759   2.050   0.864  13.622 -0.3818 -0.4000 -0.0211
12423TIP3    H158760   2.117   0.915  13.668 -0.4270 -0.4130  0.0577
12423TIP3    H258761   2.094   0.782  13.601  0.2826  0.3422 -1.7311
12424TIP3   OH258762   6.600   3.791  12.274  0.1199  0.1127  0.8633
12424TIP3    H158763   6.647   3.758  12.198 -0.1898  0.3892  0.5482
12424TIP3    H258764   6.517   3.743  12.275 -0.5346  1.1755  0.1292
12425TIP3   OH258765   0.717   3.341  14.556 -0.1287  0.1243 -0.2230
12425TIP3    H158766   0.750   3.403  14.621 -0.9377  0.1252  0.1938
12425TIP3    H258767   0.789   3.279  14.544 -0.2075 -0.2697  1.1784
12426TIP3   OH258768   5.665   0.253   0.988  0.4997 -1.0044 -0.4736
12426TIP3    H158769   5.647   0.267   0.895 -0.0748 -1.8182 -0.4948
12426TIP3    H258770   5.738   0.312   1.007 -0.3943  0.3413 -1.0500
12427TIP3   OH258771   4.896   5.018   5.428  0.1226 -0.1768 -0.2931
12427TIP3    H158772   4.834   5.022   5.355 -0.7321 -1.5486  0.3143
12427TIP3    H258773   4.938   4.933   5.419  1.6923  0.5784 -0.4734
12428TIP3   OH258774   3.923   2.374   3.445 -0.1434  0.4918  0.1120
12428TIP3    H158775   4.017   2.357   3.444 -0.0957  0.7911 -0.3627
12428TIP3    H258776   3.914   2.455   3.495 -0.1479  0.4751  0.1383
12429TIP3   OH258777   1.721   6.293   4.332  0.0631 -0.5916 -0.1539
12429TIP3    H158778   1.729   6.278   4.427 -3.3925 -0.0209  0.3316
12429TIP3    H258779   1.696   6.385   4.325 -0.3810 -0.8112 -1.6081
12430TIP3   OH258780   3.374   5.972   1.935 -0.0747 -0.1412  0.0779
12430TIP3    H158781   3.294   5.989   1.985 -0.7472  0.4075 -1.1449
12430TIP3    H258782   3.344   5.939   1.851  0.8894  1.6085 -1.0225
12431TIP3   OH258783   0.281   5.131  12.463  0.5770 -0.9433 -0.5129
12431TIP3    H158784   0.244   5.101  12.380  0.0424 -1.1170 -0.2126
12431TIP3    H258785   0.370   5.095  12.463  1.2351  0.5554 -1.8223
12432TIP3   OH258786   4.676   4.768   4.230  0.6362  0.4139  0.8320
12432TIP3    H158787   4.660   4.778   4.136  1.3053  0.2340  0.6980
12432TIP3    H258788   4.599   4.808   4.271  0.5142  0.8307  0.2173
12433TIP3   OH258789   1.931   2.707  13.677 -0.3563 -0.6574 -0.3071
12433TIP3    H158790   1.975   2.646  13.618  2.0574 -0.9474  1.6123
12433TIP3    H258791   1.871   2.654  13.728 -1.0164 -0.7422 -1.1647
12434TIP3   OH258792   0.919   4.593  13.482 -0.4150 -0.0711  0.0643
12434TIP3    H158793   0.830   4.618  13.509 -0.9977 -0.1693 -1.6635
12434TIP3    H258794   0.973   4.614  13.558 -1.8515  0.3591  1.0203
12435TIP3   OH258795   2.988   2.687   4.587 -0.3167  0.3281 -0.1933
12435TIP3    H158796   2.967   2.689   4.494 -0.9442  1.5905 -0.0517
12435TIP3    H258797   3.069   2.638   4.593 -0.2560  0.2613 -1.4084
12436TIP3   OH258798   1.230   6.011   5.108 -0.3807  0.3473  0.7357
12436TIP3    H158799   1.273   6.094   5.090  1.1007 -0.3715  0.7300
12436TIP3    H258800   1.236   6.001   5.203  0.4343 -0.2308  0.6365
12437TIP3   OH258801   5.556   5.535  12.572 -0.3495 -0.1160 -0.6977
12437TIP3    H158802   5.516   5.620  12.588 -0.7272 -0.5210  0.5829
12437TIP3    H258803   5.568   5.496  12.659  2.9383  0.0064 -0.9404
12438TIP3   OH258804   1.574   6.459  15.301 -0.1529  0.0670  0.0139
12438TIP3    H158805   1.666   6.486  15.292  0.0440 -0.8582 -0.8837
12438TIP3    H258806   1.558   6.463  15.396  0.6835  0.6235  0.1480
12439TIP3   OH258807   4.106   1.539   6.116 -0.4072  0.4721 -0.1146
12439TIP3    H158808   4.011   1.523   6.111 -0.2543 -0.9633  0.9429
12439TIP3    H258809   4.145   1.467   6.067  0.1487  1.5183 -1.2695
12440TIP3   OH258810   4.565   1.682   1.685 -0.7869  0.3248 -0.4496
12440TIP3    H158811   4.654   1.693   1.650  0.0185 -2.6378  0.3591
12440TIP3    H258812   4.511   1.664   1.608 -0.1585 -0.4753 -0.7123
12441TIP3   OH258813   2.935   2.411   5.678  0.4807  0.3165  0.0922
12441TIP3    H158814   3.029   2.424   5.671  0.4868  1.2521  1.4062
12441TIP3    H258815   2.925   2.321   5.710  0.8930 -0.0027 -0.6728
12442TIP3   OH258816   5.735   0.158  13.479  0.5803  0.3587  0.4483
12442TIP3    H158817   5.709   0.193  13.564 -1.3273 -0.9057  0.4436
12442TIP3    H258818   5.655   0.158  13.427  1.2354 -0.8879 -0.6405
12443TIP3   OH258819   2.609   6.810  12.371 -0.0942 -0.7194  0.0225
12443TIP3    H158820   2.555   6.817  12.292 -0.1716 -2.6408 -0.1329
12443TIP3    H258821   2.547   6.825  12.443 -0.2387 -0.0270 -0.2380
12444TIP3   OH258822   3.085   6.630   5.771  0.0553 -0.3292 -0.4255
12444TIP3    H158823   3.090   6.580   5.852 -4.2112 -1.1900 -0.4426
12444TIP3    H258824   3.114   6.718   5.795 -1.4629 -0.4476  2.2293
12445TIP3   OH258825   3.342   5.565  10.695 -0.3771 -0.0055 -0.2037
12445TIP3    H158826   3.292   5.493  10.734 -1.1394 -0.0624 -1.2565
12445TIP3    H258827   3.340   5.634  10.762  2.0189 -1.5820  1.6491
12446TIP3   OH258828   3.530   6.203  13.986  0.7402 -0.1148 -0.2781
12446TIP3    H158829   3.530   6.282  13.932  0.8351 -0.8570 -1.4005
12446TIP3    H258830   3.620   6.196  14.018  1.3398 -0.9545 -2.0173
12447TIP3   OH258831   1.046   4.225  16.896 -0.5851  0.1074  0.1944
12447TIP3    H158832   1.121   4.167  16.884  1.7265  3.0836 -1.2114
12447TIP3    H258833   1.062   4.267  16.980 -0.7071  0.6781 -0.0618
12448TIP3   OH258834   0.354   6.535  14.248  0.2427  0.0558 -0.3048
12448TIP3    H158835   0.436   6.488  14.229 -0.5396 -1.0501 -1.0128
12448TIP3    H258836   0.331   6.578  14.166  0.1484  0.4501 -0.0762
12449TIP3   OH258837   4.835   3.246  14.832  0.0473 -0.0965 -0.1328
12449TIP3    H158838   4.756   3.300  14.826 -0.3090 -0.5585  0.2804
12449TIP3    H258839   4.864   3.234  14.741  1.4526  2.6695 -0.1604
12450TIP3   OH258840   2.583   5.066   1.245  0.4715 -0.2882 -0.0343
12450TIP3    H158841   2.630   5.148   1.232 -1.1511  0.9660  1.6276
12450TIP3    H258842   2.520   5.063   1.173  2.1325 -1.3681 -1.5395
12451TIP3   OH258843   2.522   2.028  13.092 -0.0009  0.4907  0.0685
12451TIP3    H158844   2.602   2.035  13.144  0.1505  2.5810 -0.3269
12451TIP3    H258845   2.451   2.036  13.156  0.1347  0.3195  0.2400
12452TIP3   OH258846   4.302   0.932   0.282 -0.0868 -0.9160 -0.1232
12452TIP3    H158847   4.310   1.026   0.301 -0.6429 -1.0149  0.6210
12452TIP3    H258848   4.257   0.929   0.198  1.1640 -0.5010 -0.8493
12453TIP3   OH258849   5.962   1.330  16.966  0.1106  0.5457 -0.5077
12453TIP3    H158850   5.993   1.418  16.989 -1.3933  0.5032  2.0917
12453TIP3    H258851   6.041   1.277  16.961  0.8737  1.5052  0.6511
12454TIP3   OH258852   5.841   2.833  14.210 -0.0241 -0.0138 -0.3502
12454TIP3    H158853   5.862   2.790  14.293  2.2317  0.5060 -0.5683
12454TIP3    H258854   5.838   2.926  14.231  1.6777  0.2256 -0.9773
12455TIP3   OH258855   2.697   2.646  15.786 -0.0529  0.4338  0.0600
12455TIP3    H158856   2.765   2.629  15.721 -2.7570 -1.9364 -2.4809
12455TIP3    H258857   2.663   2.733  15.763 -0.4105 -0.0219 -1.2383
12456TIP3   OH258858   0.223   4.970  16.410  0.1027  0.1081 -0.6391
12456TIP3    H158859   0.216   4.897  16.348 -0.6923  0.5841 -1.1250
12456TIP3    H258860   0.298   5.020  16.380  2.3730 -1.8940  1.2276
12457TIP3   OH258861   5.195   1.167  16.240 -0.0594  0.0726  0.2020
12457TIP3    H158862   5.118   1.111  16.245 -0.0360 -0.0676 -0.8345
12457TIP3    H258863   5.177   1.227  16.169  0.5210  0.4649  0.3743
12458TIP3   OH258864   4.897   3.981   6.224 -0.3918  0.1863  0.1382
12458TIP3    H158865   4.969   4.034   6.258  0.8816 -1.7660  0.6304
12458TIP3    H258866   4.905   3.897   6.270 -1.6070 -0.8561 -1.4619
12459TIP3   OH258867   5.444   1.836   5.928  0.6316  0.6302  0.0133
12459TIP3    H158868   5.477   1.795   6.008  1.3228  1.1520  0.0006
12459TIP3    H258869   5.479   1.925   5.930 -1.2123  1.3960  0.2709
12460TIP3   OH258870   6.367   2.943  12.762  0.1842  0.1190  0.1418
12460TIP3    H158871   6.461   2.952  12.744  0.1552 -0.1589 -0.1537
12460TIP3    H258872   6.327   3.018  12.718 -0.0294 -1.2329 -2.1164
12461TIP3   OH258873   2.154   0.723   0.100  0.0276 -0.2941 -0.4436
12461TIP3    H158874   2.247   0.714   0.083 -0.3080 -0.1234 -2.5842
12461TIP3    H258875   2.149   0.778   0.179  1.7193 -1.0825  0.2424
12462TIP3   OH258876   2.731   3.375   4.277 -0.0205  0.1987  0.2639
12462TIP3    H158877   2.686   3.293   4.299  0.2507  0.4764  2.0052
12462TIP3    H258878   2.687   3.441   4.329 -0.6758  1.3294 -1.6386
12463TIP3   OH258879   0.645   5.129  14.047  0.2318  0.0648 -0.2964
12463TIP3    H158880   0.555   5.114  14.077  0.9732 -1.0850  1.5072
12463TIP3    H258881   0.635   5.158  13.956 -1.9444 -0.1699 -0.1934
12464TIP3   OH258882   5.888   5.202  12.953  0.5204 -0.3998 -0.1906
12464TIP3    H158883   5.862   5.284  12.994 -1.1464 -1.2513  0.5521
12464TIP3    H258884   5.806   5.162  12.924  1.3875 -1.3234 -1.4908
12465TIP3   OH258885   3.817   0.089   3.198  0.0075  0.1351 -0.0988
12465TIP3    H158886   3.871   0.013   3.178  0.9070  1.1272 -1.6677
12465TIP3    H258887   3.833   0.107   3.290  0.5201 -0.9881  0.0406
12466TIP3   OH258888   2.479   0.889   0.687  0.3679 -0.4443 -0.0798
12466TIP3    H158889   2.566   0.888   0.646  0.0290 -2.2079 -0.8355
12466TIP3    H258890   2.495   0.925   0.775  1.6357  0.4572 -0.6469
12467TIP3   OH258891   5.583   6.751   5.511  0.1616  0.2644  1.3085
12467TIP3    H158892   5.673   6.748   5.544  0.7825 -0.2187 -0.3174
12467TIP3    H258893   5.550   6.662   5.525  1.3922 -0.8011 -1.7400
12468TIP3   OH258894   6.172   0.827  10.811 -0.2864  0.3774 -0.4529
12468TIP3    H158895   6.159   0.883  10.734 -4.1685  1.2466  0.6189
12468TIP3    H258896   6.115   0.751  10.795  1.6421 -1.2632  0.0506
12469TIP3   OH258897   2.935   1.827   5.441 -0.0574 -0.1916 -0.0227
12469TIP3    H158898   2.937   1.779   5.358  0.9399 -2.1125  1.0308
12469TIP3    H258899   2.967   1.764   5.506 -2.2837  0.6971  2.1187
12470TIP3   OH258900   6.632   5.984  10.438  0.5662 -0.4212  0.3677
12470TIP3    H158901   6.596   6.044  10.374  1.4471  1.2826  1.4118
12470TIP3    H258902   6.559   5.925  10.459 -0.1570 -0.0728 -1.0703
12471TIP3   OH258903   1.095   5.544   1.811 -0.1584 -0.4945  0.4112
12471TIP3    H158904   1.105   5.451   1.789 -0.3452 -0.1600 -1.2437
12471TIP3    H258905   1.181   5.570   1.842  0.4929 -0.7862 -1.0318
12472TIP3   OH258906   2.958   1.175  13.053  0.5623  0.0190  0.0212
12472TIP3    H158907   2.880   1.201  13.004 -0.2982  0.0100  1.3205
12472TIP3    H258908   2.925   1.151  13.140  1.9516 -0.5315  0.4326
12473TIP3   OH258909   0.693   2.899  15.296 -0.2981 -0.1388 -0.1647
12473TIP3    H158910   0.710   2.879  15.204 -0.0105  0.6305 -0.2941
12473TIP3    H258911   0.761   2.852  15.344  2.3610  2.8289 -0.6694
12474TIP3   OH258912   4.057   3.422   5.747  0.0557 -0.2543  0.0085
12474TIP3    H158913   4.085   3.356   5.683  0.3327 -0.5002  0.3760
12474TIP3    H258914   4.109   3.499   5.725 -0.7304  0.0536 -0.8268
12475TIP3   OH258915   0.788   3.918  13.154  0.6710  0.1924  0.5124
12475TIP3    H158916   0.747   3.875  13.079  0.3722  0.3341  0.5973
12475TIP3    H258917   0.783   4.011  13.134 -0.0289  0.2679  1.0315
12476TIP3   OH258918   6.317   5.677  12.254  0.1666  0.2228  0.0588
12476TIP3    H158919   6.405   5.694  12.288  0.3137  1.9217 -1.0368
12476TIP3    H258920   6.330   5.673  12.159 -0.9021  0.1540 -0.0874
12477TIP3   OH258921   2.384   3.879  12.019  0.5259  0.2020  0.4928
12477TIP3    H158922   2.379   3.956  12.075  3.1010  0.2771  0.7066
12477TIP3    H258923   2.383   3.915  11.930 -2.5831  0.1371  0.3923
12478TIP3   OH258924   0.913   5.196   3.100  0.4835 -0.4523 -0.1540
12478TIP3    H158925   0.990   5.139   3.100  2.0987  1.5985  0.3815
12478TIP3    H258926   0.904   5.223   3.008  0.4924 -0.5949 -0.1969
12479TIP3   OH258927   4.614   1.579  16.649  0.3435 -0.0058  0.0580
12479TIP3    H158928   4.606   1.485  16.667 -1.6254 -0.1883 -1.4757
12479TIP3    H258929   4.668   1.612  16.721  0.5989 -2.1925  0.9622
12480TIP3   OH258930   3.871   2.558   0.487 -0.2146  0.1896  0.0387
12480TIP3    H158931   3.905   2.600   0.565 -1.0532 -1.3634  1.3126
12480TIP3    H258932   3.926   2.480   0.476 -0.6940 -0.1052 -0.3325
12481TIP3   OH258933   1.162   6.083   0.001 -0.0833 -0.7198  0.3720
12481TIP3    H158934   1.191   6.135  -0.074 -0.1311 -1.1446  0.0497
12481TIP3    H258935   1.228   6.013   0.008  0.6648  0.0632  1.5596
12482TIP3   OH258936   5.975   1.626  12.425 -0.1134 -0.1506 -0.3457
12482TIP3    H158937   5.969   1.718  12.397 -0.2447  0.5371  1.7807
12482TIP3    H258938   6.067   1.613  12.444  0.2602 -1.1052 -2.4721
12483TIP3   OH258939   5.127   0.067   1.077  0.4626 -0.0646  0.0468
12483TIP3    H158940   5.148   0.038   0.988 -0.0488 -0.5580  0.0810
12483TIP3    H258941   5.174   0.150   1.087 -0.4407  0.6186 -1.1240
12484TIP3   OH258942   1.849   3.241  11.446 -0.6216 -0.3835  0.1311
12484TIP3    H158943   1.776   3.187  11.475  0.5838 -1.7521  0.7468
12484TIP3    H258944   1.926   3.202  11.488  0.4142  1.3009 -0.1081
12485TIP3   OH258945   1.926   4.157  15.480 -0.0136  0.0502 -0.0010
12485TIP3    H158946   1.939   4.233  15.423  0.0545  0.4791  0.5626
12485TIP3    H258947   2.012   4.115  15.485 -0.2987 -0.7016 -1.1742
12486TIP3   OH258948   4.887   5.533  16.190 -0.9622 -0.1860 -0.1509
12486TIP3    H158949   4.932   5.457  16.227  0.4316  1.4487  1.7862
12486TIP3    H258950   4.927   5.544  16.103  1.5506  0.3925  0.9725
12487TIP3   OH258951   3.853   5.576  15.883  0.1349  0.4204  0.3296
12487TIP3    H158952   3.851   5.491  15.928  0.0827  0.0132 -0.4177
12487TIP3    H258953   3.851   5.553  15.789  1.2263  1.2016  0.0990
12488TIP3   OH258954   5.831   3.880   4.757  0.2747  0.4352  0.1841
12488TIP3    H158955   5.870   3.862   4.842  3.9722  0.3998 -1.3405
12488TIP3    H258956   5.797   3.795   4.728 -0.8449  0.4133  1.4893
12489TIP3   OH258957   5.545   2.042  11.959  0.9936  0.1207  0.0329
12489TIP3    H158958   5.597   2.115  11.991  0.6140  0.0108  0.9430
12489TIP3    H258959   5.522   1.993  12.038  0.2158 -0.2941 -0.4372
12490TIP3   OH258960   4.604   2.651   2.245 -0.2431  0.5774  0.3800
12490TIP3    H158961   4.668   2.707   2.201 -0.3127  1.0540  0.8825
12490TIP3    H258962   4.590   2.692   2.330 -0.0638 -0.3672  0.8791
12491TIP3   OH258963   5.072   6.033  13.812 -0.1731  0.2924 -0.1912
12491TIP3    H158964   5.080   6.085  13.732  1.1515  0.0532 -0.2284
12491TIP3    H258965   5.117   6.083  13.879  2.4844 -1.4175 -0.5591
12492TIP3   OH258966   2.716   1.947   2.085  0.3750 -0.0457 -0.4579
12492TIP3    H158967   2.810   1.958   2.070  0.5683  0.3299  0.8961
12492TIP3    H258968   2.676   2.016   2.032  0.8641 -0.1146 -0.9355
12493TIP3   OH258969   1.885   1.381  16.074  0.1838  0.7831  0.5363
12493TIP3    H158970   1.864   1.455  16.017  1.5560  0.3409 -0.6171
12493TIP3    H258971   1.960   1.339  16.032 -0.1961 -0.9310  1.4716
12494TIP3   OH258972   4.531   5.344   3.933 -0.5723  0.3507 -0.5810
12494TIP3    H158973   4.543   5.434   3.964  1.1228 -0.0356 -0.0340
12494TIP3    H258974   4.577   5.341   3.849 -0.9213  0.0805 -0.7661
12495TIP3   OH258975   1.737   5.179  13.705 -0.7427  0.1683 -0.3746
12495TIP3    H158976   1.823   5.212  13.678 -0.9182  1.0895  0.1569
12495TIP3    H258977   1.753   5.141  13.791 -0.8734  0.3492 -0.2718
12496TIP3   OH258978   1.621   4.518   0.126  0.1880 -0.0752  0.1819
12496TIP3    H158979   1.688   4.587   0.130 -1.0362  1.2146 -0.4420
12496TIP3    H258980   1.554   4.554   0.067 -0.7925 -1.5539  0.3516
12497TIP3   OH258981   2.005   5.513  11.275 -0.3867  0.2613 -0.2877
12497TIP3    H158982   1.969   5.595  11.240  0.2588  0.6378 -0.0784
12497TIP3    H258983   2.098   5.517  11.252  0.0488  0.4864  1.4068
12498TIP3   OH258984   3.443   6.746   4.576  0.2197  0.5299 -0.4991
12498TIP3    H158985   3.428   6.803   4.652 -0.5806  1.8236 -1.5816
12498TIP3    H258986   3.408   6.795   4.502 -1.3334 -1.7555 -1.3853
12499TIP3   OH258987   5.445   0.372   1.174 -0.4470 -0.5498 -0.4701
12499TIP3    H158988   5.481   0.369   1.263  0.0861 -1.6149 -0.7128
12499TIP3    H258989   5.491   0.304   1.127  0.0760  0.7330 -1.8948
12500TIP3   OH258990   4.883   0.337  16.608 -0.2645  0.6196 -0.1910
12500TIP3    H158991   4.949   0.361  16.542 -0.2148  0.3643 -0.2350
12500TIP3    H258992   4.932   0.286  16.672 -0.4746  0.2188 -0.3507
12501TIP3   OH258993   5.157   4.023   4.157 -1.0846 -0.0530 -0.1891
12501TIP3    H158994   5.244   4.061   4.156 -0.5112 -1.2183  1.3579
12501TIP3    H258995   5.114   4.063   4.232 -1.0155 -1.2275  0.5085
12502TIP3   OH258996   3.529   4.146   3.508 -0.6047  0.6916  0.1489
12502TIP3    H158997   3.605   4.152   3.566 -1.5224 -1.6504  1.7342
12502TIP3    H258998   3.458   4.186   3.559 -0.6592  2.1823 -1.0228
12503TIP3   OH258999   6.247   3.900   5.168 -0.2924 -0.3491 -0.1350
12503TIP3    H159000   6.284   3.835   5.229 -0.5163 -0.5009 -0.1584
12503TIP3    H259001   6.166   3.928   5.210  0.3045  0.6875  0.3769
12504TIP3   OH259002   0.935   2.560   3.253  0.3766 -0.0441  0.2026
12504TIP3    H159003   0.879   2.635   3.232 -0.2855 -1.0810 -2.0291
12504TIP3    H259004   0.873   2.491   3.276  0.6346 -1.2634 -2.4610
12505TIP3   OH259005   4.273   1.658  15.579  0.0563  0.2386  0.0137
12505TIP3    H159006   4.287   1.593  15.649  1.0890  0.1391 -0.2653
12505TIP3    H259007   4.179   1.656  15.563 -0.1964  0.2281  1.3721
12506TIP3   OH259008   5.238   2.047   4.280 -0.1698 -0.0071 -0.2206
12506TIP3    H159009   5.229   1.964   4.234 -2.1228  1.3281 -2.4785
12506TIP3    H259010   5.221   2.027   4.372  0.3561 -2.2096 -0.5593
12507TIP3   OH259011   6.755   4.918   5.166 -0.4456  0.6546 -0.4479
12507TIP3    H159012   6.661   4.898   5.163 -0.1353 -1.0719 -0.0167
12507TIP3    H259013   6.760   4.999   5.217 -1.6451  0.2462  0.3840
12508TIP3   OH259014   0.960   0.708  10.200  0.0032  0.4938  0.3665
12508TIP3    H159015   0.876   0.749  10.176 -1.0947 -1.6769  0.2773
12508TIP3    H259016   0.937   0.646  10.269  1.5312 -0.1884  0.2953
12509TIP3   OH259017   1.031   4.568  16.279  0.3378  0.1604 -0.2225
12509TIP3    H159018   1.026   4.481  16.240  0.5412  0.2308 -0.4046
12509TIP3    H259019   1.049   4.626  16.205 -1.8706  0.6362 -0.4716
12510TIP3   OH259020   1.762   2.735  14.382  0.2111  0.5232  0.4101
12510TIP3    H159021   1.845   2.782  14.374  1.6196 -1.7823  0.7526
12510TIP3    H259022   1.730   2.757  14.470  0.2827  1.6350  0.1761
12511TIP3   OH259023   3.582   0.963  16.911 -0.4448  0.3868  0.2786
12511TIP3    H159024   3.538   0.886  16.947  0.3738 -0.4990 -0.5354
12511TIP3    H259025   3.616   1.010  16.988 -1.0352 -0.0123  0.7881
12512TIP3   OH259026   0.728   5.048   6.118  0.7011 -0.5320 -0.1165
12512TIP3    H159027   0.716   5.099   6.199 -1.9338 -0.6786 -0.3202
12512TIP3    H259028   0.820   5.021   6.120  1.4931  1.9255  1.3500
12513TIP3   OH259029   6.819   1.623   5.369 -0.2826 -0.3686 -0.1302
12513TIP3    H159030   6.771   1.627   5.452  0.8304  2.0989  0.4860
12513TIP3    H259031   6.911   1.631   5.395  0.1180 -0.0970 -1.5772
12514TIP3   OH259032   0.607   3.606   5.668  0.1590  0.5688  0.3102
12514TIP3    H159033   0.644   3.566   5.746  0.9301  2.8005  1.1660
12514TIP3    H259034   0.518   3.631   5.693 -0.0043  0.2307  0.0771
12515TIP3   OH259035   5.221   0.496  15.565  0.3749  0.1745 -0.2888
12515TIP3    H159036   5.205   0.423  15.625 -1.3225  1.6244  1.1142
12515TIP3    H259037   5.134   0.530  15.544  1.0152  0.5959 -2.5017
12516TIP3   OH259038   2.571   1.080   0.879  0.4970 -0.3703 -0.0202
12516TIP3    H159039   2.598   1.137   0.807  1.3974  0.8216  1.2044
12516TIP3    H259040   2.495   1.124   0.917 -0.6033 -1.5113 -0.8082
12517TIP3   OH259041   1.963   3.454   0.094 -0.0310  0.0933  0.8116
12517TIP3    H159042   1.910   3.526   0.061  0.6582  0.2598  0.0169
12517TIP3    H259043   2.037   3.496   0.138  0.5207 -0.1157  0.1005
12518TIP3   OH259044   3.255   6.382  15.384 -0.7110 -0.1962 -0.0287
12518TIP3    H159045   3.225   6.473  15.378 -1.0717 -0.2530  0.7828
12518TIP3    H259046   3.311   6.370  15.307  1.3374  1.4767  1.0791
12519TIP3   OH259047   2.965   0.233  12.101  1.0303 -0.2071 -0.8819
12519TIP3    H159048   3.033   0.299  12.100  1.9192 -1.0988 -2.0758
12519TIP3    H259049   2.896   0.269  12.045 -0.3944  1.5220  1.7672
12520TIP3   OH259050   1.445   4.376  12.443  0.2613 -0.3355 -0.4749
12520TIP3    H159051   1.509   4.329  12.389  1.5009 -0.0919  0.7090
12520TIP3    H259052   1.451   4.466  12.413 -0.1609 -0.4644 -0.9488
12521TIP3   OH259053   0.797   0.854  12.282 -0.9392  0.4937  0.1729
12521TIP3    H159054   0.844   0.793  12.224 -1.0314 -0.0380  0.6544
12521TIP3    H259055   0.815   0.940  12.245  3.2364  0.7145  2.1460
12522TIP3   OH259056   4.441   0.071  12.055  0.1374  0.4175  0.3515
12522TIP3    H159057   4.469   0.119  12.132  0.2473  0.8952  0.0150
12522TIP3    H259058   4.392  -0.004  12.090  0.2048  0.6199  0.8810
12523TIP3   OH259059   3.765   2.830  11.370 -0.2352  0.0559 -0.3496
12523TIP3    H159060   3.792   2.772  11.299  1.7108 -1.1199  1.2398
12523TIP3    H259061   3.698   2.781  11.417 -0.0792 -0.0259 -0.2117
12524TIP3   OH259062   6.803   1.760  16.570  0.2449 -0.2753 -0.5305
12524TIP3    H159063   6.801   1.788  16.662  0.4604 -1.8537 -0.0189
12524TIP3    H259064   6.761   1.674  16.570 -1.2895  0.4088 -2.2070
12525TIP3   OH259065   5.418   3.404   2.627 -0.6703  0.1988 -0.1715
12525TIP3    H159066   5.388   3.326   2.581 -0.2776  0.2803 -0.5768
12525TIP3    H259067   5.338   3.447   2.656 -0.8888 -1.9403  2.8260
12526TIP3   OH259068   0.703   2.273  17.182 -0.4676 -0.4447  0.2941
12526TIP3    H159069   0.649   2.206  17.223  0.7322 -0.2838  2.2475
12526TIP3    H259070   0.676   2.355  17.223 -0.1557 -0.0840 -0.2041
12527TIP3   OH259071   1.858   5.400   5.654 -0.0632  0.1481 -0.1378
12527TIP3    H159072   1.782   5.407   5.712  1.6446 -0.6285  2.3306
12527TIP3    H259073   1.921   5.462   5.690  0.1614  1.6808 -2.8660
12528TIP3   OH259074   1.170   0.761   4.307  0.0918  0.5479 -0.2776
12528TIP3    H159075   1.251   0.709   4.301 -0.6169 -0.5180 -1.1613
12528TIP3    H259076   1.156   0.773   4.401 -0.3713 -2.0207  0.0669
12529TIP3   OH259077   0.204   5.778   6.137  0.4842 -0.1033 -0.3281
12529TIP3    H159078   0.185   5.829   6.215 -1.5524 -0.6973 -0.3728
12529TIP3    H259079   0.220   5.689   6.169  0.7683 -0.1116 -0.4942
12530TIP3   OH259080   3.245   0.522   5.960 -0.2224  0.0087  0.5793
12530TIP3    H159081   3.210   0.505   6.048 -0.1261 -1.4700  0.3557
12530TIP3    H259082   3.169   0.514   5.902 -0.4222  1.6667  0.5686
12531TIP3   OH259083   3.316   1.711  15.198 -0.4287  0.2698 -0.1967
12531TIP3    H159084   3.298   1.630  15.245  1.3890  0.3105  0.6348
12531TIP3    H259085   3.231   1.756  15.195 -1.4770 -1.6273 -0.6873
12532TIP3   OH259086   3.707   5.383   5.546 -0.3199  0.5141  1.1179
12532TIP3    H159087   3.794   5.402   5.510  0.0085 -0.8817  1.0983
12532TIP3    H259088   3.680   5.302   5.502 -1.4799  0.7304  1.3945
12533TIP3   OH259089   0.979   4.029  12.873  0.6400 -0.3334 -0.6758
12533TIP3    H159090   1.036   4.022  12.949  0.8880  1.3239 -0.6872
12533TIP3    H259091   1.029   4.079  12.809 -0.6149  0.7441 -0.8602
12534TIP3   OH259092   4.509   1.672   3.781  0.2338 -0.4194  0.0106
12534TIP3    H159093   4.516   1.704   3.870  0.2361  1.2696 -0.5609
12534TIP3    H259094   4.415   1.677   3.761  0.1654 -1.2823  0.0739
12535TIP3   OH259095   5.150   1.082   6.120 -0.2634  0.6218  0.1643
12535TIP3    H159096   5.084   1.025   6.081 -1.7032  1.0184  1.8745
12535TIP3    H259097   5.219   1.021   6.149  0.2812  0.2276 -1.8082
12536TIP3   OH259098   2.186   3.028   3.024  0.1636  0.0991  0.3004
12536TIP3    H159099   2.194   3.096   2.958 -0.2551 -1.1504 -1.0949
12536TIP3    H259100   2.132   3.067   3.092  0.8780  1.5312  0.0856
12537TIP3   OH259101   3.183   1.138  12.532 -0.2117 -0.1564 -0.1132
12537TIP3    H159102   3.153   1.056  12.492  0.6258 -0.5559  0.0530
12537TIP3    H259103   3.265   1.158  12.485 -0.8286  1.0267 -0.7247
12538TIP3   OH259104   0.314   5.615  14.116  0.1875  0.0788  0.2825
12538TIP3    H159105   0.310   5.672  14.039 -0.6541 -0.0935  0.1919
12538TIP3    H259106   0.397   5.638  14.159 -0.7256  2.3279  0.9876
12539TIP3   OH259107   5.720   4.086  14.179  0.3951  0.8645 -0.3994
12539TIP3    H159108   5.751   4.140  14.107 -1.0996 -0.7961 -2.4119
12539TIP3    H259109   5.745   3.997  14.155 -0.9923  0.1455  0.6722
12540TIP3   OH259110   6.571   5.173   6.680  0.2063 -0.1046 -0.1469
12540TIP3    H159111   6.552   5.082   6.660 -1.8547  0.0889  0.6431
12540TIP3    H259112   6.515   5.223   6.620  0.7226  0.6249 -0.0362
12541TIP3   OH259113   5.859   1.115   5.362  0.1812 -0.1536 -0.5018
12541TIP3    H159114   5.778   1.068   5.338  0.9764 -1.2800 -1.0952
12541TIP3    H259115   5.842   1.148   5.450  0.3297 -3.4624  0.9236
12542TIP3   OH259116   2.532   4.060  11.436  0.3722 -0.8809  0.6830
12542TIP3    H159117   2.565   4.117  11.505  0.3869 -1.7667  1.4274
12542TIP3    H259118   2.534   3.972  11.475  2.2692 -1.7092 -1.0780
12543TIP3   OH259119   2.494   5.037  12.183  0.4287 -0.0685 -0.1463
12543TIP3    H159120   2.554   5.066  12.114 -0.5153 -0.9595 -1.3924
12543TIP3    H259121   2.487   5.112  12.242  1.8626  0.4412 -0.5797
12544TIP3   OH259122   0.109   0.660   0.162 -0.0093 -0.5717 -0.3387
12544TIP3    H159123   0.175   0.637   0.228  0.8479 -1.4983 -1.4756
12544TIP3    H259124   0.155   0.654   0.079 -1.2448 -0.0865 -1.0886
12545TIP3   OH259125   6.041   1.509   3.859 -0.2714 -0.1754  0.0679
12545TIP3    H159126   5.976   1.439   3.858  0.2297 -0.7220 -2.5593
12545TIP3    H259127   6.126   1.463   3.853  0.3446  0.5675  2.2093
12546TIP3   OH259128   3.519   0.494  16.362  0.0207 -0.2512  0.8107
12546TIP3    H159129   3.512   0.577  16.407  0.4843 -0.6637  1.6611
12546TIP3    H259130   3.612   0.485  16.342 -0.4059  0.9916 -2.3320
12547TIP3   OH259131   2.415   3.272   3.770  0.0350  0.0124  0.4945
12547TIP3    H159132   2.394   3.365   3.761 -0.4156 -0.0373  1.0097
12547TIP3    H259133   2.411   3.238   3.681  1.2059  0.6895  0.1515
12548TIP3   OH259134   0.286   0.251   1.816  0.0787 -0.1112  0.0112
12548TIP3    H159135   0.327   0.177   1.773 -0.2689 -0.0929 -0.3592
12548TIP3    H259136   0.193   0.244   1.794 -0.1143 -0.1212  0.7879
12549TIP3   OH259137   2.129   1.791  15.558  0.2714  0.0784 -0.4648
12549TIP3    H159138   2.164   1.734  15.627  2.2758  0.0585 -1.4336
12549TIP3    H259139   2.077   1.856  15.606  2.6528  0.8624  1.2760
12550TIP3   OH259140   6.177   5.492  10.751 -0.8450 -0.9635  0.7823
12550TIP3    H159141   6.085   5.517  10.739 -0.2161  1.4133  0.2822
12550TIP3    H259142   6.221   5.575  10.772  1.4911 -1.6930 -0.8388
12551TIP3   OH259143   3.678   1.451   5.360 -0.2383  0.0225  0.3239
12551TIP3    H159144   3.748   1.512   5.382  1.0738 -1.7346  1.3051
12551TIP3    H259145   3.610   1.468   5.425  0.8936 -0.7586  1.7695
12552TIP3   OH259146   6.156   4.701   0.175 -0.8043 -0.5427  0.2959
12552TIP3    H159147   6.082   4.683   0.234  1.0211  1.3557  3.4555
12552TIP3    H259148   6.155   4.796   0.165  0.3867 -0.6260 -0.7928
12553TIP3   OH259149   4.179   1.409   1.258  0.1429 -0.0761  0.0660
12553TIP3    H159150   4.249   1.369   1.310  0.2933 -0.5585 -0.4919
12553TIP3    H259151   4.100   1.396   1.311  0.6040  1.3517  1.1650
12554TIP3   OH259152   6.373   0.331  13.504  0.5887 -0.6666 -0.3805
12554TIP3    H159153   6.347   0.423  13.501  2.0266 -0.2482 -1.6030
12554TIP3    H259154   6.294   0.283  13.479 -0.2782  0.1953  0.6282
12555TIP3   OH259155   4.129   0.731  12.031  0.0131 -0.0026  0.5970
12555TIP3    H159156   4.107   0.819  12.062 -0.3690  0.6674 -1.4465
12555TIP3    H259157   4.045   0.689  12.015  0.1597  0.3126 -1.1676
12556TIP3   OH259158   4.770   0.442  10.337  0.1513 -0.1533 -0.2136
12556TIP3    H159159   4.745   0.381  10.406 -1.7228 -0.0546 -0.7394
12556TIP3    H259160   4.786   0.525  10.381  0.2002 -0.4003  0.2331
12557TIP3   OH259161   1.352   0.060   5.724 -0.3186 -0.3490 -0.3217
12557TIP3    H159162   1.315  -0.017   5.769 -2.0708 -0.1586 -1.3600
12557TIP3    H259163   1.441   0.067   5.759 -1.5695 -0.1098  3.2411
12558TIP3   OH259164   3.894   5.579  15.350 -0.4110  0.4449  0.4980
12558TIP3    H159165   3.858   5.655  15.305 -0.6063  0.2150  0.2668
12558TIP3    H259166   3.887   5.507  15.287  1.3465  0.5886  0.0680
12559TIP3   OH259167   2.069   3.781   5.966  0.3298  0.6613 -0.0191
12559TIP3    H159168   2.136   3.735   5.915 -2.4582  0.9147 -4.4740
12559TIP3    H259169   2.098   3.872   5.967  0.8216  0.5150 -0.4932
12560TIP3   OH259170   4.212   0.711   5.694 -0.3203  0.2791  0.0341
12560TIP3    H159171   4.120   0.734   5.708  0.2026  1.5191  1.6166
12560TIP3    H259172   4.209   0.645   5.624 -2.6600 -1.7880  1.8647
12561TIP3   OH259173   3.737   1.057  17.107 -0.5831  0.4875 -0.3928
12561TIP3    H159174   3.794   1.107  17.048  1.0621  0.1216  0.8079
12561TIP3    H259175   3.769   0.967  17.102  1.5847  0.8505  3.0606
12562TIP3   OH259176   1.865   3.060   0.687  0.4542  0.7470 -0.1767
12562TIP3    H159177   1.951   3.100   0.676  0.2679  0.6366 -2.3857
12562TIP3    H259178   1.874   2.972   0.651 -0.8613  1.1295 -1.5188
12563TIP3   OH259179   1.297   5.507   4.196  0.4668  0.1049 -0.2204
12563TIP3    H159180   1.256   5.589   4.169  1.4564  0.5119 -0.5520
12563TIP3    H259181   1.317   5.462   4.114 -1.2017 -1.0758 -0.0224
12564TIP3   OH259182   6.482   4.216  16.227 -0.2770 -0.2340 -0.2002
12564TIP3    H159183   6.441   4.228  16.141  0.3163 -1.6307 -0.7039
12564TIP3    H259184   6.443   4.136  16.260 -0.8505  0.5442  1.0671
12565TIP3   OH259185   2.122   1.777   1.005  0.0906  0.8000 -0.3915
12565TIP3    H159186   2.178   1.714   0.960  1.5877  1.1135  0.9045
12565TIP3    H259187   2.045   1.727   1.030  0.7805 -0.2666 -0.3115
12566TIP3   OH259188   4.876   3.126  12.327  0.2393  0.6480 -0.0475
12566TIP3    H159189   4.939   3.071  12.373  0.8891  0.6488 -0.9009
12566TIP3    H259190   4.814   3.154  12.394 -0.3161 -1.3894  0.3596
12567TIP3   OH259191   0.806   3.549   3.052  0.4057 -0.2284  0.5494
12567TIP3    H159192   0.769   3.566   3.139  0.6988  1.3674  0.3996
12567TIP3    H259193   0.750   3.481   3.015  0.7807 -1.5449  2.2866
12568TIP3   OH259194   6.715   4.378   1.104 -0.2099  0.0601  0.2844
12568TIP3    H159195   6.802   4.357   1.071 -0.2645  0.4375 -0.1049
12568TIP3    H259196   6.689   4.458   1.057 -1.6836 -1.2292 -1.2331
12569TIP3   OH259197   0.795   4.115   1.480 -0.0130  0.2610  0.4360
12569TIP3    H159198   0.807   4.118   1.575  0.6053 -2.0605  0.4917
12569TIP3    H259199   0.742   4.037   1.465 -0.2103  0.6682 -1.1247
12570TIP3   OH259200   3.029   6.682   3.228 -0.7413  0.3860  0.4759
12570TIP3    H159201   3.039   6.777   3.222 -1.1420  0.4568  0.8881
12570TIP3    H259202   3.075   6.648   3.151 -0.4368  0.9028  0.4245
12571TIP3   OH259203   1.054   1.089  11.740 -0.0893  0.2929  0.4662
12571TIP3    H159204   1.089   1.146  11.672  0.8271  0.0994  0.7531
12571TIP3    H259205   0.963   1.075  11.716  0.1482  0.4615 -0.5575
12572TIP3   OH259206   5.361   3.777   2.065 -0.5094  0.1028  0.1768
12572TIP3    H159207   5.283   3.723   2.052 -0.8219  0.4106  0.7444
12572TIP3    H259208   5.424   3.743   2.001 -2.0476  1.7158 -2.3836
12573TIP3   OH259209   4.524   1.109  14.448  0.1913 -0.4980 -0.0931
12573TIP3    H159210   4.460   1.180  14.454 -0.0941 -0.8532  1.4868
12573TIP3    H259211   4.570   1.125  14.366  0.1801  1.5566  0.2599
12574TIP3   OH259212   5.662   4.037   1.928  0.0706  0.3659 -0.5124
12574TIP3    H159213   5.669   3.942   1.936 -1.0863  0.3381  0.4364
12574TIP3    H259214   5.590   4.061   1.986  0.3139  1.8256 -0.7705
12575TIP3   OH259215   4.771   4.671   5.670 -0.1960 -0.5046  0.1712
12575TIP3    H159216   4.697   4.662   5.609  0.3533 -1.5256 -0.3696
12575TIP3    H259217   4.840   4.713   5.619  1.3343 -4.0386 -0.9427
12576TIP3   OH259218   5.027   3.033   5.073 -0.3083  0.4126 -0.4635
12576TIP3    H159219   5.066   2.990   5.148 -2.5654  0.3551  0.7753
12576TIP3    H259220   5.100   3.054   5.015  1.5156  0.5584  1.7864
12577TIP3   OH259221   5.281   2.989   0.297 -0.1186  0.1564 -0.0257
12577TIP3    H159222   5.343   2.916   0.292 -0.0726  0.0297  1.8385
12577TIP3    H259223   5.271   3.006   0.391 -0.3272  2.3996 -0.4115
12578TIP3   OH259224   1.086   1.485  17.091  0.2029 -0.2422 -0.6793
12578TIP3    H159225   1.006   1.433  17.099 -0.2806  0.7481  1.3386
12578TIP3    H259226   1.057   1.568  17.053  0.1616  0.3218  0.5601
12579TIP3   OH259227   3.179   1.168   3.951  0.3423 -0.2399  0.0855
12579TIP3    H159228   3.193   1.143   4.042  2.8826 -0.5918 -0.3296
12579TIP3    H259229   3.090   1.139   3.932  0.5783 -2.3678  1.7932
12580TIP3   OH259230   3.310   3.333   4.332  0.2742 -0.9836 -0.0126
12580TIP3    H159231   3.255   3.348   4.255  1.0597 -0.7131 -0.5301
12580TIP3    H259232   3.248   3.329   4.405 -0.2705  1.9372 -0.2001
12581TIP3   OH259233   3.070   2.392  15.213 -0.6255 -0.2281 -0.3886
12581TIP3    H159234   3.095   2.408  15.121  1.7662 -0.7655  0.0994
12581TIP3    H259235   2.975   2.377  15.210 -1.0654  2.3560 -2.3970
12582TIP3   OH259236   4.110   0.779   1.314  0.7145  0.5913  0.2850
12582TIP3    H159237   4.130   0.738   1.398 -1.2810 -3.6936 -1.0848
12582TIP3    H259238   4.046   0.847   1.335 -0.2768 -0.8572  2.1758
12583TIP3   OH259239   5.439   2.395  12.752  0.5419  0.1208  0.8571
12583TIP3    H159240   5.364   2.415  12.808 -0.9036 -1.5477 -0.3614
12583TIP3    H259241   5.433   2.301  12.737  0.1953  0.5888 -2.8986
12584TIP3   OH259242   1.110   1.091  11.235  0.1131  0.1767  0.0167
12584TIP3    H159243   1.161   1.115  11.312  1.7319 -2.1275 -0.2310
12584TIP3    H259244   1.124   1.162  11.173  2.7775 -0.1957  0.1107
12585TIP3   OH259245   0.443   4.830   3.328 -0.7381 -0.2097  0.6137
12585TIP3    H159246   0.377   4.806   3.263 -1.5162  0.9598  0.9412
12585TIP3    H259247   0.526   4.803   3.289 -0.9437  2.2125 -1.8098
12586TIP3   OH259248   3.214   5.340   0.086 -0.1919 -0.0728 -0.1656
12586TIP3    H159249   3.140   5.286   0.113 -2.0168  0.2995 -3.7241
12586TIP3    H259250   3.189   5.429   0.110  0.4413 -0.2371  1.1408
12587TIP3   OH259251   6.215   2.519   0.775 -0.2600  0.5244  0.6753
12587TIP3    H159252   6.222   2.543   0.683 -1.2788  1.9439  0.9500
12587TIP3    H259253   6.121   2.513   0.792 -0.0811 -0.0398  1.5558
12588TIP3   OH259254   2.355   2.370  13.672 -0.1663  0.2131  0.7024
12588TIP3    H159255   2.361   2.417  13.755 -0.0530 -2.6212  2.4461
12588TIP3    H259256   2.283   2.411  13.625  0.7924  2.9237  1.4331
12589TIP3   OH259257   1.345   2.123  16.790 -0.1184  0.3440  0.0341
12589TIP3    H159258   1.298   2.156  16.713 -0.1942 -0.0800 -0.1019
12589TIP3    H259259   1.279   2.077  16.841  0.1759 -0.3581 -0.2182
12590TIP3   OH259260   5.731   2.164   4.805  0.2990  0.1882 -0.0054
12590TIP3    H159261   5.732   2.208   4.721  0.3650 -1.6229 -1.0070
12590TIP3    H259262   5.794   2.092   4.795 -0.8213 -0.9901  1.0528
12591TIP3   OH259263   5.367   1.771   5.619 -0.0333 -0.7585 -0.5567
12591TIP3    H159264   5.420   1.820   5.681  0.9009 -0.2202 -1.7315
12591TIP3    H259265   5.364   1.682   5.654  0.4248 -0.4587  0.2724
12592TIP3   OH259266   2.509   1.798  13.622 -0.3145 -0.0649 -0.1905
12592TIP3    H159267   2.475   1.716  13.587 -0.7677  0.6385 -1.4942
12592TIP3    H259268   2.430   1.846  13.650 -0.0162 -0.2690  1.0258
12593TIP3   OH259269   6.641   1.441   1.482  0.1316  0.0544 -0.4929
12593TIP3    H159270   6.571   1.398   1.531  1.2397 -1.0476  0.1831
12593TIP3    H259271   6.655   1.385   1.405  2.1102 -1.3656  0.7828
12594TIP3   OH259272   0.889   3.479   1.184  0.6146 -0.0898 -1.0005
12594TIP3    H159273   0.862   3.550   1.126 -0.7845 -0.3840 -0.7518
12594TIP3    H259274   0.808   3.430   1.201  0.7644  0.5349  1.9542
12595TIP3   OH259275   5.010   4.925  15.883  0.0333  0.1070 -0.1089
12595TIP3    H159276   5.007   4.890  15.794  1.5572 -0.1111 -0.0957
12595TIP3    H259277   5.002   4.848  15.940  1.2376  0.0024 -0.0724
12596TIP3   OH259278   2.400   2.662  12.193 -0.1423  0.3009  0.5169
12596TIP3    H159279   2.452   2.659  12.112  2.2448  0.2791  1.9340
12596TIP3    H259280   2.341   2.736  12.181  0.9313  0.9970 -0.8154
12597TIP3   OH259281   0.529   4.852   6.129 -0.2444  0.4525  0.4547
12597TIP3    H159282   0.601   4.910   6.154 -0.1031  0.0008  1.1317
12597TIP3    H259283   0.526   4.786   6.198 -0.3343 -0.4071 -0.3359
12598TIP3   OH259284   4.777   6.758  15.320 -0.7577 -0.3277  0.3464
12598TIP3    H159285   4.735   6.758  15.234 -1.0449 -1.7225  0.4713
12598TIP3    H259286   4.858   6.709  15.307 -0.2514  0.4009  0.6406
12599TIP3   OH259287   3.251   2.686   4.318  0.0041  0.4396 -0.6129
12599TIP3    H159288   3.232   2.703   4.225  0.8695 -0.4578 -0.9665
12599TIP3    H259289   3.198   2.609   4.339 -0.6650  1.0052 -0.1754
12600TIP3   OH259290   3.291   0.475   2.702  0.7393 -0.6615  0.1714
12600TIP3    H159291   3.201   0.457   2.730  0.7954 -1.0262  0.1225
12600TIP3    H259292   3.284   0.555   2.649  0.6872  0.2236  1.4788
12601TIP3   OH259293   5.678   6.505   4.258 -0.0090 -0.0107  1.5667
12601TIP3    H159294   5.600   6.459   4.290 -0.7446 -1.2683 -1.6767
12601TIP3    H259295   5.750   6.445   4.278 -0.5801 -1.2475  0.1147
12602TIP3   OH259296   2.449   0.568   5.264  0.2347 -0.1134 -0.1480
12602TIP3    H159297   2.395   0.531   5.334 -0.3736  1.9007  0.5187
12602TIP3    H259298   2.393   0.566   5.187  0.7949 -2.0531 -0.5397
12603TIP3   OH259299   6.455   4.239  17.149  0.0963  0.2288 -0.2316
12603TIP3    H159300   6.422   4.318  17.106 -0.0419  0.1471 -0.2755
12603TIP3    H259301   6.424   4.167  17.094  0.4043  0.1560 -0.3094
12604TIP3   OH259302   6.078   3.386   5.149 -0.1547  0.4339  0.3739
12604TIP3    H159303   6.002   3.366   5.203 -0.4032  0.9017  0.2014
12604TIP3    H259304   6.045   3.446   5.082  0.2803  0.3334  0.0633
12605TIP3   OH259305   2.603   0.071  12.986  0.3605  0.0351 -0.0642
12605TIP3    H159306   2.526   0.079  13.043  0.7393 -0.2554  0.4944
12605TIP3    H259307   2.604  -0.022  12.961  1.0151 -0.1418  0.6157
12606TIP3   OH259308   2.716   2.239  13.299 -0.6646  0.0007  0.5658
12606TIP3    H159309   2.722   2.214  13.391 -0.3740 -0.6395  0.3777
12606TIP3    H259310   2.646   2.304  13.297 -1.7181 -1.0794  1.0162
12607TIP3   OH259311   1.849   5.121   3.647  0.6074  0.2305 -0.3480
12607TIP3    H159312   1.800   5.188   3.601 -0.6764  0.2693  0.9836
12607TIP3    H259313   1.804   5.112   3.731  2.6580 -0.0225  0.8027
12608TIP3   OH259314   4.383   5.471  16.542 -0.1182  0.2942  0.0331
12608TIP3    H159315   4.358   5.501  16.455  0.4326  2.7524  0.6543
12608TIP3    H259316   4.313   5.411  16.569 -1.5243  1.3540 -1.1495
12609TIP3   OH259317   0.015   3.589   0.912  0.3454 -0.0908  0.7940
12609TIP3    H159318   0.015   3.684   0.896  0.4552 -0.1373  0.5182
12609TIP3    H259319   0.107   3.568   0.932  0.2418 -0.0615  1.3339
12610TIP3   OH259320   2.789   5.045   0.567  0.0625  0.9004 -0.4946
12610TIP3    H159321   2.863   5.078   0.515  1.2710 -0.2795  0.4103
12610TIP3    H259322   2.822   4.965   0.607 -1.5006  0.7150  0.4908
12611TIP3   OH259323   5.081   2.050  15.136 -0.4913 -0.3777  0.0647
12611TIP3    H159324   5.109   1.959  15.145  0.0117 -0.1827  0.5257
12611TIP3    H259325   5.162   2.100  15.132 -0.7635  0.0952  0.3465
12612TIP3   OH259326   4.688   0.353  11.902  0.6005 -0.3806 -0.1607
12612TIP3    H159327   4.743   0.378  11.976  0.6065  1.6685 -0.8087
12612TIP3    H259328   4.743   0.366  11.825 -0.1290 -0.2973 -0.6815
12613TIP3   OH259329   0.224   5.069   3.816  0.1796  0.1586  0.0757
12613TIP3    H159330   0.152   5.111   3.768 -0.6082  0.3888  1.3916
12613TIP3    H259331   0.270   5.143   3.857  1.3535  0.0339 -0.9716
12614TIP3   OH259332   6.217   6.146   1.753 -0.4531 -0.0163 -0.0232
12614TIP3    H159333   6.191   6.137   1.661 -0.3058  2.0688 -0.3318
12614TIP3    H259334   6.311   6.164   1.749 -0.8509  2.6051  0.2593
12615TIP3   OH259335   1.043   4.696   0.874  0.0539 -0.5215  0.1830
12615TIP3    H159336   1.117   4.746   0.840 -0.4448  0.4805  0.5416
12615TIP3    H259337   1.070   4.668   0.962 -1.3827  3.2211  2.0205
12616TIP3   OH259338   4.814   1.761   4.156 -0.4221  0.2060 -0.0098
12616TIP3    H159339   4.823   1.674   4.117 -0.4452 -0.0940  0.6370
12616TIP3    H259340   4.897   1.805   4.137 -0.4220  0.0546 -0.3654
12617TIP3   OH259341   6.377   1.775  16.574 -0.1282 -0.3510  0.7616
12617TIP3    H159342   6.283   1.767  16.557  0.1976  0.4206 -1.8369
12617TIP3    H259343   6.416   1.698  16.532  0.6183  0.9290 -1.0528
12618TIP3   OH259344   4.621   5.781  15.358 -0.3209  0.3124 -0.1314
12618TIP3    H159345   4.570   5.850  15.401 -1.2445 -1.4877  1.8286
12618TIP3    H259346   4.591   5.783  15.267 -0.9217  1.9419  0.0745
12619TIP3   OH259347   2.231   2.545   4.935 -0.5761  0.1400  0.5187
12619TIP3    H159348   2.169   2.472   4.932 -0.9454  0.4659  0.1742
12619TIP3    H259349   2.290   2.530   4.861 -1.6791  1.0848 -0.5996
12620TIP3   OH259350   1.865   3.279  14.729 -0.4739 -0.0800 -0.7061
12620TIP3    H159351   1.813   3.213  14.683  2.5563 -1.0986 -2.9742
12620TIP3    H259352   1.900   3.233  14.805 -0.3119 -0.3822 -0.9588
12621TIP3   OH259353   1.810   6.303   4.054  0.1587 -0.2524 -0.4002
12621TIP3    H159354   1.720   6.317   4.025  0.5374 -0.0155 -1.5014
12621TIP3    H259355   1.808   6.324   4.148 -0.9679 -0.4607 -0.3609
12622TIP3   OH259356   5.739   0.015   4.821  0.0915  0.5206  0.1279
12622TIP3    H159357   5.809   0.074   4.794 -0.9224  1.4582 -0.5850
12622TIP3    H259358   5.771  -0.073   4.801  1.1395  0.9158  0.0247
12623TIP3   OH259359   6.029   1.151  13.504  0.9573 -0.0201 -0.0378
12623TIP3    H159360   6.054   1.082  13.565  0.5807 -0.3062 -0.2053
12623TIP3    H259361   6.103   1.212  13.505  1.5837 -0.7556 -0.3918
12624TIP3   OH259362   5.335   2.626  17.150  1.0047 -0.3602  0.1423
12624TIP3    H159363   5.253   2.632  17.101  0.4020  2.2960  1.3449
12624TIP3    H259364   5.388   2.564  17.099 -1.0986 -0.8920 -1.5555
12625TIP3   OH259365   3.562   0.548   1.519 -0.5944  0.6902 -0.1938
12625TIP3    H159366   3.650   0.544   1.482 -0.4938 -0.3261  0.1270
12625TIP3    H259367   3.557   0.634   1.560  0.8254  0.1738  1.1656
12626TIP3   OH259368   0.423   5.358  15.242 -0.2284 -0.2749  0.4265
12626TIP3    H159369   0.369   5.304  15.185 -1.3397 -0.0473  1.2207
12626TIP3    H259370   0.510   5.319  15.237 -0.9963 -2.1853  1.0055
12627TIP3   OH259371   1.359   1.344   3.253  0.4786 -0.0214  0.1562
12627TIP3    H159372   1.398   1.383   3.331 -1.1416 -0.1592  1.0714
12627TIP3    H259373   1.297   1.279   3.286  0.6013 -0.9301 -1.2777
12628TIP3   OH259374   4.774   1.967  13.602  0.2721  1.1521 -0.5850
12628TIP3    H159375   4.756   1.972  13.696 -1.0016 -0.8271 -0.6667
12628TIP3    H259376   4.758   2.056  13.570  0.5244  1.8083  1.0215
12629TIP3   OH259377   3.980   2.303  15.965 -0.0754  0.0676  0.3130
12629TIP3    H159378   4.074   2.286  15.958  0.0693  0.4143  1.3374
12629TIP3    H259379   3.972   2.399  15.963 -0.4924  0.0267 -0.6722
12630TIP3   OH259380   3.454   3.364   3.466 -0.2169  0.5511 -0.0349
12630TIP3    H159381   3.414   3.304   3.403 -3.2763  0.4754  1.7888
12630TIP3    H259382   3.480   3.308   3.540  0.3097  1.0363  0.1626
12631TIP3   OH259383   1.018   6.233   2.449 -0.1894 -0.3584 -0.3098
12631TIP3    H159384   1.056   6.148   2.428  2.2706 -0.1995  2.6821
12631TIP3    H259385   1.060   6.294   2.389  1.1453 -0.7958  0.1372
12632TIP3   OH259386   3.423   6.226  14.619 -0.1618  0.2262 -0.1643
12632TIP3    H159387   3.358   6.264  14.679 -0.0279  0.3284 -0.0819
12632TIP3    H259388   3.371   6.184  14.551 -0.3781  2.8300 -1.7572
12633TIP3   OH259389   5.436   2.674   6.045 -0.6831  0.6930  0.2792
12633TIP3    H159390   5.414   2.592   6.090 -0.3199  0.0376 -0.7023
12633TIP3    H259391   5.416   2.743   6.109 -1.5948 -0.1222  0.8970
12634TIP3   OH259392   5.188   1.906   2.729  0.1536  0.3010 -0.1754
12634TIP3    H159393   5.149   1.959   2.660 -2.1314 -0.5436  0.3690
12634TIP3    H259394   5.119   1.900   2.796  0.9842 -1.8499  0.5616
12635TIP3   OH259395   4.386   2.545   3.984 -0.2178  0.0877  0.6628
12635TIP3    H159396   4.466   2.596   3.996 -0.8802  1.1381  0.7164
12635TIP3    H259397   4.402   2.494   3.905  0.4970  0.3069  0.6590
12636TIP3   OH259398   5.137   3.713  15.696  0.7049  0.1867 -0.2876
12636TIP3    H159399   5.107   3.749  15.779  1.0368  1.1273 -0.5676
12636TIP3    H259400   5.176   3.787  15.650  3.4218 -0.9382  0.0251
12637TIP3   OH259401   4.743   5.899   1.277  0.3625 -0.3716 -0.1457
12637TIP3    H159402   4.665   5.844   1.276 -0.8046  1.1684 -2.3656
12637TIP3    H259403   4.813   5.843   1.242 -0.0539 -1.3145  0.4947
12638TIP3   OH259404   5.246   5.243   2.853  0.2928  0.0987  0.3006
12638TIP3    H159405   5.292   5.270   2.933 -0.6492  0.5398  0.6976
12638TIP3    H259406   5.190   5.170   2.880 -0.4494  0.6113  0.1702
12639TIP3   OH259407   2.251   4.731  15.087  0.0351 -0.1730 -0.0598
12639TIP3    H159408   2.194   4.678  15.032  1.0659  0.3190 -1.6702
12639TIP3    H259409   2.263   4.679  15.166 -3.0991 -0.0271  0.6604
12640TIP3   OH259410   0.270   3.926  13.975 -0.4119 -0.2032 -0.1905
12640TIP3    H159411   0.202   3.993  13.980  0.6472  1.1052 -1.9877
12640TIP3    H259412   0.351   3.976  13.965  0.3605 -1.7000 -2.0596
12641TIP3   OH259413   2.755   3.833   0.883 -0.2071 -0.4849  0.0319
12641TIP3    H159414   2.778   3.922   0.855  0.5550 -0.7913 -0.3246
12641TIP3    H259415   2.806   3.819   0.962 -0.5356 -0.5128  0.2425
12642TIP3   OH259416   3.440   0.906   0.724 -0.3811 -0.1959  0.0592
12642TIP3    H159417   3.366   0.847   0.710 -2.9191  1.9046  2.8974
12642TIP3    H259418   3.464   0.892   0.816  1.2567  0.7646 -0.1894
12643TIP3   OH259419   3.725   0.623  16.900  0.6565  0.0184  0.0472
12643TIP3    H159420   3.664   0.688  16.934 -0.1835  0.1773 -1.6411
12643TIP3    H259421   3.754   0.574  16.977 -0.1989  1.1199  1.1029
12644TIP3   OH259422   3.386   2.843  12.282  0.1212 -0.1122  0.0001
12644TIP3    H159423   3.464   2.814  12.328 -0.6921 -2.1440  0.2070
12644TIP3    H259424   3.313   2.819  12.339 -0.6963  1.3602 -0.3715
12645TIP3   OH259425   4.107   1.394  14.499 -0.1726 -0.1745  0.1092
12645TIP3    H159426   4.124   1.445  14.578  1.5619 -0.7208  0.1380
12645TIP3    H259427   4.077   1.309  14.531 -0.0142 -0.2074  0.1717
12646TIP3   OH259428   3.247   5.870  12.395  0.1257 -0.3378  0.5038
12646TIP3    H159429   3.175   5.810  12.412 -1.3054  1.1519 -0.0101
12646TIP3    H259430   3.250   5.927  12.472 -0.9098  1.1601 -0.5176
12647TIP3   OH259431   5.698   6.555   0.484 -0.5204  0.2428 -0.2670
12647TIP3    H159432   5.791   6.558   0.460  0.0050  1.4706  1.7002
12647TIP3    H259433   5.652   6.592   0.409  0.6304  0.1681 -1.0331
12648TIP3   OH259434   0.292   0.681  11.709  0.6773 -0.2320 -0.2600
12648TIP3    H159435   0.203   0.650  11.725  0.1555  1.3057  0.0606
12648TIP3    H259436   0.328   0.694  11.797  0.4163  1.2353 -0.3462
12649TIP3   OH259437   2.066   6.552   0.167  0.2238  0.2455 -0.0332
12649TIP3    H159438   1.981   6.544   0.210 -0.3401 -0.1866 -1.1799
12649TIP3    H259439   2.083   6.646   0.164  0.0820  0.3046  0.7382
12650TIP3   OH259440   0.677   0.847   1.214  0.4589 -0.0266 -0.2395
12650TIP3    H159441   0.690   0.753   1.226 -0.5455 -0.3528 -1.4682
12650TIP3    H259442   0.758   0.887   1.246 -0.4312 -0.9616  3.8497
12651TIP3   OH259443   2.536   3.672   4.919  0.2241  0.0759  0.1239
12651TIP3    H159444   2.611   3.694   4.863  1.3176  1.1403  1.9030
12651TIP3    H259445   2.529   3.746   4.979 -2.4222  0.0992 -0.1006
12652TIP3   OH259446   3.359   1.925  12.193  0.0764 -0.5031 -0.8299
12652TIP3    H159447   3.421   1.944  12.123 -1.4482  1.7806 -1.6997
12652TIP3    H259448   3.350   2.008  12.241 -1.7301 -0.9366 -0.3173
12653TIP3   OH259449   4.011   4.276  15.635  0.7840 -0.1937  0.3609
12653TIP3    H159450   4.059   4.358  15.629  0.4336 -0.0974 -1.4531
12653TIP3    H259451   4.037   4.227  15.557  0.0734 -1.3132  0.8008
12654TIP3   OH259452   4.161   2.689  14.005 -0.2602 -0.3296  0.6620
12654TIP3    H159453   4.170   2.610  14.058  1.9161  0.0934  1.0280
12654TIP3    H259454   4.191   2.664  13.918 -1.0509 -0.2763  0.3635
12655TIP3   OH259455   1.272   5.933  14.835  0.3678  0.0513  0.4339
12655TIP3    H159456   1.215   5.953  14.910  0.7492 -0.8549  0.9811
12655TIP3    H259457   1.212   5.912  14.764  0.0135 -0.0631  0.7667
12656TIP3   OH259458   2.787   4.317   1.382  0.2088  0.1645 -0.3080
12656TIP3    H159459   2.791   4.409   1.358 -0.1305  0.3875  0.4636
12656TIP3    H259460   2.704   4.307   1.428 -0.3488 -0.8046 -1.4883
12657TIP3   OH259461   4.844   0.955   1.014 -0.0493 -0.6059  0.1632
12657TIP3    H159462   4.850   0.873   0.965  1.0966  1.4218 -3.4527
12657TIP3    H259463   4.902   0.942   1.089  1.6069 -2.5060 -1.3368
12658TIP3   OH259464   1.585   4.887   1.592  0.2972  0.3945  0.6919
12658TIP3    H159465   1.588   4.970   1.544 -2.2100  0.2554  0.1642
12658TIP3    H259466   1.552   4.912   1.679 -0.9163 -0.0938  0.3792
12659TIP3   OH259467   2.104   6.399  14.957 -0.4041  0.0334  0.0175
12659TIP3    H159468   2.064   6.335  14.898 -2.1078 -0.4237  1.5571
12659TIP3    H259469   2.143   6.465  14.899 -0.5641 -1.2262 -1.5919
12660TIP3   OH259470   5.969   0.705   2.959 -0.0589  0.3621 -0.4941
12660TIP3    H159471   5.991   0.683   2.869 -1.2404 -0.6895 -0.5628
12660TIP3    H259472   5.873   0.706   2.960 -0.0537  1.0088  0.6009
12661TIP3   OH259473   4.853   0.226   1.099 -0.1005 -0.3081  0.0702
12661TIP3    H159474   4.927   0.190   1.146 -0.6809 -0.6579  0.7310
12661TIP3    H259475   4.782   0.163   1.112 -0.6372  0.2210 -0.2009
12662TIP3   OH259476   1.882   5.882  15.867 -0.0554 -0.5826 -0.2213
12662TIP3    H159477   1.968   5.897  15.906  0.4238  0.6695 -1.6414
12662TIP3    H259478   1.899   5.818  15.797 -0.3474 -0.5855 -0.2880
12663TIP3   OH259479   6.069   3.403   6.171 -0.2006  0.6917  0.0342
12663TIP3    H159480   6.143   3.380   6.229 -0.4855  0.0239  0.1454
12663TIP3    H259481   6.068   3.499   6.171  1.8388  0.7757 -1.4558
12664TIP3   OH259482   4.108   3.386   1.450  0.1387  0.2010 -0.4326
12664TIP3    H159483   4.075   3.297   1.460 -0.1065  0.2362 -0.8965
12664TIP3    H259484   4.171   3.380   1.378 -0.3844  0.5345 -0.9229
12665TIP3   OH259485   4.945   5.681   2.411  0.1232 -0.1549 -0.0204
12665TIP3    H159486   4.907   5.613   2.468 -0.6806 -0.0866 -0.4581
12665TIP3    H259487   4.875   5.701   2.349 -0.0811  1.9003  0.8071
12666TIP3   OH259488   6.642   3.863  16.409 -0.0985  0.8489  0.4362
12666TIP3    H159489   6.585   3.801  16.456  0.6808 -0.6204 -0.4720
12666TIP3    H259490   6.604   3.868  16.321  1.5362 -0.7672 -0.4315
12667TIP3   OH259491   5.087   1.760   5.652 -0.1153 -0.3790  0.3223
12667TIP3    H159492   5.108   1.749   5.745  0.3869  2.3859  0.6513
12667TIP3    H259493   5.171   1.747   5.608 -0.1009 -0.5354  0.3953
12668TIP3   OH259494   5.936   2.496   0.648 -0.0276 -1.0657 -0.5777
12668TIP3    H159495   5.917   2.444   0.570  0.1435  1.0289 -2.0967
12668TIP3    H259496   5.897   2.582   0.630  0.5659 -0.3247  1.3825
12669TIP3   OH259497   4.357   4.241   1.257  0.1773 -0.6464 -0.2002
12669TIP3    H159498   4.395   4.318   1.298  2.9639 -1.8132 -0.3984
12669TIP3    H259499   4.367   4.172   1.322  2.0187 -1.8469 -1.6527
12670TIP3   OH259500   5.288   3.510   5.416 -0.0189 -0.0562  0.6040
12670TIP3    H159501   5.319   3.459   5.492 -0.3153  0.3456  1.0021
12670TIP3    H259502   5.235   3.580   5.455 -1.1432 -0.5256 -0.0304
12671TIP3   OH259503   3.648   6.504   1.336 -0.2640 -0.0059  0.3989
12671TIP3    H159504   3.632   6.451   1.258 -1.7020  0.0861  0.6002
12671TIP3    H259505   3.560   6.529   1.366  0.3346  1.5069  0.9819
12672TIP3   OH259506   0.745   1.942  12.977  0.3312  0.3717  0.3616
12672TIP3    H159507   0.795   1.889  13.040 -1.6646 -1.0556  0.8486
12672TIP3    H259508   0.692   2.000  13.032 -0.1542  0.3373 -0.0682
12673TIP3   OH259509   3.851   5.516  15.620 -0.1331  0.0070 -0.5304
12673TIP3    H159510   3.874   5.530  15.528  0.3229 -1.7225 -0.7109
12673TIP3    H259511   3.851   5.421  15.630  0.8199  0.1909  1.5184
12674TIP3   OH259512   2.443   4.909  11.779  0.1442 -0.2286  0.2241
12674TIP3    H159513   2.444   4.945  11.690 -1.2301 -0.5905  0.0260
12674TIP3    H259514   2.387   4.969  11.828 -1.1855 -1.3664  0.1816
12675TIP3   OH259515   3.342   4.551   1.881  0.0706  0.1578 -0.0467
12675TIP3    H159516   3.408   4.482   1.872  0.8473  0.8798  0.1068
12675TIP3    H259517   3.264   4.514   1.840  0.2399 -1.1389  0.7282
12676TIP3   OH259518   6.409   3.428   1.868  0.2002 -0.2937  0.0010
12676TIP3    H159519   6.351   3.478   1.925  0.4449  1.9370 -1.5463
12676TIP3    H259520   6.402   3.471   1.783  3.8114 -0.0841 -0.3625
12677TIP3   OH259521   1.803   0.561  11.323 -0.2074  0.4234 -0.1590
12677TIP3    H159522   1.783   0.516  11.405 -0.4927  0.8503  0.0047
12677TIP3    H259523   1.774   0.500  11.255  2.9286 -1.3966 -0.0492
12678TIP3   OH259524   6.086   0.952   4.372  0.1040 -0.9351 -0.4246
12678TIP3    H159525   6.114   0.955   4.463  0.1571 -2.8119 -0.3444
12678TIP3    H259526   6.055   1.041   4.353  1.5049 -0.1233  0.9449
12679TIP3   OH259527   5.114   6.435   4.698 -0.2730  0.7853  0.5133
12679TIP3    H159528   5.136   6.452   4.607 -1.1074 -0.2132  0.1087
12679TIP3    H259529   5.030   6.479   4.712 -0.3748  0.5543  0.6535
12680TIP3   OH259530   3.122   0.807   3.519  0.2522  0.6183  0.1670
12680TIP3    H159531   3.173   0.739   3.475 -0.2620 -0.7339  1.5698
12680TIP3    H259532   3.076   0.761   3.589  0.2416  2.4820  1.4657
12681TIP3   OH259533   5.334   5.698  12.244  0.3180 -0.5082 -0.0777
12681TIP3    H159534   5.406   5.745  12.287  0.1168 -0.5184  0.2749
12681TIP3    H259535   5.370   5.611  12.226 -0.0724 -1.0204  1.4613
12682TIP3   OH259536   6.337   3.266   6.259 -0.6038 -0.2270 -0.1651
12682TIP3    H159537   6.261   3.209   6.246 -0.4296 -0.4317 -0.2987
12682TIP3    H259538   6.412   3.208   6.251 -0.3226  0.3598 -2.5007
12683TIP3   OH259539   5.186   5.657   3.109  0.1788  0.0971 -0.1614
12683TIP3    H159540   5.190   5.562   3.123 -0.3785  0.3052  1.6600
12683TIP3    H259541   5.277   5.684   3.099  0.5157 -0.3574  1.4694
12684TIP3   OH259542   5.716   5.130  14.621 -0.7460 -0.2048  0.2808
12684TIP3    H159543   5.646   5.189  14.649 -1.6465 -1.6441  1.2328
12684TIP3    H259544   5.790   5.152  14.677  0.9676  3.7797 -3.0405
12685TIP3   OH259545   3.912   6.408  15.856 -0.2902  0.1183  0.6816
12685TIP3    H159546   3.873   6.451  15.931 -1.8940 -0.4224  0.2009
12685TIP3    H259547   3.839   6.394  15.795  1.1218  1.4692 -1.4401
12686TIP3   OH259548   5.158   3.302   5.923 -0.1330  0.2340  0.8271
12686TIP3    H159549   5.095   3.247   5.970 -0.1329 -0.8782 -0.4108
12686TIP3    H259550   5.204   3.241   5.865  0.9383  1.3055  0.5175
12687TIP3   OH259551   6.663   1.285   4.013 -0.0183 -0.0396 -0.1798
12687TIP3    H159552   6.693   1.210   4.065  2.3779  0.4791 -0.6657
12687TIP3    H259553   6.717   1.358   4.043 -1.4787  1.2261 -0.5426
12688TIP3   OH259554   1.865   2.025   0.550  0.2311 -0.1290 -0.1329
12688TIP3    H159555   1.818   1.956   0.504 -0.8781  0.6289 -0.1785
12688TIP3    H259556   1.913   2.072   0.482  0.7364 -0.6472 -0.1419
12689TIP3   OH259557   5.167   2.391  14.581 -0.4017  0.6845  0.1508
12689TIP3    H159558   5.164   2.429  14.669 -0.0497  1.3527 -0.1172
12689TIP3    H259559   5.122   2.307  14.589 -1.2291  1.1748  0.7526
12690TIP3   OH259560   1.090   3.524   3.221 -0.3091 -0.3557  0.1185
12690TIP3    H159561   1.055   3.536   3.133  0.4362  0.6602 -0.0417
12690TIP3    H259562   1.182   3.502   3.208 -0.0815  0.2616  0.6633
12691TIP3   OH259563   3.526   5.277  16.585  0.2143  0.3142 -0.4495
12691TIP3    H159564   3.442   5.252  16.625 -0.4524  0.7811 -1.5028
12691TIP3    H259565   3.547   5.361  16.624 -0.5701  0.8972 -1.2321
12692TIP3   OH259566   4.101   3.962  12.404  0.4445 -0.0998  0.5624
12692TIP3    H159567   4.177   4.002  12.361 -0.3713  0.5706 -0.2895
12692TIP3    H259568   4.033   4.028  12.398 -0.8588 -1.4751 -0.5934
12693TIP3   OH259569   2.681   0.658  11.745  0.2028 -0.2539 -0.2708
12693TIP3    H159570   2.606   0.610  11.709  0.8412 -0.3238 -1.5822
12693TIP3    H259571   2.726   0.594  11.801 -0.7142 -0.1993  0.5562
12694TIP3   OH259572   5.026   1.850   1.200 -0.0462  0.1560 -0.4629
12694TIP3    H159573   5.066   1.773   1.239 -2.8832 -1.4639 -0.4583
12694TIP3    H259574   5.008   1.825   1.109  1.1443  1.7451 -1.1881
12695TIP3   OH259575   5.067   1.318  15.024  0.2453  0.2170 -0.5201
12695TIP3    H159576   5.137   1.382  15.006  0.4416  0.1172 -0.1072
12695TIP3    H259577   4.987   1.365  15.002  0.3488  0.8153  0.3587
12696TIP3   OH259578   1.716   1.887  12.563 -0.3088 -0.3435  0.1846
12696TIP3    H159579   1.741   1.795  12.550  0.3808 -0.0987 -0.2392
12696TIP3    H259580   1.742   1.907  12.652 -0.7575 -0.6457  0.3919
12697TIP3   OH259581   0.722   1.961  16.623  0.1530 -0.8607  0.1026
12697TIP3    H159582   0.688   1.943  16.536  0.3396  1.0213 -0.4150
12697TIP3    H259583   0.694   2.051  16.641  1.4221 -0.6813  1.3265
12698TIP3   OH259584   5.032   3.580   3.112  0.2710  0.0388  0.2793
12698TIP3    H159585   5.070   3.632   3.041  0.4672 -1.1131 -0.4768
12698TIP3    H259586   4.946   3.554   3.080  0.9848 -1.8268 -0.2352
12699TIP3   OH259587   1.761   6.684  15.034  0.5266  0.0824 -0.3921
12699TIP3    H159588   1.772   6.773  15.000  0.3654  0.7156  1.1599
12699TIP3    H259589   1.730   6.633  14.959  3.2813  0.6735 -2.0984
12700TIP3   OH259590   3.722   3.783   1.690  0.7921 -0.0623 -0.2787
12700TIP3    H159591   3.770   3.706   1.658  0.4869  0.2171 -1.4953
12700TIP3    H259592   3.669   3.810   1.614 -0.5140  0.2411  0.7026
12701TIP3   OH259593   1.456   3.597   4.561 -0.2225 -0.2934 -0.6468
12701TIP3    H159594   1.465   3.553   4.476  0.2009 -2.2898  0.3696
12701TIP3    H259595   1.498   3.682   4.548  2.3452 -1.6011 -1.7137
12702TIP3   OH259596   2.280   2.529  14.858 -0.6254  0.2964  0.0061
12702TIP3    H159597   2.230   2.451  14.834 -0.7934  0.4146 -0.0254
12702TIP3    H259598   2.367   2.495  14.880 -0.3348  0.2346 -1.1838
12703TIP3   OH259599   0.662   4.368  13.508 -1.0803 -0.0096  1.0722
12703TIP3    H159600   0.691   4.286  13.547 -0.9191 -0.2029  0.5485
12703TIP3    H259601   0.670   4.432  13.579  0.8810  0.0052  0.9016
12704TIP3   OH259602   0.555   0.737  11.023  0.1411 -0.8485 -0.4841
12704TIP3    H159603   0.517   0.798  10.960 -1.7367 -1.1605  0.2758
12704TIP3    H259604   0.620   0.789  11.070  1.2941 -0.4993 -2.3382
12705TIP3   OH259605   5.940   1.979   3.201 -0.1350  0.0022 -0.3722
12705TIP3    H159606   5.978   1.993   3.288 -2.1636 -0.1893  0.5989
12705TIP3    H259607   5.888   2.058   3.185 -0.0990 -0.1440 -1.2725
12706TIP3   OH259608   4.842   1.754  11.894 -0.2192 -0.4119  0.0078
12706TIP3    H159609   4.929   1.770  11.931 -0.1792  1.8972 -0.9193
12706TIP3    H259610   4.827   1.660  11.908  2.0401 -0.7041  0.9454
12707TIP3   OH259611   0.137   1.719  13.690 -0.1675 -0.3772  0.0816
12707TIP3    H159612   0.076   1.688  13.758 -1.3753 -1.4455 -1.4335
12707TIP3    H259613   0.080   1.754  13.622  1.0957  3.2737  0.7165
12708TIP3   OH259614   6.010   2.798   3.375  0.4337 -0.4196 -0.2448
12708TIP3    H159615   5.947   2.794   3.447  0.3272 -1.1717 -0.3777
12708TIP3    H259616   6.095   2.784   3.417  0.3879 -0.6852 -0.2385
12709TIP3   OH259617   5.284   0.040  10.728  0.4171  0.0289  0.4326
12709TIP3    H159618   5.220   0.010  10.793 -1.5783  0.4209 -1.2542
12709TIP3    H259619   5.276  -0.021  10.655  1.4369  0.5361 -0.1277
12710TIP3   OH259620   4.753   3.905  15.221 -0.2038 -0.4690 -0.1651
12710TIP3    H159621   4.812   3.915  15.295 -0.9851 -0.6697  0.4997
12710TIP3    H259622   4.808   3.871  15.150  0.3614 -1.1223  0.5810
12711TIP3   OH259623   4.795   1.684  14.480 -0.0694  0.4329  0.4083
12711TIP3    H159624   4.816   1.614  14.541  0.7103  0.9596  0.7534
12711TIP3    H259625   4.876   1.734  14.471 -1.2455  2.8499  2.1675
12712TIP3   OH259626   0.931   5.852   1.296  0.1432 -0.5643 -0.0122
12712TIP3    H159627   0.985   5.923   1.261 -1.8157  1.2738  0.5254
12712TIP3    H259628   0.865   5.836   1.229 -0.9131 -0.1413  0.9074
12713TIP3   OH259629   5.295   5.415   5.794 -0.3917 -0.2139 -0.3505
12713TIP3    H159630   5.240   5.443   5.721 -0.8726 -0.6938 -0.1829
12713TIP3    H259631   5.278   5.321   5.802 -2.7570  0.2980  2.3281
12714TIP3   OH259632   5.944   3.158  12.587  0.0845  0.6436  0.2291
12714TIP3    H159633   5.889   3.131  12.513  1.4301 -0.0387 -0.5741
12714TIP3    H259634   5.905   3.239  12.618 -1.0800  0.4362 -0.6051
12715TIP3   OH259635   4.544   6.091   1.300 -0.1349 -0.2852  0.2177
12715TIP3    H159636   4.550   6.126   1.211 -0.7668 -1.2838 -0.2289
12715TIP3    H259637   4.605   6.017   1.301 -0.7500 -0.8014  0.3498
12716TIP3   OH259638   0.634   2.810  13.746  0.5859  0.2921 -0.4224
12716TIP3    H159639   0.688   2.806  13.667 -0.3841 -0.2317 -1.0774
12716TIP3    H259640   0.544   2.809  13.713  0.1683  1.0833  0.6504
12717TIP3   OH259641   2.064   0.592  11.473 -0.0006  0.1982 -0.2358
12717TIP3    H159642   2.080   0.681  11.443 -0.4137  0.1461 -0.6294
12717TIP3    H259643   1.993   0.560  11.417  0.9553 -0.7946 -0.9299
12718TIP3   OH259644   5.845   1.442   0.087 -0.3270  0.3215  0.3877
12718TIP3    H159645   5.841   1.464   0.180 -0.1013  0.3031  0.4009
12718TIP3    H259646   5.871   1.523   0.043 -2.2123  0.8431  0.1429
12719TIP3   OH259647   5.881   2.838  11.375 -0.2006 -0.0473 -0.5202
12719TIP3    H159648   5.973   2.863  11.367 -0.1367 -0.1089 -0.0092
12719TIP3    H259649   5.836   2.918  11.400 -0.0620 -0.3253  0.6723
12720TIP3   OH259650   6.193   1.746  11.004 -0.4950 -0.6601 -0.1229
12720TIP3    H159651   6.282   1.779  11.012 -0.7948  0.2524 -0.3939
12720TIP3    H259652   6.187   1.715  10.914 -0.6062 -0.2351 -0.2642
12721TIP3   OH259653   5.103   4.577   1.069  0.2266 -0.1480 -0.1803
12721TIP3    H159654   5.161   4.501   1.068  2.3000  1.3411 -0.7116
12721TIP3    H259655   5.088   4.595   1.162  0.9984 -0.2986 -0.0207
12722TIP3   OH259656   5.730   2.231  12.084 -0.4244 -0.0183  0.3221
12722TIP3    H159657   5.821   2.234  12.055 -1.0115  1.1232 -1.5741
12722TIP3    H259658   5.735   2.227  12.179  1.6041 -0.9137  0.2173
12723TIP3   OH259659   4.523   5.133  12.727 -0.2158  0.2469 -0.5101
12723TIP3    H159660   4.454   5.107  12.788 -0.4947 -1.5070 -1.5257
12723TIP3    H259661   4.506   5.083  12.648  2.2476 -0.2844 -0.7787
12724TIP3   OH259662   1.530   6.171  15.273  0.2754  0.3705  0.2141
12724TIP3    H159663   1.538   6.266  15.272 -1.0850  0.5009 -0.3798
12724TIP3    H259664   1.455   6.152  15.216  1.8414 -1.1974 -1.4831
12725TIP3   OH259665   0.586   6.524  17.018 -1.1838 -0.4125 -0.6272
12725TIP3    H159666   0.540   6.606  17.034  0.7679  0.6307 -0.0309
12725TIP3    H259667   0.562   6.468  17.093 -1.2283  0.2255 -0.1587
12726TIP3   OH259668   0.559   2.766  14.559 -0.1944 -0.0035  0.0001
12726TIP3    H159669   0.625   2.705  14.525 -0.2775 -0.8140  1.2491
12726TIP3    H259670   0.483   2.752  14.502 -0.0919 -0.8105  0.0433
12727TIP3   OH259671   5.141   5.764   2.556 -0.0536  0.3384  0.1482
12727TIP3    H159672   5.058   5.727   2.524  0.8236  0.1415 -2.0803
12727TIP3    H259673   5.160   5.714   2.635 -0.5599 -1.7408 -0.9662
12728TIP3   OH259674   6.052   5.330   0.161 -0.1418 -0.0417  0.0984
12728TIP3    H159675   6.014   5.246   0.187 -2.2515  0.9296  0.3641
12728TIP3    H259676   6.054   5.327   0.065 -2.0290  0.2929  0.0096
12729TIP3   OH259677   1.106   2.977  14.754 -0.5455  0.2464 -0.3721
12729TIP3    H159678   1.141   3.058  14.719  1.1835  0.6671  2.0660
12729TIP3    H259679   1.175   2.912  14.739 -0.1371  0.2405  1.3200
12730TIP3   OH259680   5.992   4.771   4.530 -0.0606  0.1966  0.8469
12730TIP3    H159681   5.912   4.760   4.478  0.7105 -1.6235 -0.0265
12730TIP3    H259682   5.962   4.765   4.621 -0.7552 -2.2419  0.5194
12731TIP3   OH259683   3.504   0.680  13.737  0.0259 -1.0925  0.4059
12731TIP3    H159684   3.502   0.758  13.682  3.0619  0.4686  2.2269
12731TIP3    H259685   3.419   0.678  13.780 -0.3096  0.9383 -0.0659
12732TIP3   OH259686   2.382   5.105   0.099  0.4280  0.6953  0.6969
12732TIP3    H159687   2.384   5.084   0.192  0.0905  1.0810  0.7916
12732TIP3    H259688   2.290   5.123   0.080  0.4036  0.0436  0.1594
12733TIP3   OH259689   6.321   6.273   3.004 -0.5371 -0.3563 -0.5395
12733TIP3    H159690   6.412   6.251   3.026 -0.8028 -1.2263 -0.2473
12733TIP3    H259691   6.307   6.235   2.917 -1.0295 -1.4957  0.0088
12734TIP3   OH259692   6.196   6.737  16.089 -0.3715  0.0795 -0.2081
12734TIP3    H159693   6.190   6.665  16.027 -1.7128  1.2812 -1.5580
12734TIP3    H259694   6.274   6.785  16.062 -0.4212  0.0753 -0.3559
12735TIP3   OH259695   4.599   6.768  12.572  0.0952 -0.2136 -0.7356
12735TIP3    H159696   4.661   6.707  12.531  1.0518  0.4578 -0.3022
12735TIP3    H259697   4.571   6.724  12.652  1.3827  0.2075 -0.0166
12736TIP3   OH259698   6.049   4.683  15.073 -0.0444 -0.0308 -0.5955
12736TIP3    H159699   6.088   4.616  15.129  1.3736  1.0853 -0.1897
12736TIP3    H259700   6.006   4.743  15.133  0.8917  0.7941 -0.7161
12737TIP3   OH259701   2.317   2.128  11.133  0.3505 -0.6565 -0.2417
12737TIP3    H159702   2.411   2.127  11.114  0.3926 -0.0716 -0.0920
12737TIP3    H259703   2.285   2.206  11.088 -0.2815 -1.4870 -1.2705
12738TIP3   OH259704   1.471   6.645  14.168  0.7919  0.0142 -0.0543
12738TIP3    H159705   1.392   6.591  14.169 -0.5131  1.8295  0.5155
12738TIP3    H259706   1.524   6.611  14.239 -0.7245  0.4256  1.3495
12739TIP3   OH259707   5.939   2.429  14.424 -0.1784 -0.1701 -0.3678
12739TIP3    H159708   5.996   2.357  14.398 -2.1188 -1.3868 -1.5055
12739TIP3    H259709   5.963   2.501  14.366 -0.8767 -1.2048 -2.0351
12740TIP3   OH259710   6.343   2.040   1.122 -0.0430  0.0718 -0.0303
12740TIP3    H159711   6.256   2.072   1.100 -0.9926 -1.0727  1.8232
12740TIP3    H259712   6.330   1.949   1.147  1.7292 -0.1940  0.0954
12741TIP3   OH259713   4.058   6.168  14.323 -0.0098 -0.3616 -0.0826
12741TIP3    H159714   4.128   6.184  14.259 -0.8214  1.7836 -0.5248
12741TIP3    H259715   4.104   6.160  14.407  1.0579 -3.0489 -0.7942
12742TIP3   OH259716   1.298   2.399   5.327  0.1875 -0.2143 -0.6674
12742TIP3    H159717   1.221   2.398   5.384 -0.2738  0.1149 -1.2647
12742TIP3    H259718   1.332   2.488   5.336  2.0262 -1.0537  1.5495
12743TIP3   OH259719   5.468   0.923  15.950  0.1506 -0.5637  0.1648
12743TIP3    H159720   5.518   1.003  15.963  0.9385 -0.6710 -1.9042
12743TIP3    H259721   5.394   0.931  16.010 -1.0677  2.7743 -1.5744
12744TIP3   OH259722   3.216   5.571  11.322 -0.9122 -0.2691  0.0538
12744TIP3    H159723   3.220   5.579  11.227  0.8256 -0.2580  0.1019
12744TIP3    H259724   3.127   5.538  11.340 -0.8897 -1.3471 -1.6402
12745TIP3   OH259725   4.111   3.851   2.618  0.3589  0.1745 -0.0139
12745TIP3    H159726   4.051   3.830   2.689  0.5732  0.0608  0.1342
12745TIP3    H259727   4.186   3.794   2.632  0.2770 -0.0547 -0.4985
12746TIP3   OH259728   6.749   4.978  14.026  0.4476  0.2825 -0.1051
12746TIP3    H159729   6.830   4.970  14.077  0.0673  0.4651  0.5356
12746TIP3    H259730   6.691   4.911  14.062  0.5351 -0.2970 -1.0095
12747TIP3   OH259731   6.463   4.158   3.153 -0.4295  0.0139 -0.5710
12747TIP3    H159732   6.391   4.109   3.192 -0.1441  0.1843  0.1962
12747TIP3    H259733   6.510   4.196   3.228  0.8337 -0.6285 -0.9977
12748TIP3   OH259734   4.951   0.583  11.380 -0.2363  0.4166 -0.3534
12748TIP3    H159735   4.941   0.518  11.310  0.6034  0.4300 -0.4966
12748TIP3    H259736   4.891   0.553  11.449  0.3854 -0.7267 -0.2772
12749TIP3   OH259737   0.108   6.197   6.165 -0.3042 -0.6509 -0.2971
12749TIP3    H159738   0.139   6.131   6.227 -3.2413  1.9101  4.4362
12749TIP3    H259739   0.172   6.268   6.171 -0.6756 -0.3335 -0.0464
12750TIP3   OH259740   2.995   4.175  12.692  0.1786  0.3940 -0.4330
12750TIP3    H159741   2.956   4.159  12.778  0.6083 -0.1199 -0.3284
12750TIP3    H259742   3.089   4.157  12.704  0.1736 -0.1431 -1.1184
12751TIP3   OH259743   0.147   4.760  14.486  0.3942  0.2834  0.4411
12751TIP3    H159744   0.157   4.737  14.579  2.2039  0.4603  0.3420
12751TIP3    H259745   0.094   4.689  14.449 -2.6072  1.5118  2.0600
12752TIP3   OH259746   5.541   0.803  15.276 -0.4724  0.6675 -0.2964
12752TIP3    H159747   5.636   0.804  15.283 -0.4349 -1.3136  0.2976
12752TIP3    H259748   5.512   0.766  15.360 -2.0230  4.3384  0.9641
12753TIP3   OH259749   4.595   3.835   1.022 -0.0241  0.2773 -0.2641
12753TIP3    H159750   4.616   3.769   1.088 -1.1819  0.6149  0.4831
12753TIP3    H259751   4.532   3.792   0.964  0.0473  0.3715 -0.4120
12754TIP3   OH259752   2.394   4.411   1.639  0.0884 -0.4239 -0.0382
12754TIP3    H159753   2.348   4.360   1.705  0.4775 -0.6348  0.0762
12754TIP3    H259754   2.463   4.457   1.688 -1.5599  1.9187  0.2376
12755TIP3   OH259755   5.757   4.443   1.825 -0.2384 -0.3275 -0.1091
12755TIP3    H159756   5.798   4.523   1.858  0.3025 -0.5938 -0.1172
12755TIP3    H259757   5.729   4.466   1.736  0.8792 -0.4506 -0.5152
12756TIP3   OH259758   5.270   0.919  15.697 -0.4607 -0.6926 -0.3485
12756TIP3    H159759   5.341   0.934  15.760 -2.1620  2.9976  0.9597
12756TIP3    H259760   5.289   0.978  15.625 -2.5993  1.1689  0.4960
12757TIP3   OH259761   4.370   4.520  14.435  0.5016 -0.3932 -0.2597
12757TIP3    H159762   4.337   4.609  14.423  0.1323 -0.5198 -0.2000
12757TIP3    H259763   4.293   4.464  14.423  0.5296 -0.6523  0.6858
12758TIP3   OH259764   5.710   6.119   3.660  0.0928 -0.0791 -0.7292
12758TIP3    H159765   5.711   6.206   3.621 -1.0885 -0.0228 -0.6493
12758TIP3    H259766   5.787   6.076   3.623  0.0993  0.6407 -1.5847
12759TIP3   OH259767   3.725   5.529   2.841  0.0975  0.1523 -0.1116
12759TIP3    H159768   3.634   5.548   2.863 -0.3984 -0.8477 -1.1777
12759TIP3    H259769   3.775   5.560   2.916 -1.3710 -1.9377  1.8544
12760TIP3   OH259770   3.974   2.851  10.495  0.2003  0.9003 -0.5680
12760TIP3    H159771   3.895   2.880  10.539 -0.1928  0.6131 -1.0744
12760TIP3    H259772   4.042   2.853  10.563 -0.3786  0.5275  0.0327
12761TIP3   OH259773   4.653   3.292   3.962 -0.2386 -0.1017 -0.2166
12761TIP3    H159774   4.592   3.249   4.021 -0.7672 -0.6404 -1.1306
12761TIP3    H259775   4.602   3.308   3.882  1.0983 -1.6528 -1.4521
12762TIP3   OH259776   1.541   3.041  12.812  0.8595 -0.4612 -1.0247
12762TIP3    H159777   1.495   2.961  12.791 -1.7030 -0.2563  2.7681
12762TIP3    H259778   1.629   3.013  12.837 -0.1885 -2.2841  0.8852
12763TIP3   OH259779   1.327   5.213  16.045  0.7043  0.2082  0.0465
12763TIP3    H159780   1.255   5.150  16.044 -0.1040  1.1161  0.1500
12763TIP3    H259781   1.405   5.159  16.032  0.0802 -0.8764  0.5835
12764TIP3   OH259782   0.363   0.995  11.804  0.3248 -0.1103 -0.2514
12764TIP3    H159783   0.304   1.013  11.730  1.3831 -0.7108 -1.2807
12764TIP3    H259784   0.311   0.942  11.864 -0.1959 -0.6334 -1.1437
12765TIP3   OH259785   1.525   4.396   0.614 -0.1023 -0.1727 -0.0318
12765TIP3    H159786   1.569   4.387   0.698  1.8177  0.3652 -0.9249
12765TIP3    H259787   1.470   4.318   0.607 -0.3595 -0.1889  1.7281
12766TIP3   OH259788   0.077   6.822   1.834 -0.2577 -0.0717  0.2537
12766TIP3    H159789  -0.002   6.819   1.887 -0.9112 -1.8195 -0.7347
12766TIP3    H259790   0.144   6.780   1.889 -0.1882  0.7348  0.7979
12767TIP3   OH259791   1.993   5.884  14.073 -0.6925 -0.5077  0.3520
12767TIP3    H159792   1.900   5.863  14.068 -0.8039  0.2223 -1.1275
12767TIP3    H259793   2.021   5.892  13.982  0.7082 -0.2293  0.7796
12768TIP3   OH259794   3.124   4.942  11.883  0.1572  0.0279 -0.8894
12768TIP3    H159795   3.044   4.966  11.837 -0.5692 -0.4857  0.0490
12768TIP3    H259796   3.133   5.007  11.952 -0.0698 -0.5390 -0.3118
12769TIP3   OH259797   6.533   5.594  13.214  0.1092  0.0223 -0.0997
12769TIP3    H159798   6.502   5.605  13.124 -1.8513  1.1588  0.6344
12769TIP3    H259799   6.521   5.501  13.232 -0.6054 -0.0079 -0.6594
12770TIP3   OH259800   3.911   1.588   2.060  0.1316 -0.0308 -0.0360
12770TIP3    H159801   3.991   1.542   2.083 -0.3415  0.1663  2.2826
12770TIP3    H259802   3.931   1.681   2.075  0.3864  0.3917 -2.5143
12771TIP3   OH259803   1.362   6.551  13.647  0.4032  0.2729 -0.5228
12771TIP3    H159804   1.269   6.573  13.651 -0.2323 -2.2375  0.0983
12771TIP3    H259805   1.401   6.599  13.720 -0.7430 -0.0523  0.3344
12772TIP3   OH259806   0.218   5.355   0.333  0.1983  0.1058 -0.3198
12772TIP3    H159807   0.256   5.330   0.249  1.4202 -2.8494  0.9567
12772TIP3    H259808   0.293   5.359   0.392 -0.7691  0.9491  0.8965
12773TIP3   OH259809   5.544   0.538  12.722  0.0771  0.0661  0.3648
12773TIP3    H159810   5.623   0.487  12.704  0.9015  1.6893 -1.0083
12773TIP3    H259811   5.494   0.485  12.784  1.5739 -1.6571  0.1862
12774TIP3   OH259812   4.911   3.048   1.034 -0.2483  0.6052  0.2909
12774TIP3    H159813   4.942   3.104   1.106  1.8019 -0.8399  0.6375
12774TIP3    H259814   4.900   2.962   1.075 -1.0407  0.2073 -0.7249
12775TIP3   OH259815   1.553   0.346   0.491 -0.2017  0.0103  0.3238
12775TIP3    H159816   1.638   0.340   0.446  0.6991 -0.8991  2.0570
12775TIP3    H259817   1.500   0.278   0.450  0.1607  0.0482 -0.2252
12776TIP3   OH259818   2.307   2.626   5.706 -0.3381 -0.5836 -0.2685
12776TIP3    H159819   2.258   2.622   5.624 -2.7303 -2.7802  1.1205
12776TIP3    H259820   2.246   2.666   5.768 -0.1653 -2.6541  1.3346
12777TIP3   OH259821   2.230   2.995   0.232  0.6580 -0.1942  0.1635
12777TIP3    H159822   2.184   3.079   0.242  1.5267  0.3269 -0.1465
12777TIP3    H259823   2.160   2.930   0.236 -0.1301  0.5847 -0.4385
12778TIP3   OH259824   1.597   6.434   5.856  0.9625  0.5295 -0.3861
12778TIP3    H159825   1.620   6.465   5.944 -0.1127  1.2623 -0.3482
12778TIP3    H259826   1.508   6.467   5.841  0.3641 -1.2312 -0.9774
12779TIP3   OH259827   1.039   3.410  15.920 -0.6550  0.3019 -0.1173
12779TIP3    H159828   1.065   3.444  16.006 -2.6164 -1.4210  1.2460
12779TIP3    H259829   0.952   3.447  15.904 -0.6474 -0.0414 -0.9999
12780TIP3   OH259830   1.901   1.013   2.394 -0.1975 -0.6372 -0.2666
12780TIP3    H159831   1.942   1.084   2.344  0.2368  1.9538  3.3471
12780TIP3    H259832   1.973   0.970   2.439 -0.8022  1.0251  2.5917
12781TIP3   OH259833   2.793   6.700   1.837  0.3924 -0.0834  0.0566
12781TIP3    H159834   2.729   6.761   1.873  1.3720  0.4101  1.0422
12781TIP3    H259835   2.854   6.755   1.789 -0.5434 -0.6740 -1.9096
12782TIP3   OH259836   2.076   1.720   1.932 -0.2673 -0.2168 -0.1134
12782TIP3    H159837   2.077   1.777   2.008 -0.8894  0.5241 -0.6494
12782TIP3    H259838   2.095   1.633   1.967  3.1102  0.5859  0.4374
12783TIP3   OH259839   2.956   4.698   6.757  0.4354 -0.2759  0.1939
12783TIP3    H159840   2.919   4.695   6.669  0.3801 -2.4496  0.2509
12783TIP3    H259841   2.903   4.637   6.808  1.3824 -0.1542  1.3818
12784TIP3   OH259842   2.208   0.223  15.208 -0.3576 -0.2883  0.0269
12784TIP3    H159843   2.146   0.262  15.269 -1.0285  1.0876 -1.4609
12784TIP3    H259844   2.285   0.203  15.261 -0.4583  1.9514  1.1214
12785TIP3   OH259845   5.800   3.397  12.668  0.1752 -0.3876  0.1701
12785TIP3    H159846   5.712   3.431  12.655  0.0687 -1.1169 -1.1721
12785TIP3    H259847   5.838   3.453  12.736 -1.3946 -0.2313  0.9484
12786TIP3   OH259848   6.767   6.176  15.782  0.0615 -0.0286  0.1372
12786TIP3    H159849   6.733   6.143  15.699  0.8963 -0.4712 -0.0419
12786TIP3    H259850   6.833   6.241  15.757  1.0222 -0.8715  0.4165
12787TIP3   OH259851   2.986   6.747   5.519  0.0175  0.0841  0.4349
12787TIP3    H159852   3.022   6.701   5.595 -0.5495  1.1662  1.4033
12787TIP3    H259853   3.054   6.739   5.452 -0.0835 -2.1610  0.5327
12788TIP3   OH259854   1.951   5.647   0.535  0.1588 -0.3280  0.2135
12788TIP3    H159855   1.905   5.584   0.590  0.7880  0.6289  1.9213
12788TIP3    H259856   1.937   5.731   0.578  0.8264  0.4467 -1.0195
12789TIP3   OH259857   0.344   5.506  16.391 -0.1450  0.8497  0.4039
12789TIP3    H159858   0.275   5.474  16.449 -1.0135  1.1692 -0.4324
12789TIP3    H259859   0.364   5.432  16.334  1.0904  0.3600  1.4282
12790TIP3   OH259860   2.535   1.292   4.163  0.3840 -0.2358 -0.0798
12790TIP3    H159861   2.522   1.361   4.099  0.0705 -1.4776 -1.4178
12790TIP3    H259862   2.630   1.285   4.173  0.4180  0.3258  0.0152
12791TIP3   OH259863   0.598   2.361   0.582 -0.2658  0.1212  0.0327
12791TIP3    H159864   0.526   2.311   0.621 -0.8989 -1.0246 -2.4312
12791TIP3    H259865   0.565   2.388   0.497  0.5282  3.7955  0.7378
12792TIP3   OH259866   0.608   2.202   3.167 -0.3745  0.2535  0.0454
12792TIP3    H159867   0.520   2.231   3.142 -0.2506 -0.7326 -1.7595
12792TIP3    H259868   0.651   2.186   3.083  1.6721  1.0729  0.8853
12793TIP3   OH259869   2.821   0.772  12.190 -0.4905 -0.1873  0.4358
12793TIP3    H159870   2.731   0.748  12.166 -0.3567 -2.1169  1.6361
12793TIP3    H259871   2.873   0.696  12.163  0.5897  0.3817  0.8774
12794TIP3   OH259872   4.114   5.300  11.039 -1.0790  0.2912  1.1247
12794TIP3    H159873   4.126   5.382  11.085 -1.6534  1.5888 -0.8882
12794TIP3    H259874   4.092   5.326  10.949 -2.8728 -2.0343  0.7966
12795TIP3   OH259875   0.548   0.292  11.942 -0.7770 -0.2136 -0.2849
12795TIP3    H159876   0.593   0.332  11.867 -0.7321 -0.6182 -0.4767
12795TIP3    H259877   0.456   0.291  11.917 -0.5936 -1.7876 -1.0231
12796TIP3   OH259878   3.148   2.608   2.861  0.2030  0.2889 -0.0197
12796TIP3    H159879   3.155   2.703   2.851  0.7038  0.2687  0.1096
12796TIP3    H259880   3.054   2.592   2.868  0.1865  0.9654  1.7560
12797TIP3   OH259881   6.138   3.792  10.813  0.8003 -0.3888  0.4082
12797TIP3    H159882   6.118   3.805  10.721  0.5050 -0.1289  0.5063
12797TIP3    H259883   6.224   3.834  10.825  0.6294 -0.0138  0.3501
12798TIP3   OH259884   0.065   2.340  16.041  0.3720  0.1753  0.2162
12798TIP3    H159885   0.117   2.345  15.961  1.4859  0.2751  0.9189
12798TIP3    H259886  -0.006   2.279  16.020  1.7422 -1.3124 -0.2455
12799TIP3   OH259887   2.680   4.364   1.817 -0.4047  0.3551 -0.2203
12799TIP3    H159888   2.650   4.455   1.821 -1.0700  0.1186  0.4139
12799TIP3    H259889   2.759   4.363   1.871 -0.2055  0.6257 -0.5027
12800TIP3   OH259890   4.457   3.966   1.372 -0.0219  0.7137 -0.1481
12800TIP3    H159891   4.367   3.975   1.402 -0.0031  0.5593 -0.0381
12800TIP3    H259892   4.478   3.874   1.388 -0.3149  0.3891 -1.4978
12801TIP3   OH259893   5.827   5.694  15.591  0.5577 -0.2939 -0.6501
12801TIP3    H159894   5.884   5.640  15.646  0.8808 -0.3117 -0.9955
12801TIP3    H259895   5.741   5.654  15.599  0.7250 -0.6537 -0.6226
12802TIP3   OH259896   1.323   1.380   3.707 -0.1601 -0.2561  0.1069
12802TIP3    H159897   1.263   1.434   3.656 -0.6428 -0.0109  0.9051
12802TIP3    H259898   1.398   1.365   3.650 -0.6205  0.1321 -0.6061
12803TIP3   OH259899   0.862   3.949  16.859  0.2976  0.1057  0.7285
12803TIP3    H159900   0.847   4.042  16.843  1.2690  0.2001  0.2807
12803TIP3    H259901   0.910   3.918  16.781  2.2233 -0.1785  1.9596
12804TIP3   OH259902   3.522   4.126   2.872 -0.6799  0.4420  0.0194
12804TIP3    H159903   3.579   4.202   2.865  1.2400 -0.9855 -0.7876
12804TIP3    H259904   3.495   4.125   2.963  4.3503 -1.2317  1.8555
12805TIP3   OH259905   3.015   6.650  10.843 -0.1890 -0.1983  0.6153
12805TIP3    H159906   3.009   6.725  10.784  1.7783  0.1153  0.7404
12805TIP3    H259907   3.013   6.574  10.785  0.7868  0.0750  0.2055
12806TIP3   OH259908   2.019   5.603   2.217  0.3481 -0.4255 -0.1700
12806TIP3    H159909   2.035   5.533   2.280  1.8881 -0.3729 -0.4477
12806TIP3    H259910   2.066   5.678   2.254 -0.1751  0.0838 -0.5332
12807TIP3   OH259911   1.856   3.327   1.177 -0.3772 -0.1470 -0.5833
12807TIP3    H159912   1.908   3.402   1.147 -0.3448  0.3177  0.5921
12807TIP3    H259913   1.822   3.288   1.096 -1.9155  2.2117 -1.1865
12808TIP3   OH259914   5.797   4.519   1.524 -0.1023 -0.1596 -0.1520
12808TIP3    H159915   5.808   4.426   1.506  0.0709 -0.4105  1.1377
12808TIP3    H259916   5.883   4.549   1.554 -0.5209  0.0677  0.8569
12809TIP3   OH259917   1.050   3.346   3.846 -0.1995  0.2960  0.5102
12809TIP3    H159918   1.011   3.373   3.762 -0.0304  0.9017  0.6194
12809TIP3    H259919   0.991   3.381   3.912 -0.0702  0.2467  0.6525
12810TIP3   OH259920   5.239   3.692  17.107  0.4016  0.4168  0.9568
12810TIP3    H159921   5.277   3.627  17.165  1.2603  0.5365  0.5394
12810TIP3    H259922   5.310   3.753  17.089 -0.2725  1.2450  1.0020
12811TIP3   OH259923   4.286   6.288   3.517  0.0393 -0.6697  0.4976
12811TIP3    H159924   4.328   6.353   3.461 -1.9524 -0.3640 -0.7422
12811TIP3    H259925   4.201   6.326   3.538  0.4146 -1.1242  3.1476
12812TIP3   OH259926   6.609   1.795   1.033  0.0568  0.1721 -0.3103
12812TIP3    H159927   6.604   1.890   1.031  0.3940  0.2333  0.9523
12812TIP3    H259928   6.700   1.775   1.010 -0.1659  0.1074 -1.1881
12813TIP3   OH259929   2.816   5.920   3.539 -0.4748  0.1337 -0.3892
12813TIP3    H159930   2.751   5.987   3.519 -0.7433 -0.3537 -1.2160
12813TIP3    H259931   2.765   5.843   3.565 -0.2378 -0.2393 -1.0037
12814TIP3   OH259932   6.609   0.797   4.308 -0.5712  1.1725 -0.6898
12814TIP3    H159933   6.592   0.758   4.222 -0.7688 -1.9419  0.6515
12814TIP3    H259934   6.522   0.823   4.340 -1.4805 -2.8881  0.7714
12815TIP3   OH259935   5.705   6.403  11.437  0.0610  0.0207 -0.1619
12815TIP3    H159936   5.723   6.309  11.445 -1.8537 -0.4445 -0.8866
12815TIP3    H259937   5.695   6.418  11.343 -0.4109  0.7974  0.0006
12816TIP3   OH259938   2.952   2.230   0.977 -0.3205 -0.3294  0.0157
12816TIP3    H159939   2.903   2.149   0.964 -0.9942 -0.0676  0.8335
12816TIP3    H259940   2.923   2.262   1.062  0.0985  0.6655 -0.2056
12817TIP3   OH259941   2.792   1.142   4.513 -0.2534 -0.0189  0.4747
12817TIP3    H159942   2.782   1.159   4.606  0.8390  1.6736  0.3210
12817TIP3    H259943   2.881   1.105   4.505 -0.3792 -0.2537  0.1068
12818TIP3   OH259944   2.804   6.716  16.055  0.4364 -0.4121 -0.2535
12818TIP3    H159945   2.802   6.759  16.140  0.3786  1.1244 -1.0014
12818TIP3    H259946   2.712   6.693  16.038 -0.2442  2.7120 -1.5157
12819TIP3   OH259947   1.290   5.029  15.246 -0.1398 -0.5459  0.0802
12819TIP3    H159948   1.246   5.054  15.327 -1.5234 -0.3778 -0.6856
12819TIP3    H259949   1.306   5.112  15.201 -2.1618 -0.7462 -1.1664
12820TIP3   OH259950   3.518   5.319  15.127 -0.8237 -0.0680 -0.2854
12820TIP3    H159951   3.487   5.388  15.068  0.2069  0.7810  0.1482
12820TIP3    H259952   3.583   5.271  15.076  0.0597  0.6592  0.1337
12821TIP3   OH259953   0.249   1.973   1.007  0.2357 -0.1398 -0.2585
12821TIP3    H159954   0.305   1.913   1.057 -0.5294  0.4031  1.3048
12821TIP3    H259955   0.160   1.948   1.029 -0.1152  1.9232  0.9457
12822TIP3   OH259956   0.564   0.278   4.789 -0.0499  0.1362 -0.4379
12822TIP3    H159957   0.639   0.338   4.792 -0.5452  1.2095 -4.5094
12822TIP3    H259958   0.488   0.334   4.809 -0.1805  0.0216 -0.6183
12823TIP3   OH259959   6.239   1.823   3.225 -0.0391 -0.3776 -0.4409
12823TIP3    H159960   6.163   1.787   3.271 -0.4197 -0.2201 -0.9368
12823TIP3    H259961   6.208   1.837   3.136  0.5743 -0.3064 -0.6459
12824TIP3   OH259962   2.151   1.327  11.707  0.2329 -0.0167  0.6066
12824TIP3    H159963   2.163   1.271  11.784  2.0652 -1.2606 -0.5154
12824TIP3    H259964   2.239   1.355  11.684 -0.3686  0.9062 -0.6407
12825TIP3   OH259965   4.716   2.710  13.258 -0.0489 -0.4014  0.3042
12825TIP3    H159966   4.678   2.736  13.175  0.7576  0.0149  0.0510
12825TIP3    H259967   4.781   2.778  13.278 -0.8410 -0.0158  1.7114
12826TIP3   OH259968   4.548   2.904  16.696  1.0810 -0.2441 -0.5365
12826TIP3    H159969   4.506   2.819  16.684  3.5060 -1.5648 -0.2450
12826TIP3    H259970   4.526   2.929  16.786  0.0626 -0.3633 -0.7391
12827TIP3   OH259971   4.108   2.016  12.095 -0.0210  0.5856 -0.1059
12827TIP3    H159972   4.020   2.051  12.104 -0.6828 -0.9494 -0.3636
12827TIP3    H259973   4.156   2.084  12.046 -1.6533  0.5088 -1.9243
12828TIP3   OH259974   2.349   2.057  14.369  0.1744 -0.6598 -0.3422
12828TIP3    H159975   2.268   2.102  14.392  0.0370 -1.6112  1.1421
12828TIP3    H259976   2.333   1.965  14.390  1.3152 -1.0123 -0.9247
12829TIP3   OH259977   3.984   0.611  13.534 -0.5961  0.0127  0.0630
12829TIP3    H159978   3.905   0.664  13.542 -0.2706  0.3675  0.9408
12829TIP3    H259979   3.962   0.527  13.574 -0.9798 -0.4038 -0.9709
12830TIP3   OH259980   6.338   1.146  14.539  0.2601 -0.1417  0.2068
12830TIP3    H159981   6.335   1.105  14.625  1.5224 -0.6870  0.0073
12830TIP3    H259982   6.431   1.158  14.521 -0.0088  0.6111 -0.7871
12831TIP3   OH259983   6.059   5.559   0.636  0.0511  0.1553 -0.3510
12831TIP3    H159984   6.118   5.634   0.646  0.4465 -0.2371  0.3718
12831TIP3    H259985   6.037   5.558   0.543  1.8404 -0.1758 -0.8147
12832TIP3   OH259986   5.341   6.279   0.755 -0.1262 -0.1382 -0.0446
12832TIP3    H159987   5.265   6.296   0.699  0.1136  0.9193 -0.0871
12832TIP3    H259988   5.370   6.366   0.782  0.7733 -0.5509  0.3710
12833TIP3   OH259989   2.773   2.326  10.734 -0.3254  0.0767 -0.0014
12833TIP3    H159990   2.824   2.386  10.680 -0.2587 -0.3513 -0.4198
12833TIP3    H259991   2.789   2.239  10.696 -0.4615 -0.2023  0.5628
12834TIP3   OH259992   1.408   2.841   5.738  0.0680 -0.2455  0.3027
12834TIP3    H159993   1.360   2.762   5.762 -1.9674  0.3323 -1.5161
12834TIP3    H259994   1.341   2.909   5.733  1.4072  1.0760 -0.3500
12835TIP3   OH259995   3.813   5.022   5.578  0.2224 -0.5619 -0.1240
12835TIP3    H159996   3.899   5.041   5.616 -0.1397  0.8567  0.0675
12835TIP3    H259997   3.759   4.995   5.652 -0.0183  0.5134  0.1095
12836TIP3   OH259998   1.878   1.694   0.710 -0.0066 -0.2665  0.8883
12836TIP3    H159999   1.936   1.753   0.756  0.8552 -0.4899  0.1213
12836TIP3    H260000   1.790   1.729   0.725  0.5520  1.9131 -0.5241
12837TIP3   OH260001   5.001   1.835   2.510  0.1669  0.3583 -0.4252
12837TIP3    H160002   4.989   1.795   2.596  1.1621  0.4949 -0.2054
12837TIP3    H260003   4.951   1.780   2.450  1.4225 -1.1940 -0.1181
12838TIP3   OH260004   0.963   0.361   4.173  0.3171 -0.3207  0.3559
12838TIP3    H160005   0.908   0.318   4.238 -0.9381  0.8984  0.1258
12838TIP3    H260006   0.940   0.453   4.178  1.3297  0.0191 -0.7336
12839TIP3   OH260007   0.974   5.704  12.316  0.0587 -0.1815 -0.9845
12839TIP3    H160008   1.015   5.682  12.232  1.2320  0.8830 -0.7258
12839TIP3    H260009   0.945   5.795  12.306  4.2649  1.6931  1.0945
12840TIP3   OH260010   4.845   1.402   4.479 -0.5520 -0.4762  0.0872
12840TIP3    H160011   4.770   1.444   4.436 -0.4998 -2.4630 -2.1388
12840TIP3    H260012   4.813   1.382   4.567 -2.0585  0.2229 -0.2686
12841TIP3   OH260013   0.533   2.599  16.600  0.2391  0.3523 -0.2955
12841TIP3    H160014   0.569   2.553  16.524  0.4931  1.3141 -0.7709
12841TIP3    H260015   0.443   2.620  16.574 -0.2629 -0.8313  0.3612
12842TIP3   OH260016   4.631   5.647  12.817 -0.1821  0.0458 -0.0623
12842TIP3    H160017   4.587   5.589  12.754  0.2918 -2.2905  1.6020
12842TIP3    H260018   4.679   5.587  12.875  2.2987  2.2901  0.3763
12843TIP3   OH260019   2.494   2.655  13.316  0.7116  0.1440 -0.1164
12843TIP3    H160020   2.421   2.594  13.307  0.7570 -0.0093  0.4735
12843TIP3    H260021   2.510   2.658  13.410 -0.3853  2.3502  0.0525
12844TIP3   OH260022   6.571   3.707  15.167  0.4584  0.0010 -0.0267
12844TIP3    H160023   6.520   3.758  15.230  1.7699  1.6728 -0.2258
12844TIP3    H260024   6.540   3.737  15.082  1.0614  0.3181 -0.1448
12845TIP3   OH260025   1.966   2.052  15.541 -0.3068 -0.1456 -0.1722
12845TIP3    H160026   2.035   2.045  15.474  0.8057 -0.1478  0.9307
12845TIP3    H260027   1.981   2.137  15.581 -0.3529 -0.5482  0.7107
12846TIP3   OH260028   2.085   0.644   0.879  0.3181  0.4737  0.1280
12846TIP3    H160029   2.089   0.659   0.785  1.4866  1.2970  0.2863
12846TIP3    H260030   2.113   0.553   0.890 -0.5735  0.1239 -0.3596
12847TIP3   OH260031   5.717   3.048  12.091  0.0328 -0.2833  0.0902
12847TIP3    H160032   5.693   3.065  12.000 -0.0342 -0.3406  0.0968
12847TIP3    H260033   5.679   2.962  12.110 -1.8577  0.6475  0.8314
12848TIP3   OH260034   0.190   3.015  13.343  0.2148 -0.8370  0.0245
12848TIP3    H160035   0.101   2.982  13.329  0.3973 -2.5315  2.2806
12848TIP3    H260036   0.208   3.068  13.265 -2.5325 -0.8936 -0.7619
12849TIP3   OH260037   2.920   6.730  14.297  0.1482 -0.2926 -0.1956
12849TIP3    H160038   2.975   6.653  14.287 -0.0529 -0.6245  1.0666
12849TIP3    H260039   2.861   6.727  14.221 -0.3683 -1.8242  0.2244
12850TIP3   OH260040   6.177   4.549  16.765  0.5511  0.3165 -0.0629
12850TIP3    H160041   6.159   4.642  16.750  1.9074  1.0150  2.1524
12850TIP3    H260042   6.262   4.534  16.725 -0.0410 -0.2169 -1.1534
12851TIP3   OH260043   6.594   5.898  14.341 -0.7216 -0.3137  0.6205
12851TIP3    H160044   6.667   5.854  14.298 -0.5184 -0.9565  1.5807
12851TIP3    H260045   6.561   5.960  14.276  0.7753  0.1057  0.2265
12852TIP3   OH260046   5.152   5.331   0.445  0.1780 -0.2487 -0.1796
12852TIP3    H160047   5.124   5.387   0.517  1.0902 -0.3521  0.2645
12852TIP3    H260048   5.108   5.367   0.368 -1.6805 -0.7871  0.5712
12853TIP3   OH260049   5.022   3.010   1.699  0.0142 -0.6217  0.2534
12853TIP3    H160050   5.084   3.066   1.746 -0.1568  1.5649 -1.9297
12853TIP3    H260051   4.980   2.958   1.768  2.1697 -0.0776  2.0947
12854TIP3   OH260052   5.662   0.982   5.174 -0.4997  0.0022 -0.5036
12854TIP3    H160053   5.635   1.055   5.118  1.2496 -0.1683 -1.6496
12854TIP3    H260054   5.620   0.905   5.134 -1.6068  0.2273  0.1745
12855TIP3   OH260055   3.331   4.351   4.348  0.4439 -0.8871  0.3247
12855TIP3    H160056   3.421   4.380   4.333  0.3405  0.1230  1.4662
12855TIP3    H260057   3.282   4.432   4.366 -0.7755 -1.3864 -0.5959
12856TIP3   OH260058   4.289   1.868   0.048 -0.1021 -0.1471  0.2509
12856TIP3    H160059   4.275   1.904  -0.040  1.0873 -1.1164 -0.3589
12856TIP3    H260060   4.205   1.828   0.071 -0.5743  0.5499 -0.2249
12857TIP3   OH260061   1.427   0.917   1.218 -0.2086  0.2224 -0.3011
12857TIP3    H160062   1.498   0.967   1.177 -0.1096 -1.1352 -1.8861
12857TIP3    H260063   1.440   0.929   1.312  1.6230  0.6553 -0.5774
12858TIP3   OH260064   0.842   3.884  11.828 -0.0385 -0.2871 -0.4068
12858TIP3    H160065   0.902   3.829  11.777 -0.6470 -1.8710  0.5100
12858TIP3    H260066   0.816   3.829  11.902  0.9936  1.9873  1.7991
12859TIP3   OH260067   2.196   1.880  11.960 -0.3051 -0.1523  0.1235
12859TIP3    H160068   2.145   1.885  12.042  0.2816  0.7582  0.4439
12859TIP3    H260069   2.212   1.786  11.948 -1.4179 -0.4011  0.4072
12860TIP3   OH260070   0.445   0.910   0.306  0.6443 -0.2838  0.1899
12860TIP3    H160071   0.363   0.959   0.316  1.2054  0.7039  0.0037
12860TIP3    H260072   0.424   0.822   0.339 -0.0014  0.4395  1.7942
12861TIP3   OH260073   5.117   3.754  13.346  0.0874 -0.0134 -0.0436
12861TIP3    H160074   5.049   3.704  13.301  1.2315 -1.4578 -0.2568
12861TIP3    H260075   5.078   3.778  13.430  0.1276 -3.1553  1.0084
12862TIP3   OH260076   0.246   2.461  12.334 -0.4291  0.4092 -0.0766
12862TIP3    H160077   0.172   2.519  12.316  0.1345  0.7897 -1.2950
12862TIP3    H260078   0.208   2.373  12.333 -1.0008  0.6488  0.1055
12863TIP3   OH260079   2.024   5.235   1.601 -0.6742  0.1261  0.0042
12863TIP3    H160080   1.971   5.157   1.589 -0.4901  0.0798 -0.5451
12863TIP3    H260081   2.095   5.226   1.537 -0.8852  0.9350 -0.3579
12864TIP3   OH260082   0.862   4.396   3.495  0.3079 -0.5651 -0.4503
12864TIP3    H160083   0.836   4.457   3.564  0.3839 -0.8183 -0.1971
12864TIP3    H260084   0.917   4.449   3.437  1.0328 -0.5836  0.1934
12865TIP3   OH260085   5.321   3.885  10.455  0.6198 -0.1408  0.1793
12865TIP3    H160086   5.300   3.971  10.420  3.1726  0.5090  0.1218
12865TIP3    H260087   5.241   3.834  10.442  0.4882  0.8269 -4.0614
12866TIP3   OH260088   4.987   3.477  12.769  0.4087  0.2029  0.1369
12866TIP3    H160089   4.997   3.567  12.800  0.0307  0.3163 -0.0687
12866TIP3    H260090   4.933   3.485  12.690  1.5637 -0.0443 -0.7142
12867TIP3   OH260091   2.242   2.676   0.368 -0.3556 -0.1998 -0.0924
12867TIP3    H160092   2.211   2.751   0.418 -0.1479  0.3505 -0.7724
12867TIP3    H260093   2.162   2.633   0.336 -0.4825  1.0523 -1.6050
12868TIP3   OH260094   6.459   6.625   0.221  0.6782  0.1211  0.3177
12868TIP3    H160095   6.495   6.606   0.307 -0.8755 -1.5004  0.6967
12868TIP3    H260096   6.407   6.705   0.233  1.7044  0.7806  0.4721
12869TIP3   OH260097   0.019   4.052  12.577 -0.0941  0.7867 -0.2628
12869TIP3    H160098  -0.031   4.063  12.497 -0.9011  0.7236  0.2177
12869TIP3    H260099   0.077   4.128  12.581  0.6061  0.3367 -1.3486
12870TIP3   OH260100   2.579   2.917  12.611 -0.2225 -0.3749  0.1644
12870TIP3    H160101   2.644   2.846  12.615  0.8208  0.5846  1.0049
12870TIP3    H260102   2.610   2.973  12.540 -2.1047 -1.6941 -1.8194
12871TIP3   OH260103   2.270   6.781  16.506  0.1782 -0.1087  0.4026
12871TIP3    H160104   2.185   6.799  16.467  0.8397  0.6428 -0.7551
12871TIP3    H260105   2.305   6.867  16.529  1.2199 -0.2824 -0.4619
12872TIP3   OH260106   1.211   5.544   5.025 -0.3294  0.2548 -0.1987
12872TIP3    H160107   1.280   5.481   5.044  0.3074  0.7485 -0.8354
12872TIP3    H260108   1.257   5.621   4.991 -0.6428  2.6186  4.0406
12873TIP3   OH260109   4.868   0.804   3.736  0.1474  0.6894 -0.0974
12873TIP3    H160110   4.786   0.760   3.760  0.5039  0.0302 -0.0605
12873TIP3    H260111   4.936   0.753   3.780  0.6037  1.0189 -0.4146
12874TIP3   OH260112   4.220   2.861  12.376 -0.4743  0.2553 -0.3678
12874TIP3    H160113   4.289   2.887  12.314 -0.7687 -0.2036 -0.8966
12874TIP3    H260114   4.265   2.804  12.438 -0.8845 -2.3182 -2.2950
12875TIP3   OH260115   3.889   4.987   6.427  0.7667 -0.2811  0.3642
12875TIP3    H160116   3.857   5.070   6.391 -2.2384 -1.5709 -0.2688
12875TIP3    H260117   3.818   4.925   6.410  2.6868 -2.8979  1.2459
12876TIP3   OH260118   0.386   4.386   3.410 -0.1793  0.1728  0.0325
12876TIP3    H160119   0.481   4.371   3.410  0.0425  1.4329  0.5800
12876TIP3    H260120   0.376   4.474   3.446 -1.5404  0.2182 -0.4078
12877TIP3   OH260121   4.825   6.535  11.942  0.1346 -0.7863  0.7334
12877TIP3    H160122   4.789   6.534  11.854  1.3119  0.4847  0.1972
12877TIP3    H260123   4.752   6.563  11.998 -0.4601 -1.0239  0.0779
12878TIP3   OH260124   0.617   5.782  15.173  0.3947 -0.5008 -0.0289
12878TIP3    H160125   0.608   5.844  15.244 -0.8404 -0.7231  0.0359
12878TIP3    H260126   0.551   5.809  15.109  0.1309 -1.4684 -0.1910
12879TIP3   OH260127   4.839   2.020  11.246 -1.0344 -0.0967 -0.5095
12879TIP3    H160128   4.910   2.018  11.182  0.0599  3.9005  0.2782
12879TIP3    H260129   4.882   1.998  11.329 -1.4966 -0.8807 -0.4620
12880TIP3   OH260130   2.481   6.751  15.733  0.0131  0.0682  0.0928
12880TIP3    H160131   2.507   6.701  15.656  2.9696 -0.3981  1.2580
12880TIP3    H260132   2.477   6.841  15.703 -0.8728 -0.3073 -1.0014
12881TIP3   OH260133   5.339   6.401   6.268  0.3012  0.2690  0.4168
12881TIP3    H160134   5.258   6.364   6.300 -0.8361  0.7365 -1.6977
12881TIP3    H260135   5.315   6.488   6.236  1.6227  0.4281 -0.2336
12882TIP3   OH260136   1.460   6.478  16.520 -0.6300 -0.5567  0.4746
12882TIP3    H160137   1.495   6.432  16.444 -0.4342  0.0232  0.2078
12882TIP3    H260138   1.446   6.567  16.490 -0.7834 -0.3796  1.0519
12883TIP3   OH260139   0.589   5.668   1.993 -0.9535  0.1068  0.9561
12883TIP3    H160140   0.664   5.687   1.936 -0.6331  0.2853  1.4269
12883TIP3    H260141   0.628   5.654   2.079 -1.2055 -2.4266  0.7337
12884TIP3   OH260142   4.779   5.178  12.824  0.1807  0.1443 -0.1880
12884TIP3    H160143   4.737   5.249  12.871  0.7400 -0.1037  0.7174
12884TIP3    H260144   4.707   5.128  12.785 -0.5649 -1.1448  2.5582
12885TIP3   OH260145   2.494   6.560   6.102  0.2029  0.2014 -0.0448
12885TIP3    H160146   2.575   6.598   6.138 -0.4968  0.0385  1.8236
12885TIP3    H260147   2.424   6.613   6.139 -0.5779  1.4413 -2.9871
12886TIP3   OH260148   5.867   1.404   2.230 -0.4572  0.2688 -0.2334
12886TIP3    H160149   5.859   1.465   2.157  0.4766 -0.6338 -1.1260
12886TIP3    H260150   5.845   1.319   2.192  3.1564 -0.7737 -0.3531
12887TIP3   OH260151   5.168   5.215   1.109  0.1264  0.4447 -0.3688
12887TIP3    H160152   5.205   5.261   1.185  1.1228 -1.0154  0.0818
12887TIP3    H260153   5.173   5.122   1.133 -0.0767 -0.0167 -1.9928
12888TIP3   OH260154   2.861   0.391  15.640  0.2517 -0.4905 -0.7107
12888TIP3    H160155   2.773   0.355  15.625  0.0260  0.0459 -0.7017
12888TIP3    H260156   2.910   0.367  15.562 -0.4333  0.7934 -1.5882
12889TIP3   OH260157   1.537   6.192   2.022  0.5963  0.2851  0.2738
12889TIP3    H160158   1.630   6.180   2.044  0.2481 -0.8980  1.2315
12889TIP3    H260159   1.513   6.112   1.977  0.3435  1.1494 -1.1691
12890TIP3   OH260160   3.724   2.397   0.263 -0.0754  0.1386 -0.1673
12890TIP3    H160161   3.713   2.307   0.294  2.6049 -0.8928 -1.8361
12890TIP3    H260162   3.751   2.446   0.340  1.3429 -1.1930  0.2220
12891TIP3   OH260163   1.800   5.447  16.838  0.4820  0.3337 -0.3960
12891TIP3    H160164   1.819   5.378  16.775 -1.1357  1.4509 -2.2450
12891TIP3    H260165   1.722   5.417  16.883 -0.4267  1.0333 -1.4420
12892TIP3   OH260166   0.554   0.148   1.451  0.0597 -0.2294 -0.2829
12892TIP3    H160167   0.563   0.070   1.506 -0.5727 -0.3091 -0.2757
12892TIP3    H260168   0.641   0.163   1.416  0.2219 -0.8612 -0.1729
12893TIP3   OH260169   6.254   4.183   4.926 -0.1017 -0.2879  0.5937
12893TIP3    H160170   6.288   4.264   4.887 -0.1220 -0.7074 -0.3101
12893TIP3    H260171   6.261   4.197   5.020  2.0100 -0.1165  0.4515
12894TIP3   OH260172   4.785   6.801   2.289  0.3743  0.1916 -0.1036
12894TIP3    H160173   4.726   6.822   2.217 -1.3283  1.3333  1.5467
12894TIP3    H260174   4.803   6.885   2.331  0.4700 -0.5692  1.4380
12895TIP3   OH260175   6.813   1.781   4.179 -0.0631  0.5685  0.4572
12895TIP3    H160176   6.823   1.832   4.260  1.0320 -0.1103  0.7668
12895TIP3    H260177   6.722   1.796   4.153  0.2166  2.7172  0.4963
12896TIP3   OH260178   5.060   0.300  15.113 -0.1426  0.2218  0.2976
12896TIP3    H160179   5.071   0.211  15.144 -1.0155 -0.2081 -0.5759
12896TIP3    H260180   5.133   0.348  15.152  0.7195 -1.0036  0.2603
12897TIP3   OH260181   1.385   1.840  14.407 -0.1784  0.6957  0.0700
12897TIP3    H160182   1.460   1.787  14.382 -0.1568  1.0134 -0.5638
12897TIP3    H260183   1.335   1.784  14.466  0.6814  0.5732  0.6971
12898TIP3   OH260184   1.686   1.755  11.837  0.2531  0.2907  0.1972
12898TIP3    H160185   1.759   1.817  11.842 -0.7493  1.5674 -0.3707
12898TIP3    H260186   1.720   1.681  11.787  0.7376  1.5531 -1.4325
12899TIP3   OH260187   3.596   3.849  12.432 -0.4505 -0.7569 -0.4888
12899TIP3    H160188   3.513   3.802  12.428 -0.9724 -0.0112  1.0983
12899TIP3    H260189   3.655   3.790  12.479 -0.8999 -0.1481  0.8655
12900TIP3   OH260190   3.503   2.950   4.551  0.6822  0.8688  0.3225
12900TIP3    H160191   3.534   2.881   4.492 -0.6457  0.5927 -0.0869
12900TIP3    H260192   3.423   2.983   4.509  1.3693  2.7743  0.4345
12901TIP3   OH260193   1.089   0.719   3.040  0.6280  0.0747  0.3358
12901TIP3    H160194   1.126   0.699   2.954 -1.7529  1.2158 -1.0723
12901TIP3    H260195   1.135   0.799   3.067  0.8129  0.1893 -0.2916
12902TIP3   OH260196   4.655   3.121  14.262  0.1103 -0.0240 -0.2153
12902TIP3    H160197   4.641   3.036  14.303  1.0751  0.3542  0.9707
12902TIP3    H260198   4.643   3.184  14.333  1.0736  0.7153 -0.6890
12903TIP3   OH260199   1.994   0.101   3.932  0.0578 -0.6229 -0.0062
12903TIP3    H160200   1.994   0.049   3.851  1.5059 -0.9599  0.1913
12903TIP3    H260201   1.903   0.096   3.963 -0.0256 -2.4458 -0.3925
12904TIP3   OH260202   0.399   4.283   2.013 -0.2588  0.6430  0.4236
12904TIP3    H160203   0.422   4.346   1.945  0.4976  1.8115  1.7057
12904TIP3    H260204   0.304   4.288   2.020 -0.1371  2.6282  1.3492
12905TIP3   OH260205   4.720   5.296   0.577  0.4089  0.5291  0.1143
12905TIP3    H160206   4.780   5.357   0.534  1.3190 -0.1237  0.4288
12905TIP3    H260207   4.648   5.285   0.515  1.7812 -0.5342 -1.3682
12906TIP3   OH260208   0.427   2.852  15.785 -0.4367  0.1533  0.7585
12906TIP3    H160209   0.479   2.882  15.860 -1.6579  0.1293  1.6356
12906TIP3    H260210   0.404   2.932  15.738 -0.8263  0.2921  1.1844
12907TIP3   OH260211   3.636   5.277   0.931 -0.5528 -0.4475  0.1593
12907TIP3    H160212   3.577   5.202   0.943 -1.2636  0.1841  0.7044
12907TIP3    H260213   3.632   5.324   1.014 -0.0161  0.1333 -0.1366
12908TIP3   OH260214   3.171   3.389   6.034  0.7512 -0.1822  0.9211
12908TIP3    H160215   3.090   3.433   6.058  0.0851 -1.9640  2.0744
12908TIP3    H260216   3.234   3.416   6.101  0.3430 -0.9851  1.6312
12909TIP3   OH260217   1.937   6.811   3.200  0.1711 -0.2780 -0.5371
12909TIP3    H160218   1.926   6.862   3.120 -0.4780 -0.2245 -0.4271
12909TIP3    H260219   1.848   6.807   3.237  0.5925  0.3834  0.5901
12910TIP3   OH260220   5.805   3.812   2.163  0.0299  0.1901 -0.1367
12910TIP3    H160221   5.784   3.902   2.142 -0.9095 -0.1780 -0.8464
12910TIP3    H260222   5.832   3.815   2.255  0.1416  1.2069 -0.1926
12911TIP3   OH260223   4.347   5.899   5.603 -0.1058  0.2511  0.1875
12911TIP3    H160224   4.331   5.929   5.693 -2.3026 -2.0127  0.6611
12911TIP3    H260225   4.286   5.950   5.550 -0.0597  0.3486  0.2271
12912TIP3   OH260226   6.687   5.483  15.972 -0.2952  0.5490  0.2411
12912TIP3    H160227   6.631   5.407  15.986  0.2762  0.2450  0.9143
12912TIP3    H260228   6.701   5.519  16.060 -1.1309  1.8600 -0.1221
12913TIP3   OH260229   3.736   0.324  12.349  0.2375  0.3033  0.2352
12913TIP3    H160230   3.709   0.321  12.257 -1.1838 -0.2609  0.6413
12913TIP3    H260231   3.832   0.326  12.345  0.2526 -1.0099 -1.2355
12914TIP3   OH260232   5.404   5.424   0.348 -0.0747  0.1825  0.5764
12914TIP3    H160233   5.319   5.389   0.376 -0.4446  0.1282 -0.5783
12914TIP3    H260234   5.413   5.507   0.394 -0.3552 -0.2160  1.3655
12915TIP3   OH260235   0.291   3.534   2.611  0.3526  0.5137  0.1557
12915TIP3    H160236   0.219   3.584   2.649 -0.0063 -0.2388  0.4921
12915TIP3    H260237   0.257   3.444   2.604  0.7171  0.4603 -1.1433
12916TIP3   OH260238   2.193   3.797   1.834 -0.0542 -0.1114  0.0892
12916TIP3    H160239   2.153   3.753   1.908 -0.4281 -0.8719 -0.5501
12916TIP3    H260240   2.287   3.781   1.843 -0.0003  0.6167  0.9117
12917TIP3   OH260241   3.346   1.553   2.888 -0.1439  0.3120  0.2133
12917TIP3    H160242   3.433   1.557   2.927 -0.7072  1.3812  1.4284
12917TIP3    H260243   3.315   1.465   2.906  0.5455  0.0359  0.0799
12918TIP3   OH260244   3.460   0.754   4.767 -0.0684 -0.1988  0.3311
12918TIP3    H160245   3.365   0.758   4.762  0.0254  1.3342 -1.0470
12918TIP3    H260246   3.485   0.830   4.819  0.4096 -0.6473  0.7643
12919TIP3   OH260247   2.875   6.127  13.197  0.4615 -0.1654  0.3021
12919TIP3    H160248   2.845   6.109  13.286  0.9995 -0.8025  0.3617
12919TIP3    H260249   2.808   6.184  13.160  0.3857  0.3472  1.2110
12920TIP3   OH260250   1.094   2.202  13.392 -0.2179  0.2548  0.1551
12920TIP3    H160251   1.053   2.162  13.316 -0.2963 -1.9635  1.2833
12920TIP3    H260252   1.166   2.144  13.414  0.6025  1.5412  1.0376
12921TIP3   OH260253   6.185   1.547   3.577 -0.5105 -0.0813  0.5387
12921TIP3    H160254   6.250   1.615   3.599 -0.5906 -0.0357  0.6338
12921TIP3    H260255   6.193   1.483   3.647  0.2525 -0.6621 -0.0630
12922TIP3   OH260256   5.487   6.227  14.662  0.4481 -0.7471  0.1706
12922TIP3    H160257   5.521   6.193  14.579  0.7555  0.4592 -0.2160
12922TIP3    H260258   5.479   6.321  14.648 -0.9565 -0.7092  1.0089
12923TIP3   OH260259   5.888   0.620  12.812 -0.2606  0.0218  0.2475
12923TIP3    H160260   5.955   0.591  12.873  1.3731  0.5312 -1.2065
12923TIP3    H260261   5.846   0.694  12.856  1.1149  0.6028  0.6295
12924TIP3   OH260262   0.963   2.226  17.104 -0.4107 -0.2150 -0.3626
12924TIP3    H160263   0.986   2.137  17.132  0.3436  0.0681 -0.0653
12924TIP3    H260264   0.876   2.241  17.142 -0.7744 -1.0134 -0.8545
12925TIP3   OH260265   2.942   4.772  16.034 -0.0163  0.3449  0.3014
12925TIP3    H160266   3.006   4.806  16.096  1.4486  1.1545 -1.5298
12925TIP3    H260267   2.963   4.679  16.026  1.0883  0.6265 -0.3798
12926TIP3   OH260268   2.558   3.961  12.962  0.5070  0.4393  0.4478
12926TIP3    H160269   2.598   4.025  13.021  0.3342  1.9493 -0.9850
12926TIP3    H260270   2.471   3.998  12.943  1.1912  0.9314 -2.0697
12927TIP3   OH260271   1.095   6.150  14.584 -0.0200 -0.2343 -0.0502
12927TIP3    H160272   1.152   6.184  14.653 -2.0666  0.4213  1.4315
12927TIP3    H260273   1.091   6.220  14.519 -1.8832  1.2856  1.5756
12928TIP3   OH260274   3.518   6.599   2.399 -0.1858 -0.0647 -0.2539
12928TIP3    H160275   3.483   6.682   2.366 -2.1445  0.2144  2.2386
12928TIP3    H260276   3.572   6.624   2.474 -1.8534 -1.0249  1.3464
12929TIP3   OH260277   1.342   3.820  13.329  0.2348  0.3130 -0.2681
12929TIP3    H160278   1.255   3.828  13.289 -0.4902 -0.0029  1.2058
12929TIP3    H260279   1.366   3.909  13.353 -0.0145  0.3100 -0.0037
12930TIP3   OH260280   3.116   1.568  12.760  0.6739 -0.0006 -0.0139
12930TIP3    H160281   3.038   1.570  12.703 -0.2913 -0.5729  1.2497
12930TIP3    H260282   3.089   1.517  12.836  2.5651 -0.9425  0.0922
12931TIP3   OH260283   0.684   5.212   4.481  0.3634 -0.5097 -0.0305
12931TIP3    H160284   0.640   5.157   4.545 -0.0105 -0.1826 -0.0082
12931TIP3    H260285   0.777   5.187   4.488  0.2005 -1.1288 -0.0163
12932TIP3   OH260286   5.260   0.084  16.474 -0.1477  0.4572  0.3762
12932TIP3    H160287   5.320   0.013  16.454  0.5642  1.3489 -0.7769
12932TIP3    H260288   5.204   0.091  16.397 -0.2396  1.0923  0.4925
12933TIP3   OH260289   0.840   0.090   5.423  0.1256  0.4839 -0.2582
12933TIP3    H160290   0.853   0.045   5.506 -0.3237  1.5273  0.4114
12933TIP3    H260291   0.806   0.177   5.448  3.0148  2.0598 -1.3176
12934TIP3   OH260292   1.662   3.913  11.668 -0.4846  0.0073  0.0307
12934TIP3    H160293   1.734   3.903  11.605 -1.1293 -0.1606 -0.6886
12934TIP3    H260294   1.631   3.823  11.682 -1.2533  0.1895 -0.4893
12935TIP3   OH260295   4.676   6.669   0.028 -0.2178 -0.1914  0.2706
12935TIP3    H160296   4.765   6.699   0.050  0.5669 -1.3686 -1.0983
12935TIP3    H260297   4.654   6.608   0.098  0.0816  0.0503  0.5834
12936TIP3   OH260298   3.941   4.252  16.332 -0.3880  0.5098  0.2818
12936TIP3    H160299   4.015   4.213  16.286  0.8866  0.8101  1.9780
12936TIP3    H260300   3.950   4.346  16.316  0.9788  0.7972  2.2449
12937TIP3   OH260301   4.985   0.686  16.281  0.1268 -1.0889  0.1387
12937TIP3    H160302   4.915   0.622  16.290 -2.4714  1.7622  2.5090
12937TIP3    H260303   5.038   0.676  16.360 -0.1434 -0.4861  0.3999
12938TIP3   OH260304   0.171   1.776  14.989 -0.5212  0.0281 -0.1315
12938TIP3    H160305   0.079   1.792  15.006 -0.4763  0.5408 -0.3320
12938TIP3    H260306   0.175   1.685  14.960 -0.7619 -0.4658  1.3035
12939TIP3   OH260307   1.848   2.486   6.674 -0.6104 -0.0749 -0.0662
12939TIP3    H160308   1.900   2.505   6.596  1.4400 -2.5975  0.5284
12939TIP3    H260309   1.812   2.399   6.659  1.4024 -1.4921  2.4303
12940TIP3   OH260310   4.321   3.294  13.431 -0.4211  0.9003  0.1660
12940TIP3    H160311   4.416   3.299  13.423 -0.3781 -0.6365 -0.5331
12940TIP3    H260312   4.288   3.374  13.388  0.4679  0.4012 -1.5017
12941TIP3   OH260313   0.160   6.122  14.858 -0.0566 -0.4818 -0.2917
12941TIP3    H160314   0.087   6.068  14.886 -1.1705 -0.2202 -2.4396
12941TIP3    H260315   0.121   6.208  14.838  0.7375 -0.3972 -1.6995
12942TIP3   OH260316   6.757   3.715  10.922 -0.6916  0.2999 -0.8488
12942TIP3    H160317   6.705   3.654  10.975  0.6060  0.2057  0.3767
12942TIP3    H260318   6.740   3.801  10.962 -0.1606  0.3065 -0.6277
12943TIP3   OH260319   3.000   6.266   4.333  0.5607  0.5013  0.0308
12943TIP3    H160320   2.923   6.289   4.384  0.6808 -0.9928  0.9657
12943TIP3    H260321   3.061   6.338   4.347  0.4004  0.3597  1.6366
12944TIP3   OH260322   0.344   1.814  12.222  0.0335 -0.3625 -0.0704
12944TIP3    H160323   0.305   1.828  12.136  1.0152  1.1718 -0.2874
12944TIP3    H260324   0.431   1.854  12.217  0.4376 -0.9795  1.3770
12945TIP3   OH260325   2.710   5.489   3.223  0.1783  0.6103  0.1114
12945TIP3    H160326   2.785   5.539   3.194  0.4017  0.5291  0.5374
12945TIP3    H260327   2.719   5.485   3.318 -1.1228  1.8317  0.3249
12946TIP3   OH260328   1.419   6.481  11.810 -0.2741 -0.8369 -0.5473
12946TIP3    H160329   1.442   6.501  11.719  0.6001 -0.7849 -0.3306
12946TIP3    H260330   1.487   6.525  11.861 -0.8843 -0.6867  0.1454
12947TIP3   OH260331   1.416   1.612  13.196  0.0479  0.3628  0.1525
12947TIP3    H160332   1.444   1.569  13.276  0.4385 -1.1204 -0.7411
12947TIP3    H260333   1.321   1.621  13.206 -0.1228 -1.1559  0.1933
12948TIP3   OH260334   0.181   1.417  13.487  0.0761 -0.4907  0.1042
12948TIP3    H160335   0.169   1.421  13.392 -0.8051  0.4935  0.2332
12948TIP3    H260336   0.263   1.463  13.503  1.3516 -2.5259 -0.3421
12949TIP3   OH260337   0.656   5.145   6.592  0.1008 -0.3397  0.5963
12949TIP3    H160338   0.595   5.211   6.626 -0.0654 -0.5729  0.7537
12949TIP3    H260339   0.720   5.135   6.662  2.1192  2.1304 -0.7176
12950TIP3   OH260340   0.542   2.605   1.177  0.8135  0.8298 -0.5029
12950TIP3    H160341   0.539   2.605   1.273 -1.1598 -1.5947 -0.4830
12950TIP3    H260342   0.486   2.679   1.152 -2.3833 -1.1056  0.3210
12951TIP3   OH260343   1.705   2.230   3.507  0.0886 -0.0973 -0.1498
12951TIP3    H160344   1.712   2.287   3.431 -0.4986 -0.1014 -0.2162
12951TIP3    H260345   1.778   2.169   3.499  0.8212  0.7441  0.0121
12952TIP3   OH260346   3.460   2.834   3.468  0.4573  0.5918 -0.1320
12952TIP3    H160347   3.509   2.759   3.435 -0.4270 -0.1403  0.1566
12952TIP3    H260348   3.444   2.813   3.560 -1.0258  0.4275 -0.3869
12953TIP3   OH260349   5.501   1.405  12.089 -0.8292  0.1807 -0.1657
12953TIP3    H160350   5.579   1.357  12.062 -0.2012  1.6627 -1.1287
12953TIP3    H260351   5.520   1.433  12.179 -0.9758 -0.8727  0.2028
12954TIP3   OH260352   2.464   0.664   4.171  0.6261 -0.7408 -0.2918
12954TIP3    H160353   2.406   0.592   4.144  2.8183 -2.1980 -1.4900
12954TIP3    H260354   2.474   0.717   4.092  0.0951  0.1174  0.2106
12955TIP3   OH260355   4.675   6.052  13.502  0.1595  0.2081 -0.7155
12955TIP3    H160356   4.679   6.101  13.584 -0.8464  1.1412 -1.2041
12955TIP3    H260357   4.725   6.104  13.440 -0.7250  0.5144 -1.1826
12956TIP3   OH260358   4.313   0.796  15.684  0.5569  0.3673 -0.0320
12956TIP3    H160359   4.342   0.812  15.774  1.4353 -0.0309 -0.2321
12956TIP3    H260360   4.350   0.711  15.661  1.1949  0.9041 -1.1030
12957TIP3   OH260361   3.786   4.028   4.257 -0.1973 -0.2090 -0.9409
12957TIP3    H160362   3.849   4.078   4.206  0.5065 -1.4907 -1.3693
12957TIP3    H260363   3.791   3.940   4.221  1.1450 -1.4717  2.0395
12958TIP3   OH260364   2.644   3.681   4.216 -0.1298 -0.0154  0.0201
12958TIP3    H160365   2.564   3.635   4.244  0.0943 -1.0665 -0.9694
12958TIP3    H260366   2.715   3.634   4.258  0.0861 -0.4539 -0.8000
12959TIP3   OH260367   2.893   0.296  16.445 -0.5738  0.3563 -0.0635
12959TIP3    H160368   2.964   0.232  16.448 -0.0018  0.8267 -1.7957
12959TIP3    H260369   2.929   0.368  16.393 -0.5429  2.9432  3.2108
12960TIP3   OH260370   5.789   3.112   1.376  0.2039  0.3918 -0.3383
12960TIP3    H160371   5.845   3.055   1.324  0.3538  0.4053 -0.1913
12960TIP3    H260372   5.701   3.075   1.367  0.5496 -0.8426  1.1227
12961TIP3   OH260373   3.939   1.249   4.202  0.6182 -0.4428 -0.6890
12961TIP3    H160374   3.897   1.333   4.216 -0.1291 -0.8309 -0.5739
12961TIP3    H260375   3.951   1.243   4.107  1.8693  0.3517 -0.6087
12962TIP3   OH260376   6.203   5.616  14.681  0.0912  0.3220  0.2621
12962TIP3    H160377   6.231   5.679  14.747  1.2888  0.1251 -0.0327
12962TIP3    H260378   6.276   5.555  14.673 -0.8515 -0.8319  0.1916
12963TIP3   OH260379   4.859   2.291  16.099 -0.2352 -0.6254 -0.3009
12963TIP3    H160380   4.830   2.227  16.164  0.5668  1.7695  2.6546
12963TIP3    H260381   4.778   2.326  16.062 -0.9688  0.1845  1.8573
12964TIP3   OH260382   5.611   1.173  13.625 -0.3882  0.1788 -0.4124
12964TIP3    H160383   5.563   1.123  13.691 -0.2238  1.2958  0.5777
12964TIP3    H260384   5.695   1.128  13.617 -0.7617 -0.5097 -0.5633
12965TIP3   OH260385   1.289   6.248   5.959 -0.2607 -0.2794 -0.0446
12965TIP3    H160386   1.336   6.172   5.924 -0.1145 -0.6965  1.0404
12965TIP3    H260387   1.247   6.287   5.882  3.3205  1.2321 -1.4815
12966TIP3   OH260388   4.065   0.851  15.535 -0.2987 -0.2953  0.0802
12966TIP3    H160389   4.061   0.764  15.496 -2.0519  0.7391 -2.2915
12966TIP3    H260390   4.155   0.857  15.569  0.2251 -2.6052 -0.6706
12967TIP3   OH260391   3.935   2.444  14.369  0.0770 -0.0906 -0.4625
12967TIP3    H160392   4.012   2.415  14.418  0.1111 -0.1795 -0.5678
12967TIP3    H260393   3.861   2.424  14.427  0.2128  1.0228  0.1131
12968TIP3   OH260394   4.378   3.090   5.816 -0.2246  0.6201 -0.6809
12968TIP3    H160395   4.365   2.995   5.806  3.3456 -0.0951 -0.1776
12968TIP3    H260396   4.422   3.116   5.735 -1.7597  2.0671 -1.1046
12969TIP3   OH260397   5.647   5.048   2.409 -0.1355  0.6029 -0.0341
12969TIP3    H160398   5.661   5.139   2.384 -1.2433  0.6928 -0.3965
12969TIP3    H260399   5.670   5.044   2.502  0.4379  1.1237 -0.1490
12970TIP3   OH260400   4.909   5.570  11.460 -0.7152 -0.0320 -0.3602
12970TIP3    H160401   4.927   5.498  11.399 -0.6613  0.3281 -0.7727
12970TIP3    H260402   4.813   5.574  11.464 -0.7195 -0.2306 -0.2062
12971TIP3   OH260403   3.647   2.355  15.663 -0.5157 -0.3398  0.5730
12971TIP3    H160404   3.562   2.343  15.621 -0.6791  0.5902  0.6206
12971TIP3    H260405   3.626   2.361  15.757 -0.3841 -0.2585  0.5967
12972TIP3   OH260406   3.098   3.562   1.580 -0.1383 -0.6268  0.1572
12972TIP3    H160407   3.021   3.598   1.536  0.8455  1.3591 -0.0526
12972TIP3    H260408   3.078   3.571   1.674 -0.7419 -1.4882  0.1231
12973TIP3   OH260409   1.214   5.195  17.119 -0.1059  0.3472 -0.2735
12973TIP3    H160410   1.310   5.198  17.122 -0.1503  0.9404  1.5538
12973TIP3    H260411   1.194   5.108  17.085  1.0644  0.2753 -0.8388
12974TIP3   OH260412   1.801   3.281   1.522  0.5533 -0.5081  0.5255
12974TIP3    H160413   1.836   3.364   1.491  2.0056 -0.9380  0.9319
12974TIP3    H260414   1.846   3.215   1.468 -0.2365 -1.0460  0.5191
12975TIP3   OH260415   0.915   6.069   0.286 -0.8483  0.0117 -0.0708
12975TIP3    H160416   0.958   6.105   0.209 -0.5762 -0.4714 -0.1489
12975TIP3    H260417   0.896   6.145   0.341  4.9671  0.0913  2.5924
12976TIP3   OH260418   2.372   5.043   1.072  0.7293 -0.2047  0.1048
12976TIP3    H160419   2.321   5.000   1.140 -1.3064  1.0674 -0.5323
12976TIP3    H260420   2.347   4.999   0.991  1.6583 -0.4259 -0.0763
12977TIP3   OH260421   0.701   6.521   2.469 -0.1415 -0.2793 -0.7809
12977TIP3    H160422   0.672   6.591   2.528 -0.2917 -0.7723 -0.2664
12977TIP3    H260423   0.748   6.567   2.400 -1.6005  0.4767 -1.2968
12978TIP3   OH260424   5.719   6.285  16.359 -0.2036 -0.1098 -0.2916
12978TIP3    H160425   5.787   6.232  16.318 -2.1965 -2.2053 -1.1094
12978TIP3    H260426   5.764   6.363  16.389  2.6786 -1.7088 -0.1391
12979TIP3   OH260427   1.818   1.120   6.674 -0.5187  0.0128 -1.0454
12979TIP3    H160428   1.890   1.134   6.735 -1.4113  3.1550 -0.5538
12979TIP3    H260429   1.741   1.105   6.729 -0.3987 -3.3169 -1.5658
12980TIP3   OH260430   4.340   6.148  11.103  0.1169 -0.5557  0.4793
12980TIP3    H160431   4.247   6.159  11.122  0.1328 -1.3635  1.0543
12980TIP3    H260432   4.355   6.203  11.025 -0.7020  0.0453  0.7283
12981TIP3   OH260433   6.207   0.789   2.032 -0.4908 -0.1810 -0.1186
12981TIP3    H160434   6.271   0.808   2.101  1.5829 -1.7414 -1.4863
12981TIP3    H260435   6.166   0.874   2.013  0.6394  0.7351  1.3224
12982TIP3   OH260436   6.451   2.695  13.156  0.1330  0.3137  0.4578
12982TIP3    H160437   6.440   2.606  13.190 -1.1260  0.2298 -0.1293
12982TIP3    H260438   6.500   2.682  13.074  0.4056  0.2231  0.6310
12983TIP3   OH260439   3.351   3.112   3.613  1.0219 -0.1102 -0.2703
12983TIP3    H160440   3.367   3.086   3.522 -0.0749 -0.8545 -0.2579
12983TIP3    H260441   3.269   3.160   3.610  0.9275 -0.2304  0.3555
12984TIP3   OH260442   5.446   0.595   1.969  0.0219  0.0816  0.2015
12984TIP3    H160443   5.398   0.541   2.032 -0.1732  0.0940  0.0650
12984TIP3    H260444   5.377   0.643   1.922  0.1346 -0.3902 -0.4459
12985TIP3   OH260445   1.199   6.127   0.719  0.0212  0.6087 -0.0800
12985TIP3    H160446   1.208   6.194   0.651 -0.3584  0.6743 -0.0711
12985TIP3    H260447   1.105   6.122   0.735  0.0923  0.4557  0.3036
12986TIP3   OH260448   2.458   4.714  13.826 -0.4945 -0.0043 -0.4097
12986TIP3    H160449   2.447   4.722  13.921  1.2469 -0.6519 -0.1267
12986TIP3    H260450   2.549   4.688  13.814  0.0856  2.5890 -2.4241
12987TIP3   OH260451   2.328   6.384  11.464  0.0763  0.4668 -0.6025
12987TIP3    H160452   2.355   6.292  11.458 -0.3226  0.0824  2.1989
12987TIP3    H260453   2.393   6.424  11.522 -0.9394  1.4530 -0.1218
12988TIP3   OH260454   6.355   6.168  11.735  0.7528  0.5204  0.0153
12988TIP3    H160455   6.303   6.163  11.654 -0.4279  0.1203  0.7681
12988TIP3    H260456   6.294   6.202  11.800  1.4268 -0.0280  0.9514
12989TIP3   OH260457   3.475   4.432   5.623 -0.4167  0.4192  0.4252
12989TIP3    H160458   3.483   4.430   5.718  2.3455 -0.5417  0.2439
12989TIP3    H260459   3.457   4.341   5.598 -0.9151  0.6273  0.0094
12990TIP3   OH260460   3.017   4.549  13.294  0.2716 -0.6584  0.6120
12990TIP3    H160461   3.106   4.578  13.275  0.4257 -0.1473  1.9889
12990TIP3    H260462   3.028   4.459  13.325  0.0511 -1.3854 -1.3008
12991TIP3   OH260463   1.949   5.402  17.113  0.2410  0.0711 -0.0700
12991TIP3    H160464   1.885   5.470  17.090 -0.3577 -0.6483 -0.5789
12991TIP3    H260465   1.950   5.343  17.038  1.5802  0.1071 -0.0962
12992TIP3   OH260466   1.769   4.130   4.824 -0.4968  0.5932 -0.6973
12992TIP3    H160467   1.797   4.218   4.848 -0.2089  0.0093  1.3123
12992TIP3    H260468   1.840   4.073   4.854 -1.7106 -0.5096  0.2192
12993TIP3   OH260469   6.549   4.427   1.478  0.0950 -0.3656 -0.0730
12993TIP3    H160470   6.469   4.381   1.504  1.5794 -1.4939  2.8622
12993TIP3    H260471   6.616   4.359   1.475  1.3402  0.8409 -0.6664
12994TIP3   OH260472   1.929   6.316   2.633 -0.2247 -0.3232 -0.8755
12994TIP3    H160473   2.015   6.277   2.650 -0.6473 -0.9580 -0.1522
12994TIP3    H260474   1.868   6.262   2.683 -0.7558  1.6986  0.8162
12995TIP3   OH260475   6.609   2.884  12.610  0.0277 -0.2132 -0.0021
12995TIP3    H160476   6.570   2.849  12.530  1.6505 -0.9875 -0.5073
12995TIP3    H260477   6.650   2.966  12.583 -1.8545  1.0092  0.6969
12996TIP3   OH260478   3.179   6.290  16.410 -0.1162 -0.5533 -0.0739
12996TIP3    H160479   3.260   6.324  16.448  0.0242 -0.2580 -0.6324
12996TIP3    H260480   3.203   6.204  16.377  0.6456  0.5153 -2.4948
12997TIP3   OH260481   3.319   1.231   6.312 -0.2934  0.4855 -0.5702
12997TIP3    H160482   3.372   1.178   6.252 -0.6276  0.3873 -0.7883
12997TIP3    H260483   3.365   1.227   6.395  0.2984  0.8045 -0.8761
12998TIP3   OH260484   3.750   1.273   3.265 -0.8172  0.2700 -0.0266
12998TIP3    H160485   3.835   1.312   3.242 -1.1993  0.4270 -1.2389
12998TIP3    H260486   3.712   1.336   3.327  0.3495 -0.2914  1.3293
12999TIP3   OH260487   1.834   2.328   4.047  0.4577 -0.2377 -0.1852
12999TIP3    H160488   1.816   2.237   4.023  0.9212 -0.6560  0.9939
12999TIP3    H260489   1.749   2.372   4.043  0.3942 -0.4287 -1.8718
13000TIP3   OH260490   4.796   4.258  16.481  0.0488  0.4655 -0.0597
13000TIP3    H160491   4.770   4.349  16.499  0.3660  0.3155  1.1993
13000TIP3    H260492   4.836   4.262  16.394 -0.8068  1.3540 -0.4374
13001TIP3   OH260493   6.098   0.649  13.286 -0.2665 -0.0496 -0.5552
13001TIP3    H160494   6.019   0.626  13.336  0.9201 -1.3573  0.8284
13001TIP3    H260495   6.077   0.623  13.196 -1.9013  0.9226 -0.5051
13002TIP3   OH260496   0.432   5.162   1.351  0.0634  0.2295 -0.1070
13002TIP3    H160497   0.420   5.070   1.374 -0.2522  0.2317 -0.2600
13002TIP3    H260498   0.526   5.177   1.360  0.4003 -0.5803 -1.8029
13003TIP3   OH260499   4.894   1.782  10.664 -0.3298 -0.2945 -0.1622
13003TIP3    H160500   4.947   1.817  10.736 -2.3587 -1.7478  2.1879
13003TIP3    H260501   4.804   1.806  10.687 -1.2147 -2.3037 -1.3098
13004TIP3   OH260502   6.311   5.484  16.825  0.4012 -0.1787 -0.3000
13004TIP3    H160503   6.232   5.536  16.812 -1.6690 -3.0903 -0.3222
13004TIP3    H260504   6.322   5.480  16.920  1.2131  1.1374 -0.3239
13005TIP3   OH260505   0.199   4.117   4.085  0.3069  0.3574  0.0280
13005TIP3    H160506   0.110   4.114   4.121 -0.3653 -0.6344 -1.5812
13005TIP3    H260507   0.248   4.173   4.145 -0.8164 -0.8833  2.2026
13006TIP3   OH260508   3.182   1.984   2.904 -0.4656  0.1493 -0.1024
13006TIP3    H160509   3.235   1.918   2.949 -0.0007  1.4726  1.3975
13006TIP3    H260510   3.117   1.934   2.855  0.5230 -1.4348  0.1477
13007TIP3   OH260511   5.804   5.793  16.585 -0.0422  0.3770 -0.5797
13007TIP3    H160512   5.748   5.760  16.656 -2.4455  0.7438 -2.1662
13007TIP3    H260513   5.882   5.827  16.629 -1.8852  1.5422  2.0353
13008TIP3   OH260514   5.815   0.412   4.667  0.1184 -0.2151 -0.1903
13008TIP3    H160515   5.832   0.326   4.629  0.5994 -0.8184  1.3364
13008TIP3    H260516   5.894   0.433   4.717 -0.7890  0.1662  1.1492
13009TIP3   OH260517   1.105   0.108   5.270  0.4331 -0.0093  0.2654
13009TIP3    H160518   1.015   0.093   5.299  0.4409 -2.2362 -0.6365
13009TIP3    H260519   1.151   0.135   5.349 -0.8747  0.5403  0.8811
13010TIP3   OH260520   3.266   2.477   4.004  0.1311 -0.0655 -0.1123
13010TIP3    H160521   3.176   2.482   3.970  0.5232  1.0356 -1.1000
13010TIP3    H260522   3.266   2.403   4.063 -0.9986 -1.1940 -1.4550
13011TIP3   OH260523   6.324   5.391   0.756  0.4763  0.1491  0.5271
13011TIP3    H160524   6.235   5.363   0.732  0.0285  3.7269 -3.1837
13011TIP3    H260525   6.381   5.322   0.722 -0.7850 -0.3180 -0.7533
13012TIP3   OH260526   5.707   2.274   2.979  0.2549  0.2137 -0.3867
13012TIP3    H160527   5.701   2.179   2.986  1.3626  0.2128  0.8267
13012TIP3    H260528   5.737   2.290   2.889 -0.5746 -0.5317 -0.8119
13013TIP3   OH260529   2.642   4.751   3.694 -0.3555 -0.2171  0.2937
13013TIP3    H160530   2.707   4.821   3.691  1.7547 -2.0831  0.6254
13013TIP3    H260531   2.612   4.743   3.603 -0.7033  1.1257  0.2646
13014TIP3   OH260532   5.359   6.022   0.144  0.1323  0.1631  0.2454
13014TIP3    H160533   5.414   5.999   0.219 -0.1626 -1.3099  0.0357
13014TIP3    H260534   5.333   5.938   0.106 -1.6906  0.8234 -0.0754
13015TIP3   OH260535   2.317   5.390   4.150 -0.0858  0.2234 -1.0025
13015TIP3    H160536   2.338   5.472   4.106  0.7382  0.4565 -0.2051
13015TIP3    H260537   2.250   5.414   4.215 -0.4288  0.1066 -1.3094
13016TIP3   OH260538   6.346   1.883  16.091  0.6657  0.1521 -0.2287
13016TIP3    H160539   6.424   1.926  16.054  0.5537 -0.0029 -0.6494
13016TIP3    H260540   6.310   1.832  16.018  0.9470 -0.8706  0.3326
13017TIP3   OH260541   1.365   2.823  16.194 -0.0347 -0.6505  0.0490
13017TIP3    H160542   1.336   2.843  16.104  1.4314  0.0399 -0.2860
13017TIP3    H260543   1.372   2.908  16.237 -1.1439 -1.0000  0.9885
13018TIP3   OH260544   5.511   5.753   5.345  0.0640 -0.2845  0.6441
13018TIP3    H160545   5.497   5.721   5.256 -0.1611  0.6238  0.3510
13018TIP3    H260546   5.455   5.697   5.399 -1.1763  0.3108  0.0076
13019TIP3   OH260547   4.505   5.124   4.098  0.0815 -0.2878 -0.4480
13019TIP3    H160548   4.501   5.203   4.043 -1.6485 -0.8090 -1.1299
13019TIP3    H260549   4.488   5.157   4.187  0.3634  0.2438 -0.5851
13020TIP3   OH260550   4.162   2.261   4.834  0.2805  0.3270 -0.0187
13020TIP3    H160551   4.169   2.171   4.863  1.2012  0.2206 -0.5403
13020TIP3    H260552   4.118   2.256   4.749 -0.3794  0.4451  0.3088
13021TIP3   OH260553   3.427   5.935   4.848 -0.1115  0.1336  0.3875
13021TIP3    H160554   3.371   5.888   4.909 -0.4681 -1.6210 -1.1994
13021TIP3    H260555   3.378   5.934   4.765  1.2945  0.5187 -0.4807
13022TIP3   OH260556   1.333   4.723   3.221  0.5441 -0.5127  0.3922
13022TIP3    H160557   1.352   4.798   3.165  2.1635 -0.1048  1.4259
13022TIP3    H260558   1.345   4.755   3.310 -1.9721 -1.1610  1.0210
13023TIP3   OH260559   1.340   4.957  13.400  0.1078 -0.1798 -0.9891
13023TIP3    H160560   1.433   4.972  13.416 -0.0371 -0.2646  0.0171
13023TIP3    H260561   1.337   4.881  13.342  0.6565 -0.4896 -0.6180
13024TIP3   OH260562   5.112   2.172   4.570 -0.2750  0.5226  0.1066
13024TIP3    H160563   5.018   2.184   4.556 -0.6243 -1.1999  0.7246
13024TIP3    H260564   5.129   2.082   4.542  1.0961  0.6295  0.5204
13025TIP3   OH260565   5.464   4.955  13.439 -0.2132 -0.0874  0.3227
13025TIP3    H160566   5.497   4.900  13.367  2.4203  0.2660  1.1374
13025TIP3    H260567   5.511   4.923  13.516  0.7262  2.6771  0.9835
13026TIP3   OH260568   2.805   2.229   1.615 -0.3781  0.0376  0.6845
13026TIP3    H160569   2.727   2.172   1.608 -0.4982  0.3748 -1.6054
13026TIP3    H260570   2.770   2.314   1.640 -0.6643 -0.0028  0.4331
13027TIP3   OH260571   5.724   0.375   1.782  0.2979 -0.2823 -0.4024
13027TIP3    H160572   5.710   0.463   1.817  0.6387 -0.0490 -0.8473
13027TIP3    H260573   5.776   0.330   1.849  0.3527 -0.0595 -0.2961
13028TIP3   OH260574   5.053   2.859  17.161 -0.6450  0.4524 -0.4477
13028TIP3    H160575   5.014   2.772  17.153 -0.4741  0.5547 -3.6255
13028TIP3    H260576   4.985   2.912  17.203 -0.3565 -1.3545  2.5387
13029TIP3   OH260577   6.526   2.264   4.064 -0.4623  0.1183 -0.3148
13029TIP3    H160578   6.604   2.280   4.011 -0.9291  0.5282 -0.9087
13029TIP3    H260579   6.455   2.303   4.012 -1.0489 -0.2192  0.2292
13030TIP3   OH260580   3.355   3.822   6.075 -0.1105  0.0351  0.3575
13030TIP3    H160581   3.279   3.775   6.041  1.7247 -1.9754 -1.3458
13030TIP3    H260582   3.415   3.753   6.104  2.8912  1.0842 -2.5853
13031TIP3   OH260583   3.898   1.167  10.378  0.5221  0.1048  1.0849
13031TIP3    H160584   3.942   1.083  10.371 -1.8627 -1.1525  0.1229
13031TIP3    H260585   3.805   1.146  10.372 -0.1547  2.8355  0.7475
13032TIP3   OH260586   1.473   5.475  14.187 -0.1200  0.1129  0.1405
13032TIP3    H160587   1.489   5.477  14.093  1.3459  0.0893  0.3658
13032TIP3    H260588   1.510   5.392  14.216 -1.8390 -0.5413  0.5445
13033TIP3   OH260589   3.590   2.598   4.651  0.0870 -0.2308  0.1821
13033TIP3    H160590   3.591   2.555   4.737 -1.5242  0.2881  0.4885
13033TIP3    H260591   3.683   2.615   4.632  0.4859 -0.5371  1.7199
13034TIP3   OH260592   6.507   3.919   4.788  0.6306  0.0198  0.3451
13034TIP3    H160593   6.511   3.827   4.814  0.4007  0.2773  1.3384
13034TIP3    H260594   6.527   3.968   4.868 -1.5558  0.8793  0.4390
13035TIP3   OH260595   4.302   0.739   4.533  0.3036  0.2112  0.2693
13035TIP3    H160596   4.352   0.731   4.451  1.6725  0.1329  1.0894
13035TIP3    H260597   4.299   0.650   4.567 -0.0661  0.2867  0.4400
13036TIP3   OH260598   3.503   1.865  11.721 -0.1418 -0.0852  0.0168
13036TIP3    H160599   3.442   1.937  11.703  0.0129 -0.4478 -2.3307
13036TIP3    H260600   3.500   1.811  11.641  0.8768 -1.8595  1.1099
13037TIP3   OH260601   5.806   0.755  15.317  0.0852  0.0661  0.0208
13037TIP3    H160602   5.788   0.759  15.411 -2.4386 -1.8564 -0.2587
13037TIP3    H260603   5.843   0.668  15.303  1.3750  0.6946 -0.6908
13038TIP3   OH260604   1.780   4.730  11.528  0.1934  0.4878  0.4427
13038TIP3    H160605   1.772   4.635  11.523 -0.6085  0.3706  2.7333
13038TIP3    H260606   1.696   4.760  11.561  1.1164  1.7576  1.8083
13039TIP3   OH260607   3.844   2.593   3.126  0.0983  0.1956  0.6036
13039TIP3    H160608   3.782   2.524   3.151 -0.8417  0.8095  0.0345
13039TIP3    H260609   3.792   2.673   3.127  0.3669  0.4693 -1.8046
13040TIP3   OH260610   1.090   5.817  15.306 -0.3932  0.0372 -0.4372
13040TIP3    H160611   1.095   5.723  15.291  1.1805 -0.0486  0.3790
13040TIP3    H260612   1.137   5.831  15.388  0.3552  1.6571 -1.0887
13041TIP3   OH260613   3.162   0.154  15.103  0.1409  0.1470  0.3778
13041TIP3    H160614   3.086   0.105  15.071 -1.0268  2.1329 -0.0482
13041TIP3    H260615   3.125   0.230  15.148  1.7747  2.7928 -2.3546
13042TIP3   OH260616   0.804   4.121   3.203 -0.6367 -0.2218 -0.4993
13042TIP3    H160617   0.783   4.044   3.254  0.5840 -0.6247 -0.5775
13042TIP3    H260618   0.828   4.087   3.116 -1.9093  0.3903 -1.1106
13043TIP3   OH260619   5.012   5.584  15.263  0.2013  0.8993 -0.3442
13043TIP3    H160620   5.041   5.583  15.172 -0.9378  1.0779 -0.7265
13043TIP3    H260621   5.062   5.654  15.304  0.0859  1.4004 -1.0508
13044TIP3   OH260622   4.889   3.888  12.256  0.0414  0.6431 -0.2136
13044TIP3    H160623   4.839   3.949  12.202 -0.7806  1.3831  1.3188
13044TIP3    H260624   4.975   3.885  12.216 -0.4803  1.3166 -1.4335
13045TIP3   OH260625   0.970   5.583  14.433  0.2916 -1.0082  0.9395
13045TIP3    H160626   1.061   5.604  14.454  0.0415  1.5689 -0.1421
13045TIP3    H260627   0.923   5.665  14.449 -1.1498 -1.0731 -2.2232
13046TIP3   OH260628   4.144   4.287   1.484 -0.0839  0.8504  0.2385
13046TIP3    H160629   4.097   4.341   1.548 -0.9085  0.0899  0.3078
13046TIP3    H260630   4.116   4.321   1.399  0.0182  1.0376  0.2784
13047TIP3   OH260631   3.213   4.899  16.199 -0.1113 -0.2520 -0.1868
13047TIP3    H160632   3.237   4.955  16.273 -0.5566 -0.6936  0.2929
13047TIP3    H260633   3.154   4.954  16.146  0.9689  0.4158 -0.7524
13048TIP3   OH260634   1.236   3.175   0.006 -0.5202 -0.2377  0.3251
13048TIP3    H160635   1.306   3.113   0.027  2.1342  2.3342 -0.2933
13048TIP3    H260636   1.227   3.171  -0.089  1.1483  1.6335  0.0181
13049TIP3   OH260637   0.422   0.134   4.604  0.2877  0.2865 -0.3370
13049TIP3    H160638   0.505   0.167   4.568  0.1434  1.7803  0.5826
13049TIP3    H260639   0.391   0.206   4.660 -1.3515 -0.4726 -0.2303
13050TIP3   OH260640   0.014   2.867   3.890 -0.4539  0.3831 -0.4239
13050TIP3    H160641   0.001   2.922   3.966  0.2201 -0.8165  0.5929
13050TIP3    H260642  -0.071   2.827   3.874 -0.4213  0.0803  0.1515
13051TIP3   OH260643   3.543   5.086  15.568 -0.5376 -0.4370  0.1648
13051TIP3    H160644   3.585   5.103  15.483 -0.0893 -1.7577  0.0998
13051TIP3    H260645   3.451   5.072  15.547 -0.8533  1.3839  0.1744
13052TIP3   OH260646   1.769   6.244   5.344  0.4115 -0.3767 -0.0610
13052TIP3    H160647   1.814   6.197   5.274  1.7462 -0.9184  1.0974
13052TIP3    H260648   1.715   6.177   5.386 -0.7644  0.0576 -0.8540
13053TIP3   OH260649   3.060   6.304   3.221  0.4263  0.0222 -0.2014
13053TIP3    H160650   3.043   6.325   3.313 -0.1897  1.2728 -0.5882
13053TIP3    H260651   3.002   6.361   3.171  0.3830 -0.9934 -1.3756
13054TIP3   OH260652   4.147   6.467   4.472  0.1790  0.1456  0.2664
13054TIP3    H160653   4.186   6.382   4.453  0.5004  0.2490  0.4509
13054TIP3    H260654   4.222   6.525   4.487  0.0006  0.7699 -1.1062
13055TIP3   OH260655   6.274   3.952   6.493 -0.2585 -0.1941  0.5100
13055TIP3    H160656   6.205   3.933   6.557 -0.5787 -1.1112 -0.0862
13055TIP3    H260657   6.242   3.915   6.411  0.5612  0.1362  0.0284
13056TIP3   OH260658   4.747   0.641  16.636  0.4045  0.1042 -0.2083
13056TIP3    H160659   4.840   0.624  16.653  0.4974  0.4388 -0.3892
13056TIP3    H260660   4.709   0.553  16.625  0.3666 -0.1386  1.5375
13057TIP3   OH260661   1.734   3.890   1.739  0.2359  0.0676 -0.1818
13057TIP3    H160662   1.821   3.880   1.701  0.7091  0.6304  0.7153
13057TIP3    H260663   1.744   3.959   1.804 -0.7988 -0.1294  0.2070
13058TIP3   OH260664   0.839   0.150   0.416  0.0143 -0.0562 -0.0394
13058TIP3    H160665   0.830   0.232   0.464  0.0207 -1.1058  1.8431
13058TIP3    H260666   0.752   0.134   0.380 -0.7992 -0.6506  2.0654
13059TIP3   OH260667   2.336   2.340   1.985  0.4105  0.1617 -0.1558
13059TIP3    H160668   2.248   2.303   1.977 -1.0078  2.9365  1.1863
13059TIP3    H260669   2.355   2.378   1.899  0.1539 -0.1448 -0.3481
13060TIP3   OH260670   4.758   1.509  15.318 -0.5784  0.2828 -0.0972
13060TIP3    H160671   4.663   1.503  15.330 -0.5934  0.3878 -0.1746
13060TIP3    H260672   4.794   1.473  15.400 -0.6840  0.6578  0.1139
13061TIP3   OH260673   3.829   1.383   1.839 -0.3467 -0.1222  0.9458
13061TIP3    H160674   3.742   1.404   1.805  0.2273  0.6786 -0.0643
13061TIP3    H260675   3.812   1.324   1.912 -1.6651 -1.0924 -0.1046
13062TIP3   OH260676   3.873   6.601  15.382 -0.4481 -0.3639  0.1731
13062TIP3    H160677   3.897   6.545  15.308  2.3837  0.0180  0.6956
13062TIP3    H260678   3.919   6.563  15.457  0.3875  1.7677  0.8309
13063TIP3   OH260679   4.129   2.814   0.442  0.4740 -0.2969  0.5066
13063TIP3    H160680   4.121   2.845   0.532 -0.9328 -0.9287  0.6273
13063TIP3    H260681   4.223   2.799   0.430  0.9665  2.0317  1.0679
13064TIP3   OH260682   2.930   4.062  16.552  0.2148 -0.5771  0.1550
13064TIP3    H160683   2.840   4.091  16.537  0.1073  0.3279  2.2229
13064TIP3    H260684   2.922   3.987  16.610  0.7737 -1.2633 -0.6194
13065TIP3   OH260685   5.615   2.897   5.777 -0.1355  0.2019 -0.7393
13065TIP3    H160686   5.540   2.916   5.834 -0.4002 -2.0281 -0.2552
13065TIP3    H260687   5.579   2.842   5.708  0.8431  0.0731 -1.1565
13066TIP3   OH260688   0.861   4.835   2.430  0.0583 -0.1931 -0.2772
13066TIP3    H160689   0.797   4.776   2.471 -0.3171  0.5688  0.2578
13066TIP3    H260690   0.936   4.779   2.410 -0.0010 -0.7065  0.8853
13067TIP3   OH260691   3.663   2.590  13.147 -0.4396 -0.4038  0.5873
13067TIP3    H160692   3.736   2.648  13.168 -0.7253  0.0696  0.3008
13067TIP3    H260693   3.628   2.624  13.065 -0.5317 -1.0652  0.3449
13068TIP3   OH260694   3.017   0.951  12.110 -0.6946 -0.0691 -0.5845
13068TIP3    H160695   2.942   0.895  12.131  0.5667 -1.2729  0.9758
13068TIP3    H260696   3.085   0.890  12.083  0.8378  0.6002  1.5074
13069TIP3   OH260697   0.184   1.662   3.636 -0.2990  0.0790  0.0245
13069TIP3    H160698   0.133   1.601   3.582 -1.3161 -1.0581  2.1390
13069TIP3    H260699   0.128   1.739   3.643 -0.3228  0.0873 -0.2294
13070TIP3   OH260700   4.816   2.446  13.336  0.0015  0.2961 -0.0528
13070TIP3    H160701   4.789   2.537  13.336 -0.7410  0.0803  0.1911
13070TIP3    H260702   4.912   2.449  13.332 -0.0334  1.0752 -0.2994
13071TIP3   OH260703   1.897   2.174   5.808  0.1205  0.2974  0.8338
13071TIP3    H160704   1.922   2.084   5.826 -0.4331  0.0924  0.5935
13071TIP3    H260705   1.816   2.187   5.858  0.3068  0.7278  1.0331
13072TIP3   OH260706   2.196   1.810   0.024 -0.0464 -0.0429  0.1007
13072TIP3    H160707   2.104   1.808   0.052 -0.0298 -0.0484  0.1552
13072TIP3    H260708   2.201   1.745  -0.045 -0.5358  1.3461 -1.2914
13073TIP3   OH260709   0.410   6.752  16.351  0.5094  0.2991  0.8922
13073TIP3    H160710   0.415   6.847  16.351 -1.7279  0.4751  1.2402
13073TIP3    H260711   0.358   6.730  16.274  0.8675 -0.6404  0.8994
13074TIP3   OH260712   0.553   1.980  13.482  0.0006 -0.0806 -0.3470
13074TIP3    H160713   0.574   2.073  13.473  0.6245 -0.0725  0.9198
13074TIP3    H260714   0.570   1.961  13.574  1.9895 -1.9407 -1.0176
13075TIP3   OH260715   4.741   2.305   5.165 -0.1079 -0.5191 -0.2928
13075TIP3    H160716   4.739   2.394   5.201  1.8785 -0.5725  0.0870
13075TIP3    H260717   4.662   2.263   5.199  0.9125 -0.1380  2.8986
13076TIP3   OH260718   1.486   0.153  11.670  0.2426 -0.5471  0.1906
13076TIP3    H160719   1.564   0.192  11.631  1.0698 -1.0064  1.3431
13076TIP3    H260720   1.413   0.198  11.627  1.1388  0.7709 -0.0123
13077TIP3   OH260721   0.705   2.515  14.235 -0.1155  0.0422 -0.0155
13077TIP3    H160722   0.721   2.531  14.142  0.1551 -0.3460 -0.0411
13077TIP3    H260723   0.716   2.420  14.245  1.1788  0.2335  0.6495
13078TIP3   OH260724   4.550   5.712  11.151 -0.4441  0.5502 -0.0030
13078TIP3    H160725   4.547   5.797  11.109  1.2044  1.7259  2.0386
13078TIP3    H260726   4.635   5.710  11.195 -1.4752 -1.1001  2.1130
13079TIP3   OH260727   1.821   0.004  13.171  0.2358  0.1406 -0.4696
13079TIP3    H160728   1.730   0.030  13.181 -0.7627 -3.2631  0.9763
13079TIP3    H260729   1.871   0.068  13.222 -1.4124  1.5544 -0.5448
13080TIP3   OH260730   3.113   3.100   6.600 -0.0779 -0.4709  0.1248
13080TIP3    H160731   3.136   3.193   6.598 -1.4775 -0.0995  0.3003
13080TIP3    H260732   3.193   3.056   6.629  0.4361  0.7349  0.5881
13081TIP3   OH260733   3.255   6.370   5.685  0.1119  0.4132 -0.4572
13081TIP3    H160734   3.217   6.305   5.744  1.6130  0.2787  0.4344
13081TIP3    H260735   3.187   6.436   5.673 -0.9950 -0.6963 -0.3701
13082TIP3   OH260736   2.125   0.817   6.097 -0.2717 -0.1448 -0.5014
13082TIP3    H160737   2.162   0.863   6.172  1.4146 -0.6434 -0.9804
13082TIP3    H260738   2.058   0.760   6.135 -1.2082  1.4048  0.2938
13083TIP3   OH260739   5.136   3.824   4.405  0.2292 -0.2686  0.5808
13083TIP3    H160740   5.129   3.826   4.310  1.2011  0.2679  0.5102
13083TIP3    H260741   5.087   3.746   4.432 -0.5407 -0.1038 -0.3059
13084TIP3   OH260742   6.065   6.441   4.271  0.2706  0.2413 -0.4586
13084TIP3    H160743   5.984   6.443   4.322  0.0460 -0.5701 -0.7676
13084TIP3    H260744   6.045   6.493   4.193  0.5013  1.1884  0.0952
13085TIP3   OH260745   0.165   2.613  15.944  0.5078  0.1944 -0.2253
13085TIP3    H160746   0.227   2.607  16.016  1.6951  2.2484 -1.0029
13085TIP3    H260747   0.153   2.707  15.929 -1.0263 -0.1587 -1.6094
13086TIP3   OH260748   0.158   4.170   1.754  0.5175  0.3302 -0.7793
13086TIP3    H160749   0.182   4.250   1.801  1.2542  1.3067 -2.6988
13086TIP3    H260750   0.228   4.108   1.774 -1.7097 -1.2383  3.5288
13087TIP3   OH260751   0.993   5.928  14.069 -0.5474 -0.2720 -0.1463
13087TIP3    H160752   0.917   5.880  14.101  0.0987 -1.2355  0.0026
13087TIP3    H260753   1.068   5.879  14.103  0.1540  1.4157  0.8356
13088TIP3   OH260754   2.166   3.270   0.799  0.1245  0.4600  0.0939
13088TIP3    H160755   2.165   3.314   0.715 -0.5419  0.3978  0.0662
13088TIP3    H260756   2.228   3.320   0.852  1.7810 -0.4257 -0.9091
13089TIP3   OH260757   3.191   3.432   0.920 -0.4951 -0.5208  0.0275
13089TIP3    H160758   3.165   3.417   0.829  0.5182  2.6869 -0.9323
13089TIP3    H260759   3.116   3.401   0.971 -0.5507 -3.6931 -1.6891
13090TIP3   OH260760   0.363   3.790   5.298  0.9744  0.3678  0.1227
13090TIP3    H160761   0.414   3.761   5.374 -0.6976 -2.5457  0.3097
13090TIP3    H260762   0.278   3.815   5.335 -0.0589 -1.6389 -0.7360
13091TIP3   OH260763   2.147   5.548   0.370  1.1870  0.2950  0.0410
13091TIP3    H160764   2.105   5.462   0.362  2.2288 -0.4407  1.8228
13091TIP3    H260765   2.084   5.600   0.420  0.6568  0.5097 -0.8325
13092TIP3   OH260766   4.353   3.645  11.446  0.3809 -0.4106 -0.0044
13092TIP3    H160767   4.406   3.676  11.520  0.7541  0.9465 -0.7991
13092TIP3    H260768   4.268   3.625  11.485  0.7921 -0.4152  0.9131
13093TIP3   OH260769   2.699   1.443  13.063  0.5425  0.5154 -0.2497
13093TIP3    H160770   2.668   1.519  13.111  1.3952  0.4847  0.3634
13093TIP3    H260771   2.722   1.379  13.130 -2.0270 -1.1124 -0.7401
13094TIP3   OH260772   0.633   4.283   3.374  0.2872  0.9398 -0.3869
13094TIP3    H160773   0.681   4.229   3.312 -0.4893 -0.0666 -0.1274
13094TIP3    H260774   0.701   4.319   3.432  0.7544 -0.3765 -0.0926
13095TIP3   OH260775   3.882   2.138  16.755 -0.3499 -0.5870  0.1039
13095TIP3    H160776   3.907   2.196  16.827 -0.1794 -1.6793  0.9576
13095TIP3    H260777   3.956   2.077  16.748  0.5683  0.6876 -2.3514
13096TIP3   OH260778   4.219   0.395  14.773 -0.2250  0.2232 -0.7467
13096TIP3    H160779   4.312   0.403  14.752 -0.1778 -0.4091 -0.8138
13096TIP3    H260780   4.214   0.316  14.827 -0.5890  0.8112  0.1035
13097TIP3   OH260781   5.154   0.178   1.407  0.1466  0.5818  0.1782
13097TIP3    H160782   5.092   0.113   1.439  0.9759  0.5538  1.7995
13097TIP3    H260783   5.188   0.141   1.326 -1.0310  0.0501 -0.1054
13098TIP3   OH260784   3.258   1.323   5.435  0.4729  0.4361  0.0838
13098TIP3    H160785   3.177   1.277   5.412 -0.0860  1.9771 -1.2375
13098TIP3    H260786   3.326   1.255   5.433 -0.2461 -0.3182 -2.1915
13099TIP3   OH260787   5.492   1.616  13.613  0.2799  0.3312 -0.2355
13099TIP3    H160788   5.533   1.568  13.542  0.9836  1.7522 -0.8350
13099TIP3    H260789   5.402   1.583  13.617  0.9929 -1.7398  0.0835
13100TIP3   OH260790   5.185   3.476  13.980  0.7277  0.2856  0.0967
13100TIP3    H160791   5.218   3.566  13.980  1.4955  0.0668  2.0928
13100TIP3    H260792   5.222   3.437  14.060  0.5596 -1.8591 -0.7928
13101TIP3   OH260793   0.882   6.723  11.481 -0.5944 -0.3729  0.1049
13101TIP3    H160794   0.869   6.741  11.388 -2.4292  0.6082  0.5038
13101TIP3    H260795   0.967   6.762  11.501 -0.1223 -0.7032 -1.1827
13102TIP3   OH260796   5.387   5.731  12.613  0.4477 -0.0393 -0.3016
13102TIP3    H160797   5.374   5.742  12.707 -0.2663 -1.5067 -0.1956
13102TIP3    H260798   5.361   5.815  12.575  1.1781  0.7199  0.8284
13103TIP3   OH260799   2.195   3.747   6.379  0.3396  0.0489 -0.1007
13103TIP3    H160800   2.262   3.679   6.389 -0.6826 -0.8116  1.1650
13103TIP3    H260801   2.234   3.810   6.318  1.3030 -1.6655 -1.3428
13104TIP3   OH260802   2.715   4.122  13.110  0.2723 -0.1248 -0.5137
13104TIP3    H160803   2.740   4.065  13.183 -1.2177  0.2498  0.3335
13104TIP3    H260804   2.664   4.192  13.150  0.8530  1.0327 -1.7264
13105TIP3   OH260805   1.062   4.607  11.834  0.2870  0.5032 -0.0103
13105TIP3    H160806   1.156   4.617  11.845  0.2442  0.1022  0.7941
13105TIP3    H260807   1.024   4.675  11.889  0.0920 -0.0860  0.5862
13106TIP3   OH260808   6.356   1.120  12.592 -1.3725  0.3859  0.2021
13106TIP3    H160809   6.262   1.133  12.581 -1.5673 -1.7104 -1.1588
13106TIP3    H260810   6.381   1.181  12.662 -4.1143 -0.4510  2.0654
13107TIP3   OH260811   1.951   5.673  12.715 -0.2850  0.1879 -0.3025
13107TIP3    H160812   2.047   5.670  12.718 -0.3289 -0.1268  1.3613
13107TIP3    H260813   1.931   5.759  12.677  0.6617  0.7599  0.4558
13108TIP3   OH260814   4.302   4.696  13.783 -0.1994 -0.0920 -0.6815
13108TIP3    H160815   4.266   4.709  13.871  1.4607  0.0019  0.0259
13108TIP3    H260816   4.355   4.775  13.767  0.4755 -0.6469 -1.2476
13109TIP3   OH260817   0.833   0.831   1.551  0.2190 -0.5020 -0.0300
13109TIP3    H160818   0.907   0.774   1.570  0.6148 -0.5494 -1.5453
13109TIP3    H260819   0.765   0.771   1.518 -0.2155 -0.3589  0.5795
13110TIP3   OH260820   5.903   2.293   2.007  0.7200  0.0428  0.7496
13110TIP3    H160821   5.930   2.361   1.945  0.6980  0.6859  1.4294
13110TIP3    H260822   5.984   2.269   2.053  1.2539 -2.2190 -1.1810
13111TIP3   OH260823   5.077   2.374  11.409  0.0063  0.0644  0.2496
13111TIP3    H160824   5.146   2.325  11.365 -1.3151 -0.6018 -1.2089
13111TIP3    H260825   5.109   2.386  11.498  3.1042  1.9998 -0.9560
13112TIP3   OH260826   6.518   2.672  12.892  0.4655 -0.1658 -0.6898
13112TIP3    H160827   6.577   2.722  12.836  1.0306 -0.6516 -0.5422
13112TIP3    H260828   6.457   2.630  12.832  0.4236  0.1503 -0.8650
13113TIP3   OH260829   4.681   1.690  16.882  0.0086  0.0868 -0.6030
13113TIP3    H160830   4.703   1.725  16.968 -0.4571 -0.3112 -0.3253
13113TIP3    H260831   4.666   1.768  16.828  2.9857  0.4695 -1.0827
13114TIP3   OH260832   4.980   6.164  16.498 -0.6882  0.0687  0.1468
13114TIP3    H160833   5.019   6.250  16.517  0.0110 -0.0183 -0.8372
13114TIP3    H260834   4.886   6.178  16.508 -0.5667  0.8881  0.2229
13115TIP3   OH260835   0.521   2.019   5.026  0.5798  0.3714  0.3053
13115TIP3    H160836   0.475   1.986   5.103  2.5738 -0.1913  1.3114
13115TIP3    H260837   0.521   2.114   5.038 -0.2784  0.3813  0.2961
13116TIP3   OH260838   3.612   4.124  13.604  0.5481  0.3833 -0.2729
13116TIP3    H160839   3.690   4.162  13.644  1.0806  0.4788 -1.3599
13116TIP3    H260840   3.644   4.082  13.524 -0.3991 -0.2656 -0.3320
13117TIP3   OH260841   5.939   4.895  15.215  0.1058  0.4212 -0.1630
13117TIP3    H160842   5.910   4.948  15.290  0.7567 -0.4895  0.7604
13117TIP3    H260843   5.886   4.926  15.142 -2.4053 -0.3922  1.2087
13118TIP3   OH260844   3.889   1.652  13.135  0.8560  0.6816 -0.2357
13118TIP3    H160845   3.944   1.685  13.063  1.3706 -0.2951 -0.3052
13118TIP3    H260846   3.885   1.558  13.120  0.7676  0.5053  0.8809
13119TIP3   OH260847   3.689   0.745  15.456  0.4508  0.0900 -0.3529
13119TIP3    H160848   3.756   0.792  15.407  0.3179 -0.9747 -1.6021
13119TIP3    H260849   3.736   0.708  15.531  1.6712 -1.8798 -1.9641
13120TIP3   OH260850   2.998   1.978   4.747 -0.2688  0.6977  0.2943
13120TIP3    H160851   3.017   1.961   4.655 -0.9872  0.8009  0.1221
13120TIP3    H260852   3.013   1.894   4.791 -0.3431  0.5387  0.0179
13121TIP3   OH260853   3.442   1.501  12.070  0.7069  0.4222 -0.1881
13121TIP3    H160854   3.521   1.513  12.017  0.2884 -0.7818 -1.1420
13121TIP3    H260855   3.372   1.537  12.016  0.4240  0.2532  0.0637
13122TIP3   OH260856   3.724   1.008  14.354 -0.1051  0.0616 -0.0099
13122TIP3    H160857   3.660   0.949  14.395  0.1141 -1.0138 -1.1570
13122TIP3    H260858   3.789   0.949  14.317  1.3624  1.1255  0.7815
13123TIP3   OH260859   3.756   1.305   5.097 -0.2778 -0.3109  0.1971
13123TIP3    H160860   3.847   1.335   5.099 -0.4858  0.3416  1.8032
13123TIP3    H260861   3.751   1.241   5.168 -1.3759  0.6733  1.0397
13124TIP3   OH260862   6.309   1.760   1.961 -0.1525  0.2638 -0.0780
13124TIP3    H160863   6.355   1.791   2.039 -0.0081  1.8130 -0.7445
13124TIP3    H260864   6.372   1.704   1.916  0.5582  1.0960 -0.1600
13125TIP3   OH260865   1.562   1.664   4.933  0.1111 -0.0164  0.2709
13125TIP3    H160866   1.552   1.654   5.028  1.5185  1.7586  0.6629
13125TIP3    H260867   1.508   1.740   4.911  0.5281  0.1537 -0.1817
13126TIP3   OH260868   2.799   0.511  11.192  0.0662  0.0202  0.2355
13126TIP3    H160869   2.815   0.536  11.100  1.2947 -0.7243  0.2322
13126TIP3    H260870   2.885   0.513  11.233 -0.2860 -0.9078  1.0655
13127TIP3   OH260871   3.732   1.879   5.306 -0.1963 -0.3425 -0.1956
13127TIP3    H160872   3.723   1.856   5.214  0.6435  1.0550 -0.6470
13127TIP3    H260873   3.795   1.950   5.308 -0.6448  0.0658  1.4024
13128TIP3   OH260874   1.811   3.794   2.081  0.5139 -0.4194 -0.2894
13128TIP3    H160875   1.822   3.879   2.039 -0.2633  0.1450  0.6196
13128TIP3    H260876   1.898   3.753   2.074  1.4430  1.2094  0.8866
13129TIP3   OH260877   2.584   5.709   0.306 -0.0522 -0.0227  0.5175
13129TIP3    H160878   2.650   5.641   0.291 -1.1217 -0.8457 -0.8082
13129TIP3    H260879   2.502   5.669   0.275 -1.1223  1.0734  1.8122
13130TIP3   OH260880   4.949   6.273  15.877  0.3909  0.1349 -0.4298
13130TIP3    H160881   4.945   6.237  15.965  1.1822 -0.5082 -0.6506
13130TIP3    H260882   4.927   6.200  15.819 -2.6743  1.1230 -0.6979
13131TIP3   OH260883   4.461   4.739  10.890 -0.3757 -0.8869 -0.1408
13131TIP3    H160884   4.476   4.826  10.855 -1.4128 -0.9083 -0.6856
13131TIP3    H260885   4.479   4.747  10.984  0.3106 -0.2922 -0.3169
13132TIP3   OH260886   1.171   4.323  12.400  0.2035 -0.0921  0.0441
13132TIP3    H160887   1.174   4.417  12.414 -0.1483  0.0600 -0.8024
13132TIP3    H260888   1.262   4.294  12.409  0.5627  0.5675 -1.1547
13133TIP3   OH260889   0.441   2.777  14.786  0.5937 -0.3022 -0.5558
13133TIP3    H160890   0.488   2.758  14.704 -1.1527 -3.2003 -1.0185
13133TIP3    H260891   0.484   2.722  14.851 -0.6531 -1.2750 -0.5099
13134TIP3   OH260892   5.341   0.825   1.841  0.2085  0.3204  0.2748
13134TIP3    H160893   5.431   0.853   1.857  0.6795 -0.6788 -0.5532
13134TIP3    H260894   5.322   0.856   1.752 -0.6081  1.3369  0.7771
13135TIP3   OH260895   1.302   3.549  11.315 -0.3674 -0.3135  0.3345
13135TIP3    H160896   1.247   3.628  11.314 -0.3476 -0.2111  2.4764
13135TIP3    H260897   1.263   3.494  11.383 -0.8310 -2.5446 -1.6154
13136TIP3   OH260898   3.911   2.101   2.099 -0.3408  0.3799  0.1280
13136TIP3    H160899   3.947   2.150   2.173 -4.1722  2.2015  1.0829
13136TIP3    H260900   3.871   2.168   2.043  0.0909 -1.1992 -2.1876
13137TIP3   OH260901   6.281   4.849   2.756 -0.1467 -0.4159  0.8412
13137TIP3    H160902   6.263   4.791   2.830 -0.8875  0.8509  1.6875
13137TIP3    H260903   6.376   4.852   2.751 -0.0907 -0.8796  1.4385
13138TIP3   OH260904   3.017   0.483   5.479  0.3272 -0.1740  0.0284
13138TIP3    H160905   3.037   0.397   5.516  0.4749 -0.3010 -0.3473
13138TIP3    H260906   2.922   0.487   5.479  0.2419 -1.1745 -1.8366
13139TIP3   OH260907   2.588   0.847  15.348 -0.1958  0.1352  0.1386
13139TIP3    H160908   2.632   0.837  15.263 -1.3499 -0.5768 -0.3930
13139TIP3    H260909   2.659   0.870  15.408  1.0649 -1.8034 -0.5066
13140TIP3   OH260910   2.158   3.486   6.972 -0.1967  0.4890  0.2276
13140TIP3    H160911   2.224   3.469   7.039  1.4875  0.2602 -1.3852
13140TIP3    H260912   2.167   3.580   6.953 -0.1186  0.3971 -0.1998
13141TIP3   OH260913   2.704   5.528  12.204  0.0132  0.6937 -0.1329
13141TIP3    H160914   2.654   5.472  12.145  0.5458 -1.5662  1.4367
13141TIP3    H260915   2.736   5.599  12.148  1.6063 -1.9842 -2.9617
13142TIP3   OH260916   6.670   4.621  14.261 -0.2502 -0.5017  0.4238
13142TIP3    H160917   6.651   4.663  14.177 -1.9008  0.6195  1.2888
13142TIP3    H260918   6.669   4.527  14.243  0.4594 -0.2491 -0.9925
13143TIP3   OH260919   0.364   3.150   3.901 -0.0448 -0.0945 -0.1401
13143TIP3    H160920   0.444   3.113   3.864  0.1899  0.2948 -0.0269
13143TIP3    H260921   0.395   3.215   3.964 -0.4342 -0.8855  0.8885
13144TIP3   OH260922   5.048   0.459   2.224 -0.6129  0.2500 -0.2894
13144TIP3    H160923   5.055   0.542   2.271 -0.1981  0.4854 -0.7527
13144TIP3    H260924   5.083   0.394   2.285 -0.1193  0.5430 -0.2566
13145TIP3   OH260925   4.639   3.188   1.098  0.4426 -0.3179 -0.6320
13145TIP3    H160926   4.562   3.169   1.044  0.1566  2.1622 -1.1944
13145TIP3    H260927   4.713   3.178   1.039  0.2276  1.0969 -1.1653
13146TIP3   OH260928   2.985   3.273  16.201  0.1180 -0.0830  0.3944
13146TIP3    H160929   2.988   3.302  16.110  1.0278 -0.9063  0.1475
13146TIP3    H260930   3.077   3.274  16.230 -0.0055 -1.0706  0.8856
13147TIP3   OH260931   3.433   0.124  11.898  0.1236  0.6654  0.2241
13147TIP3    H160932   3.434   0.152  11.807  1.1762  1.1678  0.3658
13147TIP3    H260933   3.428   0.206  11.948 -0.5113  0.3919  0.6224
13148TIP3   OH260934   3.434   5.372   4.673  0.5151 -0.0982  0.0317
13148TIP3    H160935   3.431   5.370   4.769  2.5082 -2.0500  0.1359
13148TIP3    H260936   3.440   5.280   4.647 -0.8522  0.3290 -2.0568
13149TIP3   OH260937   3.015   1.750   2.830 -0.1733  0.1793  0.0697
13149TIP3    H160938   2.998   1.802   2.751  0.1100  0.4485  0.1857
13149TIP3    H260939   2.954   1.676   2.823 -1.2923  1.0402  0.4005
13150TIP3   OH260940   6.033   1.921   2.951  0.0672 -0.0054  0.3390
13150TIP3    H160941   6.016   1.956   3.038  0.8783  0.1341  0.4523
13150TIP3    H260942   6.013   1.827   2.958 -0.8478  0.1920  0.3927
13151TIP3   OH260943   0.168   2.714  16.663  0.3439  0.0631  0.7674
13151TIP3    H160944   0.183   2.809  16.661 -0.0939  0.1243 -0.0163
13151TIP3    H260945   0.097   2.703  16.726 -0.8983  0.4690 -0.5084
13152TIP3   OH260946   1.383   6.507  10.395 -0.3043  0.5029  0.1350
13152TIP3    H160947   1.305   6.544  10.354 -0.6875  0.0750  0.4693
13152TIP3    H260948   1.435   6.583  10.422 -0.7344  0.7870  0.1599
13153TIP3   OH260949   3.640   2.146  11.135  0.6727 -0.5032 -0.3257
13153TIP3    H160950   3.640   2.205  11.060 -1.4485 -0.1843 -0.1141
13153TIP3    H260951   3.600   2.196  11.206  2.1010 -1.0034  0.8990
13154TIP3   OH260952   2.921   3.684   4.035  0.0248 -0.5323 -0.5628
13154TIP3    H160953   2.991   3.644   4.087 -0.5318 -0.0466  0.6128
13154TIP3    H260954   2.845   3.682   4.094  0.1316  2.8881 -0.1448
13155TIP3   OH260955   5.064   2.338  16.280  0.8734 -0.2710 -0.4573
13155TIP3    H160956   5.103   2.421  16.308  0.9298 -0.2162 -0.7005
13155TIP3    H260957   5.040   2.352  16.189  0.0325 -0.2142 -0.2381
13156TIP3   OH260958   1.343   1.694  12.509  0.2835 -0.2324 -0.0495
13156TIP3    H160959   1.418   1.670  12.564  1.4224  0.8599 -1.0808
13156TIP3    H260960   1.381   1.720  12.426 -1.1936  0.9317 -0.4054
13157TIP3   OH260961   1.701   2.515  16.447 -0.0492 -0.2156  0.2019
13157TIP3    H160962   1.753   2.585  16.486  1.6887 -1.5425  0.4020
13157TIP3    H260963   1.652   2.558  16.377  1.8321  1.0269 -0.4327
13158TIP3   OH260964   0.643   2.714  16.328 -0.3317  0.0746 -0.5001
13158TIP3    H160965   0.642   2.784  16.394  1.3388 -1.2466  1.0155
13158TIP3    H260966   0.728   2.723  16.286  0.7974 -2.1744  1.0909
13159TIP3   OH260967   4.572   0.708   1.854  0.2880 -0.1371 -0.2768
13159TIP3    H160968   4.601   0.790   1.894 -1.8004  1.1822 -1.3075
13159TIP3    H260969   4.647   0.678   1.802  0.9225  1.3848 -0.2729
13160TIP3   OH260970   6.095   6.723   1.842 -0.2586 -0.1657  0.2115
13160TIP3    H160971   6.163   6.787   1.823 -0.3844 -0.2178 -0.4268
13160TIP3    H260972   6.013   6.767   1.818 -0.3482 -0.5359 -0.1814
13161TIP3   OH260973   0.471   5.475  14.967  0.1795 -0.0444 -0.2671
13161TIP3    H160974   0.414   5.487  15.043 -0.0680  0.2237 -0.4942
13161TIP3    H260975   0.557   5.458  15.004 -0.5508 -3.5787  0.2046
13162TIP3   OH260976   2.655   6.445   2.663 -0.4977 -0.0155  0.3170
13162TIP3    H160977   2.742   6.435   2.626 -0.7429  0.2806 -0.3579
13162TIP3    H260978   2.600   6.469   2.588 -1.2366 -0.5975  0.6549
13163TIP3   OH260979   4.591   0.734   4.377  1.0552 -0.0389 -0.6357
13163TIP3    H160980   4.659   0.730   4.445 -1.0988  0.8162  1.7616
13163TIP3    H260981   4.607   0.816   4.331  1.4054  0.3602  0.1817
13164TIP3   OH260982   2.471   6.761   2.605  0.2369 -0.0827  0.2023
13164TIP3    H160983   2.411   6.726   2.540 -0.6935  0.6194  0.6636
13164TIP3    H260984   2.558   6.752   2.565 -0.3738  1.0788 -1.4873
13165TIP3   OH260985   1.586   5.356  12.097 -0.2149  0.7235  0.3123
13165TIP3    H160986   1.678   5.384  12.101  0.4886 -1.4921  1.6873
13165TIP3    H260987   1.568   5.347  12.003  0.8565  1.5457  0.0124
13166TIP3   OH260988   2.845   1.474  14.045  0.1880  0.2010  0.6273
13166TIP3    H160989   2.752   1.448  14.047  0.1983 -0.0382 -1.0996
13166TIP3    H260990   2.888   1.406  13.994  1.2100  0.6852  0.8236
13167TIP3   OH260991   4.499   3.338  11.001  0.1195  0.1619 -0.1438
13167TIP3    H160992   4.489   3.407  10.936  0.8550  0.9808  0.5929
13167TIP3    H260993   4.416   3.337  11.048 -0.2161 -0.0707 -0.7207
13168TIP3   OH260994   2.331   0.235   5.427 -0.5625  0.2119  0.1047
13168TIP3    H160995   2.360   0.254   5.516 -0.8922 -0.7641  0.4307
13168TIP3    H260996   2.325   0.140   5.423  1.6215  0.0623 -1.6528
13169TIP3   OH260997   2.624   0.583  14.039 -0.2813  0.3481  0.0435
13169TIP3    H160998   2.599   0.494  14.066  1.3951 -0.2095 -0.1564
13169TIP3    H260999   2.674   0.617  14.113  1.1681  0.1916 -0.8264
13170TIP3   OH261000   2.623   0.054   5.281  0.5371 -0.2460  0.2282
13170TIP3    H161001   2.638   0.148   5.291  0.5330 -0.1295 -0.7777
13170TIP3    H261002   2.545   0.047   5.226  1.5539 -0.8126 -1.2011
13171TIP3   OH261003   2.365   3.919   4.611 -0.3691 -0.8172 -0.2409
13171TIP3    H161004   2.440   3.941   4.556 -1.7447 -0.2216 -1.9513
13171TIP3    H261005   2.375   3.975   4.688  1.4040 -1.4143  0.0063
13172TIP3   OH261006   1.221   0.253   6.460  0.3510 -1.0054 -0.1357
13172TIP3    H161007   1.290   0.226   6.399 -0.5784  0.1929 -1.7871
13172TIP3    H261008   1.139   0.240   6.412 -0.4328 -0.2086  0.9209
13173TIP3   OH261009   3.573   2.921  16.627 -0.7003 -0.4752  0.2622
13173TIP3    H161010   3.660   2.933  16.588  0.0089 -1.0451  1.5941
13173TIP3    H261011   3.526   3.002  16.607 -0.5378 -0.9044 -2.0987
13174TIP3   OH261012   5.566   1.008   3.902 -0.9844 -0.0831  0.6393
13174TIP3    H161013   5.527   1.079   3.850 -0.0393  1.3739  1.8502
13174TIP3    H261014   5.493   0.972   3.951 -1.5121 -0.0868 -0.1192
13175TIP3   OH261015   5.695   0.817   6.531  0.7641 -0.0739 -0.2283
13175TIP3    H161016   5.604   0.818   6.501  0.8632 -0.6022 -0.5650
13175TIP3    H261017   5.744   0.782   6.456  1.4114  1.3557 -0.5064
13176TIP3   OH261018   2.935   5.431   5.347 -0.6303 -0.5907  0.0740
13176TIP3    H161019   2.941   5.440   5.442 -0.6929  1.2262 -0.0582
13176TIP3    H261020   3.007   5.484   5.314  0.1654 -2.2051 -0.8999
13177TIP3   OH261021   0.547   5.085   4.695 -0.0625 -0.1060  0.7450
13177TIP3    H161022   0.451   5.089   4.693 -0.0939 -0.9007 -0.7508
13177TIP3    H261023   0.568   5.077   4.788 -1.2991  2.4077  1.3538
13178TIP3   OH261024   3.303   6.501  16.895 -0.2075  0.0690  0.5195
13178TIP3    H161025   3.349   6.501  16.979  1.1709  0.6806 -0.1992
13178TIP3    H261026   3.212   6.481  16.917  0.1133  0.2889  2.1587
13179TIP3   OH261027   3.109   5.845   5.308 -0.0446 -0.8263  0.0438
13179TIP3    H161028   3.124   5.752   5.292  1.4573 -0.5962  0.0207
13179TIP3    H261029   3.054   5.847   5.387  2.0755 -1.7204  1.6317
13180TIP3   OH261030   0.310   4.803  15.187  0.0659  0.2376 -0.8023
13180TIP3    H161031   0.359   4.755  15.253 -0.2739  0.3849 -0.4361
13180TIP3    H261032   0.366   4.877  15.163 -0.0997  0.5682 -0.1761
13181TIP3   OH261033   5.424   2.881   6.295  0.2634  0.0429  0.0733
13181TIP3    H161034   5.451   2.789   6.301 -2.2573 -0.7671  0.4674
13181TIP3    H261035   5.371   2.895   6.374  2.0815  2.4436  0.9660
13182TIP3   OH261036   3.294   4.253  15.344 -0.2257 -0.4215 -0.0932
13182TIP3    H161037   3.218   4.283  15.395 -1.4935 -1.4833 -1.2716
13182TIP3    H261038   3.340   4.334  15.321 -0.1331  0.1368  1.9063
13183TIP3   OH261039   1.479   6.502   4.499  0.7534 -0.5767 -0.0140
13183TIP3    H161040   1.395   6.456   4.494  0.2764  0.2724 -0.0484
13183TIP3    H261041   1.502   6.520   4.408  0.3997  0.1888  0.0426
13184TIP3   OH261042   5.942   5.110   0.276  0.4511 -0.5824 -0.0376
13184TIP3    H161043   5.941   5.062   0.359 -0.3390 -0.5564 -0.0207
13184TIP3    H261044   5.853   5.099   0.242  1.0318 -1.4469 -1.3678
13185TIP3   OH261045   4.843   5.576  16.788 -0.0764 -0.9309 -0.4333
13185TIP3    H161046   4.823   5.482  16.789 -0.3266 -0.8764 -0.3012
13185TIP3    H261047   4.937   5.580  16.769  0.0566 -1.2315  0.1191
13186TIP3   OH261048   2.122   4.573  15.739  0.0405  0.1763 -0.2087
13186TIP3    H161049   2.131   4.509  15.810  1.8405 -2.0218 -2.2537
13186TIP3    H261050   2.209   4.611  15.728 -0.8684  2.6842  0.5815
13187TIP3   OH261051   6.810   6.668   5.931  0.0161 -0.2946 -0.5044
13187TIP3    H161052   6.777   6.720   6.004  0.1415  0.7748 -1.1896
13187TIP3    H261053   6.749   6.594   5.925  0.5655 -0.9609  1.2883
13188TIP3   OH261054   6.752   6.526  16.528  0.3524  0.3475 -0.2116
13188TIP3    H161055   6.775   6.454  16.586  1.1292 -0.8393 -1.9182
13188TIP3    H261056   6.819   6.592  16.545  0.4008  0.1383  0.4318
13189TIP3   OH261057   2.205   2.910  13.414  0.1158 -0.1358 -0.6072
13189TIP3    H161058   2.226   2.868  13.497 -0.7509  1.3761  0.4364
13189TIP3    H261059   2.245   2.997  13.420 -0.5799  0.2608 -1.4421
13190TIP3   OH261060   5.383   3.447  16.170  0.3971  0.2066  0.2727
13190TIP3    H161061   5.372   3.391  16.247 -0.0016 -0.4935 -0.2927
13190TIP3    H261062   5.431   3.393  16.108  1.6776  1.1327  0.4111
13191TIP3   OH261063   5.283   2.323   0.955 -0.1273  0.0842  0.3501
13191TIP3    H161064   5.363   2.278   0.929 -0.2132  0.6724 -0.9954
13191TIP3    H261065   5.214   2.283   0.904 -0.3042  1.2570 -0.3700
13192TIP3   OH261066   2.980   5.377   0.438  0.0355  0.2888 -0.0663
13192TIP3    H161067   2.885   5.363   0.430  0.1293  0.1144 -1.0521
13192TIP3    H261068   3.018   5.290   0.423  0.3904  0.5596 -0.8085
13193TIP3   OH261069   0.224   6.240  11.558 -0.2184  0.6944 -0.1594
13193TIP3    H161070   0.227   6.269  11.467  1.8303 -0.7626 -0.6254
13193TIP3    H261071   0.186   6.314  11.605  2.0175  2.9647 -1.6581
13194TIP3   OH261072   0.318   0.768   3.211 -0.0840  0.6062 -0.2101
13194TIP3    H161073   0.316   0.833   3.281  0.5026 -1.2449  1.6279
13194TIP3    H261074   0.408   0.735   3.213 -0.5749 -0.8087 -0.5259
13195TIP3   OH261075   3.245   5.450   2.958 -0.2549  0.1537  0.1189
13195TIP3    H161076   3.310   5.392   2.918  0.2368 -0.0299  1.1705
13195TIP3    H261077   3.224   5.409   3.042  0.3010  1.6157  1.0093
13196TIP3   OH261078   1.021   1.234   2.087 -0.4841 -0.4871  0.0249
13196TIP3    H161079   1.115   1.229   2.103 -0.4010 -3.1699 -0.8596
13196TIP3    H261080   0.983   1.251   2.173  0.8225  2.6990  0.1224
13197TIP3   OH261081   5.601   3.047   0.937  0.6598 -0.0901  0.5990
13197TIP3    H161082   5.524   3.081   0.892  0.3915  0.6661  1.5971
13197TIP3    H261083   5.670   3.110   0.917  0.9600 -0.6185 -0.0665
13198TIP3   OH261084   1.503   4.521   3.214  0.7437  0.4220  0.4374
13198TIP3    H161085   1.436   4.579   3.179  0.9373  0.5818  0.3301
13198TIP3    H261086   1.455   4.456   3.265  0.5407  0.7577  0.6700
13199TIP3   OH261087   4.304   1.953   1.481 -0.4416  0.4846  0.3818
13199TIP3    H161088   4.357   2.030   1.459 -0.2077  0.8141  1.9786
13199TIP3    H261089   4.235   1.952   1.414 -0.0267  1.6543 -0.0936
13200TIP3   OH261090   6.312   2.240  13.039 -0.5196 -0.3554  0.2646
13200TIP3    H161091   6.373   2.306  13.006 -0.6518 -0.1028  0.5300
13200TIP3    H261092   6.368   2.165  13.060 -0.0663  0.4593  2.0990
13201TIP3   OH261093   3.665   0.851   3.122  0.3262 -0.0173 -0.3567
13201TIP3    H161094   3.688   0.849   3.029  0.7614 -0.3788 -0.2419
13201TIP3    H261095   3.610   0.773   3.134 -1.4635  1.1219 -0.7498
13202TIP3   OH261096   2.566   5.610   4.411 -0.1277  0.0196 -0.1057
13202TIP3    H161097   2.472   5.592   4.405 -0.2674 -0.1174  1.7848
13202TIP3    H261098   2.593   5.568   4.493  0.8320  3.1154  1.3242
13203TIP3   OH261099   0.485   5.327  12.353 -0.3636  0.1644 -0.0433
13203TIP3    H161100   0.505   5.233  12.360 -0.8659 -0.2290 -2.5960
13203TIP3    H261101   0.475   5.341  12.259 -0.6444  2.7387  0.3155
13204TIP3   OH261102   0.130   5.253   5.077 -0.1067 -0.1397 -0.0809
13204TIP3    H161103   0.090   5.340   5.084  0.4722  0.1309 -0.1079
13204TIP3    H261104   0.132   5.235   4.983 -0.4855 -0.3084 -0.0596
13205TIP3   OH261105   6.097   5.194   3.089 -0.1232  0.7404 -0.5545
13205TIP3    H161106   6.163   5.171   3.155  0.2810 -0.2567 -1.2735
13205TIP3    H261107   6.140   5.260   3.035 -0.1576  0.9698 -0.3027
13206TIP3   OH261108   2.752   6.424   4.696  0.6530 -0.1351  0.0815
13206TIP3    H161109   2.824   6.361   4.689  0.3499 -0.4875  0.1335
13206TIP3    H261110   2.691   6.384   4.757  0.9539  0.6944  0.9524
13207TIP3   OH261111   1.844   2.076  15.904  0.0363  0.5400  0.3508
13207TIP3    H161112   1.785   2.083  15.979 -0.7949 -2.9974  0.2126
13207TIP3    H261113   1.791   2.104  15.830  0.1359  1.8986  0.7602
13208TIP3   OH261114   4.219   1.918   2.390  0.4161 -0.6862 -0.3064
13208TIP3    H161115   4.202   1.886   2.301 -0.3337 -0.2676 -0.3198
13208TIP3    H261116   4.239   1.839   2.440  1.5687 -0.8586 -0.9950
13209TIP3   OH261117   5.498   6.147   1.463  0.7999  0.3274  0.3762
13209TIP3    H161118   5.471   6.180   1.377  1.1230  1.5500  0.7176
13209TIP3    H261119   5.510   6.053   1.450 -3.0858 -0.3071  0.0824
13210TIP3   OH261120   0.116   3.441   3.190  0.3425 -0.2477 -0.6171
13210TIP3    H161121   0.099   3.534   3.178 -0.2139 -0.3770 -0.8271
13210TIP3    H261122   0.179   3.438   3.263 -0.8383  0.2181  0.4561
13211TIP3   OH261123   5.897   4.533  13.479  0.0091  0.1254 -0.0188
13211TIP3    H161124   5.992   4.528  13.469  0.1186 -0.0814  1.0066
13211TIP3    H261125   5.883   4.595  13.550 -0.6566  0.5955 -0.5431
13212TIP3   OH261126   5.828   0.031   1.901  1.0380  0.4817  0.2221
13212TIP3    H161127   5.814  -0.049   1.850  0.8576 -0.3521  1.5439
13212TIP3    H261128   5.810   0.006   1.991  0.6295  2.1086  0.6326
13213TIP3   OH261129   3.350   1.756   3.513  0.1199  0.2309 -0.3700
13213TIP3    H161130   3.390   1.669   3.502  1.8453  1.0533 -0.9515
13213TIP3    H261131   3.269   1.739   3.561 -0.1945 -1.8332 -1.4913
13214TIP3   OH261132   5.748   6.357  13.845  0.6558 -0.1127  0.1390
13214TIP3    H161133   5.782   6.320  13.764  0.3741  0.8143 -0.4231
13214TIP3    H261134   5.659   6.383  13.824  0.4804 -0.1254  0.8342
13215TIP3   OH261135   1.560   5.080   4.951 -0.4017  0.0897  0.1579
13215TIP3    H161136   1.641   5.048   4.989 -0.9776 -0.6007  0.8411
13215TIP3    H261137   1.497   5.080   5.023 -1.3357 -0.5910 -0.6168
13216TIP3   OH261138   5.746   2.290  13.907  0.1790 -0.1425  0.2572
13216TIP3    H161139   5.791   2.302  13.991  0.2469 -0.9159  0.3310
13216TIP3    H261140   5.799   2.227  13.859  0.2367  0.4250 -0.4508
13217TIP3   OH261141   4.274   4.510  10.560  0.9499  0.4060 -0.1221
13217TIP3    H161142   4.266   4.596  10.518  0.9901  0.3347 -0.2758
13217TIP3    H261143   4.268   4.529  10.654  0.7130  0.5483 -0.1656
13218TIP3   OH261144   4.226   5.199  16.431  0.2524 -0.2715  0.1005
13218TIP3    H161145   4.153   5.138  16.426  0.3962 -0.4049 -0.4194
13218TIP3    H261146   4.233   5.221  16.524 -1.4347  0.9353 -0.0112
13219TIP3   OH261147   2.004   0.038  13.916 -0.2961  0.2642 -0.1778
13219TIP3    H161148   2.028   0.105  13.852 -3.0466  0.9580 -0.6515
13219TIP3    H261149   2.087   0.008  13.953  1.1318  2.8760 -1.0141
13220TIP3   OH261150   5.933   4.660  12.376  0.1619 -0.2805  0.1019
13220TIP3    H161151   5.871   4.722  12.414 -0.7849 -0.7461 -0.6439
13220TIP3    H261152   6.015   4.675  12.424 -0.3374  0.8091  0.6390
13221TIP3   OH261153   5.691   2.368  14.742 -0.0349  0.0234 -0.2923
13221TIP3    H161154   5.646   2.285  14.755  0.2868  0.0687  1.2546
13221TIP3    H261155   5.621   2.432  14.730 -0.7606  0.6031  4.8037
13222TIP3   OH261156   1.252   2.723   3.572  0.8589 -1.2481 -0.0262
13222TIP3    H161157   1.322   2.774   3.613 -0.3632  0.4385  0.0697
13222TIP3    H261158   1.223   2.663   3.640  2.1521 -1.9374 -0.0544
13223TIP3   OH261159   5.139   4.138   6.302  0.4942 -0.2328  0.4870
13223TIP3    H161160   5.121   4.161   6.393  0.9158 -0.3588  0.6057
13223TIP3    H261161   5.171   4.220   6.263 -2.5130  0.6658 -0.3603
13224TIP3   OH261162   2.316   1.667  10.967  0.3520 -0.0780  0.2337
13224TIP3    H161163   2.253   1.616  11.018 -0.3974 -0.5277 -1.0858
13224TIP3    H261164   2.381   1.696  11.031 -0.9571  0.0399  1.5663
13225TIP3   OH261165   6.464   4.338  16.500 -0.0632  0.1870 -0.0538
13225TIP3    H161166   6.492   4.284  16.426 -1.8805  2.7416 -2.8187
13225TIP3    H261167   6.410   4.280  16.553 -0.2059 -1.2659 -1.6954
13226TIP3   OH261168   2.024   3.051   1.783  0.2710 -0.0458 -0.0835
13226TIP3    H161169   2.016   2.993   1.858  0.5374  0.4309  0.3212
13226TIP3    H261170   2.055   2.995   1.712  0.9853 -0.3074  0.4281
13227TIP3   OH261171   0.307   4.426  14.642 -0.1112 -0.4749 -0.2945
13227TIP3    H161172   0.305   4.350  14.701  0.2915 -0.2919 -0.0442
13227TIP3    H261173   0.388   4.471  14.663  0.0769 -0.4457 -1.0391
13228TIP3   OH261174   0.564   5.366  16.834 -0.5569 -0.2702 -0.5032
13228TIP3    H161175   0.612   5.313  16.771 -0.3475 -0.2128 -0.3907
13228TIP3    H261176   0.511   5.303  16.884  2.2354 -0.8790  1.9893
13229TIP3   OH261177   4.787   4.638  15.167 -0.0820 -0.2211  0.0618
13229TIP3    H161178   4.806   4.715  15.115 -0.1233  0.0950  0.5061
13229TIP3    H261179   4.827   4.565  15.119  1.3725  0.2870  0.4399
13230TIP3   OH261180   1.189   4.886   5.678  0.2260  0.3337 -0.4131
13230TIP3    H161181   1.185   4.843   5.763 -0.5782  0.4916 -0.3631
13230TIP3    H261182   1.282   4.891   5.658  0.3633 -1.2945 -0.3478
13231TIP3   OH261183   6.764   1.369   0.897 -0.0811  0.4594 -0.1903
13231TIP3    H161184   6.755   1.275   0.916 -1.6507  0.2303 -1.8433
13231TIP3    H261185   6.832   1.373   0.830  0.6215  0.6087  0.5198
13232TIP3   OH261186   0.096   1.941  13.199 -0.8944 -0.8937 -0.5059
13232TIP3    H161187   0.149   1.895  13.264 -3.0507 -4.1451 -0.7753
13232TIP3    H261188   0.159   1.982  13.141  1.2846 -2.9089  0.2720
13233TIP3   OH261189   1.764   2.212  14.541  0.3020 -0.1009  0.5729
13233TIP3    H161190   1.696   2.149  14.515  0.3204  0.0972  0.0283
13233TIP3    H261191   1.800   2.243  14.458  1.3377 -0.5003  0.8621
13234TIP3   OH261192   2.177   4.030   2.061  0.4531 -0.9954 -0.1287
13234TIP3    H161193   2.197   4.120   2.085 -1.0515 -0.5569 -0.4129
13234TIP3    H261194   2.261   3.993   2.033  1.3186 -0.0571  1.1001
13235TIP3   OH261195   2.728   0.482  16.604  0.0879  0.1866 -0.1670
13235TIP3    H161196   2.780   0.403  16.591  0.2035 -0.0329  1.3589
13235TIP3    H261197   2.721   0.521  16.517  3.2989  0.5242 -0.3969
13236TIP3   OH261198   3.703   4.702  14.089 -0.3022  0.1458  0.3703
13236TIP3    H161199   3.709   4.663  14.176 -0.0641  0.9733  0.7317
13236TIP3    H261200   3.687   4.628  14.030  3.9552 -1.1128  0.5016
13237TIP3   OH261201   4.012   6.769   4.892 -0.3378 -0.0136 -0.0385
13237TIP3    H161202   4.089   6.792   4.839  1.0410  2.2451  2.6545
13237TIP3    H261203   3.945   6.831   4.864 -1.1025 -1.6541 -2.0375
13238TIP3   OH261204   0.443   6.764   2.441 -0.7138  0.6055  0.0108
13238TIP3    H161205   0.471   6.817   2.367  0.0349  0.9717  0.5558
13238TIP3    H261206   0.415   6.681   2.401  1.8862 -0.1036 -0.5149
13239TIP3   OH261207   0.813   0.734   0.243  0.3945  0.5712 -0.0483
13239TIP3    H161208   0.899   0.774   0.255  1.3515  0.0331 -3.8460
13239TIP3    H261209   0.829   0.640   0.252  0.6022  0.3614 -2.0782
13240TIP3   OH261210   5.340   0.833   0.823 -0.1068  0.0178 -0.4635
13240TIP3    H161211   5.314   0.894   0.754  0.4748  2.4242  1.3065
13240TIP3    H261212   5.435   0.843   0.830  0.0230 -1.2173 -0.2039
13241TIP3   OH261213   5.395   4.418   1.945 -0.0872 -0.3988  0.3478
13241TIP3    H161214   5.425   4.442   1.857 -1.3489  1.5703  0.3815
13241TIP3    H261215   5.321   4.359   1.929  0.0989 -0.5626  0.0870
13242TIP3   OH261216   5.869   1.448  11.487 -0.0166 -0.8384  0.2973
13242TIP3    H161217   5.839   1.427  11.576 -0.3161 -1.6441  0.0098
13242TIP3    H261218   5.963   1.430  11.489  0.4983  1.5638  1.1615
13243TIP3   OH261219   2.931   1.428   5.070  0.2640 -0.2956 -0.0622
13243TIP3    H161220   2.840   1.403   5.089 -0.6012  1.0898 -2.0675
13243TIP3    H261221   2.976   1.344   5.058 -1.1945 -1.0092 -0.8818
13244TIP3   OH261222   6.605   4.855   0.201  0.2113 -0.0788  0.2613
13244TIP3    H161223   6.590   4.934   0.150  0.8157  0.2359  0.5591
13244TIP3    H261224   6.530   4.799   0.181  0.3911  0.0616 -0.9165
13245TIP3   OH261225   1.317   1.857   5.621 -0.1451 -0.2451  0.0060
13245TIP3    H161226   1.410   1.838   5.627 -0.0582 -0.9770 -2.4819
13245TIP3    H261227   1.287   1.863   5.712  2.4085  0.5856  0.8552
13246TIP3   OH261228   6.310   5.651   1.238  0.1125  0.6945  0.2368
13246TIP3    H161229   6.283   5.657   1.329  2.9905  2.7940  1.0989
13246TIP3    H261230   6.255   5.714   1.192 -1.1500 -0.1647  0.5150
13247TIP3   OH261231   4.318   3.215   4.905  0.4861 -0.1730  0.1986
13247TIP3    H161232   4.301   3.280   4.837  0.2110  1.7412  2.0000
13247TIP3    H261233   4.343   3.266   4.982  1.8057 -2.2982  1.2920
13248TIP3   OH261234   5.082   6.188  12.955  0.2118 -0.6248 -0.1605
13248TIP3    H161235   5.139   6.251  12.910  0.7308  0.6955  2.1479
13248TIP3    H261236   5.130   6.166  13.035 -1.3273 -1.5996  0.5307
13249TIP3   OH261237   1.475   4.334  14.547  0.1051  0.2730  0.0017
13249TIP3    H161238   1.426   4.382  14.480  0.8456 -0.5655 -1.1788
13249TIP3    H261239   1.407   4.290  14.599 -0.4683  0.4792 -0.5572
13250TIP3   OH261240   4.701   3.543   0.031  0.2843 -0.1718 -0.1769
13250TIP3    H161241   4.625   3.571  -0.020 -0.3148  1.8675  1.6432
13250TIP3    H261242   4.688   3.449   0.044 -2.3489  0.2233  0.6448
13251TIP3   OH261243   2.740   0.157   2.463 -0.2357  0.2138 -0.0843
13251TIP3    H161244   2.719   0.097   2.392  2.6491  0.1704 -1.0354
13251TIP3    H261245   2.822   0.124   2.499  0.3829  2.4060  0.6860
13252TIP3   OH261246   0.843   3.761   0.477  0.2621 -0.0155  0.1894
13252TIP3    H161247   0.820   3.801   0.393 -0.9532 -2.2910 -0.6413
13252TIP3    H261248   0.921   3.709   0.459 -0.3765 -1.0306  0.2694
13253TIP3   OH261249   1.893   6.479  16.886  0.3332 -0.4426  0.1017
13253TIP3    H161250   1.834   6.412  16.920  0.4326 -1.4702 -1.6479
13253TIP3    H261251   1.836   6.544  16.847  0.2957 -0.9137 -0.6543
13254TIP3   OH261252   5.936   4.000   3.632 -0.1905  0.3566  0.2352
13254TIP3    H161253   5.891   3.920   3.604  0.0912  0.1004  0.5130
13254TIP3    H261254   5.896   4.022   3.716  0.9565 -0.4954  1.0292
13255TIP3   OH261255   6.241   3.585   5.974 -0.6610 -0.3466 -0.0676
13255TIP3    H161256   6.232   3.624   5.887 -2.2610 -0.0341  0.1999
13255TIP3    H261257   6.184   3.638   6.029  0.0933 -0.7347  1.1177
13256TIP3   OH261258   1.912   1.046  11.266  0.1446 -0.1087 -0.6223
13256TIP3    H161259   1.847   0.976  11.277  1.2257 -1.0885 -0.2484
13256TIP3    H261260   1.925   1.052  11.171 -0.3965  0.0255 -0.6949
13257TIP3   OH261261   0.076   3.543  14.387  0.8428 -0.7678  0.0305
13257TIP3    H161262   0.062   3.628  14.345  0.4223 -0.4751  0.7603
13257TIP3    H261263   0.102   3.486  14.315 -1.4575 -0.6872 -0.9567
13258TIP3   OH261264   6.615   5.471   5.577  0.3908  0.2407  0.5729
13258TIP3    H161265   6.535   5.443   5.532  0.3310  0.3511  0.6131
13258TIP3    H261266   6.586   5.493   5.665  0.0954  2.3426 -0.0032
13259TIP3   OH261267   6.533   3.708   2.330  0.2616 -0.1120 -0.1834
13259TIP3    H161268   6.592   3.739   2.399 -0.0058 -1.0554  0.4884
13259TIP3    H261269   6.551   3.766   2.256  2.2281 -0.5053 -0.0913
13260TIP3   OH261270   2.081   4.592  12.504  0.4130  0.2351 -0.3617
13260TIP3    H161271   2.154   4.612  12.562  0.1659 -1.7490  0.6975
13260TIP3    H261272   2.111   4.517  12.453 -0.7239 -0.3393 -0.2148
13261TIP3   OH261273   4.541   1.747  12.263 -0.0696 -0.1481 -0.2717
13261TIP3    H161274   4.509   1.769  12.351 -0.1164 -2.4236  0.3491
13261TIP3    H261275   4.632   1.775  12.263 -0.3638  0.8268  0.1285
13262TIP3   OH261276   0.016   4.251  12.045  0.7169  0.3424 -0.6349
13262TIP3    H161277  -0.006   4.265  11.953 -0.8456  1.4488 -0.1370
13262TIP3    H261278  -0.004   4.334  12.088 -0.1561 -0.6467  0.9666
13263TIP3   OH261279   4.751   3.605   3.860  0.1462  0.0131 -0.1993
13263TIP3    H161280   4.798   3.532   3.819  2.3082  1.1903  0.0161
13263TIP3    H261281   4.781   3.605   3.951 -1.6371 -0.2104  0.4288
13264TIP3   OH261282   0.021   6.092   2.584 -0.2154 -0.0190  0.0114
13264TIP3    H161283  -0.033   6.092   2.663 -0.4490 -0.3388 -0.1469
13264TIP3    H261284  -0.024   6.032   2.524  0.6846 -0.8250  0.1209
13265TIP3   OH261285   3.043   4.269   4.155  0.0158  0.1420  0.0145
13265TIP3    H161286   3.099   4.315   4.092 -0.0312  1.1815  0.7085
13265TIP3    H261287   3.105   4.218   4.208  0.3086  1.0827  0.6084
13266TIP3   OH261288   4.875   4.556   0.098  0.2794 -0.9561  0.0974
13266TIP3    H161289   4.781   4.540   0.104  0.1648 -1.1249 -1.6410
13266TIP3    H261290   4.911   4.476   0.059  1.1045 -0.7777  0.4696
13267TIP3   OH261291   4.534   6.230   4.223  0.2688 -0.5776  0.1659
13267TIP3    H161292   4.492   6.144   4.233  1.8326 -1.3021  0.8464
13267TIP3    H261293   4.578   6.225   4.138  0.9461 -0.7239  0.5200
13268TIP3   OH261294   3.749   2.357  16.126 -0.1378 -0.3526 -0.3271
13268TIP3    H161295   3.735   2.341  16.219 -0.8975  3.0592  0.2597
13268TIP3    H261296   3.833   2.315  16.107 -0.4230 -1.9532  1.6108
13269TIP3   OH261297   2.499   3.197   5.952  0.6444 -0.4350 -0.2926
13269TIP3    H161298   2.560   3.243   6.011  0.2641  0.3354 -0.4819
13269TIP3    H261299   2.466   3.266   5.894  0.6056 -1.0866 -1.0622
13270TIP3   OH261300   3.332   3.590   3.146 -0.2455 -0.1889 -0.3842
13270TIP3    H161301   3.362   3.573   3.057  0.3831  0.4720 -0.3112
13270TIP3    H261302   3.405   3.563   3.202  0.7457  2.4380 -0.2580
13271TIP3   OH261303   6.056   2.122  14.729 -0.6188  0.4086 -0.0899
13271TIP3    H161304   6.118   2.100  14.659 -0.3513  0.6838  0.0566
13271TIP3    H261305   6.111   2.142  14.804 -0.8904  0.5661  0.0665
13272TIP3   OH261306   3.111   4.296  15.574  0.2345  0.4563 -0.2136
13272TIP3    H161307   3.026   4.322  15.610  1.4201  4.7178  0.0620
13272TIP3    H261308   3.171   4.298  15.648  0.8756 -1.1593 -0.6486
13273TIP3   OH261309   2.889   1.978   1.333  0.3268 -0.6649 -0.2148
13273TIP3    H161310   2.811   1.957   1.383 -0.5100  0.6917 -0.9066
13273TIP3    H261311   2.929   1.893   1.313 -0.8373 -1.3546  0.3447
13274TIP3   OH261312   1.015   6.764  16.161  0.7053 -0.4075 -0.0596
13274TIP3    H161313   0.986   6.855  16.152  0.1678 -0.5487  0.2043
13274TIP3    H261314   0.954   6.714  16.106  2.3483 -0.3852 -2.0589
13275TIP3   OH261315   2.765   5.683  16.699 -0.1472 -0.2614 -0.0545
13275TIP3    H161316   2.683   5.680  16.749 -0.2267 -0.6478 -0.2048
13275TIP3    H261317   2.747   5.746  16.629 -0.2320 -0.1642  0.0512
13276TIP3   OH261318   3.795   5.704  11.952 -0.0516 -0.1779  0.0631
13276TIP3    H161319   3.704   5.714  11.924 -0.6366 -1.3864  1.3950
13276TIP3    H261320   3.846   5.733  11.876 -1.5413 -1.8605 -1.7174
13277TIP3   OH261321   3.537   6.664  13.092 -0.2463 -0.7448  0.3456
13277TIP3    H161322   3.450   6.702  13.099 -0.7275 -1.9744  1.5035
13277TIP3    H261323   3.598   6.736  13.108 -0.8768  0.8015 -3.2052
13278TIP3   OH261324   4.751   0.621   4.581  0.5607 -0.5742 -0.1964
13278TIP3    H161325   4.811   0.549   4.560  0.3163 -0.9711  0.4284
13278TIP3    H261326   4.667   0.578   4.596 -0.1955  0.0832 -2.2407
13279TIP3   OH261327   0.666   3.414  16.957  0.4176 -0.2575  0.2747
13279TIP3    H161328   0.570   3.413  16.958  0.3957 -1.3660 -0.4844
13279TIP3    H261329   0.689   3.506  16.953 -0.6175  0.0299  0.5242
13280TIP3   OH261330   0.274   5.876   4.883  0.3879 -0.6045 -0.7760
13280TIP3    H161331   0.203   5.845   4.828 -0.9015  0.1965  0.3697
13280TIP3    H261332   0.283   5.809   4.950 -1.7334  0.8433  1.1230
13281TIP3   OH261333   1.607   3.049   2.101  0.1059 -0.6420 -0.0138
13281TIP3    H161334   1.568   3.094   2.177 -0.7755 -1.3601 -0.0329
13281TIP3    H261335   1.552   2.972   2.088  0.4571 -0.7022 -1.1868
13282TIP3   OH261336   4.509   4.790  10.575  0.3815  0.5325  0.1273
13282TIP3    H161337   4.531   4.735  10.500 -1.8616 -1.9008  1.0762
13282TIP3    H261338   4.425   4.829  10.553  1.0110  2.0553  0.3005
13283TIP3   OH261339   1.835   2.218  16.682  0.1776  0.4229 -0.0048
13283TIP3    H161340   1.771   2.207  16.611  1.6643 -0.1116 -1.3219
13283TIP3    H261341   1.798   2.288  16.737 -0.7240  1.3129 -1.6597
13284TIP3   OH261342   2.868   2.570   2.918  0.1273 -0.0574  0.6569
13284TIP3    H161343   2.798   2.601   2.861 -0.3274  0.9586  1.7213
13284TIP3    H261344   2.853   2.476   2.926 -0.3110 -0.0720 -0.1863
13285TIP3   OH261345   3.822   2.877   4.069  0.0294  0.4307 -0.1278
13285TIP3    H161346   3.861   2.921   3.994  0.0328 -1.3535 -1.2452
13285TIP3    H261347   3.825   2.784   4.046 -1.4646 -0.0461  1.3810
13286TIP3   OH261348   6.431   4.445  15.812 -0.5858  0.0360 -0.0834
13286TIP3    H161349   6.343   4.484  15.818 -0.2864  0.6369  0.5628
13286TIP3    H261350   6.473   4.491  15.739  0.1527  1.7656  1.3667
13287TIP3   OH261351   4.134   4.074  12.727  0.3680  0.4660 -0.3221
13287TIP3    H161352   4.158   4.154  12.775 -0.1938 -0.2887  1.2749
13287TIP3    H261353   4.045   4.054  12.757  0.4862 -0.7407 -0.7366
13288TIP3   OH261354   0.119   3.115  14.510  0.3353 -0.2191 -0.0884
13288TIP3    H161355   0.044   3.169  14.536  0.3968 -0.3053  0.2713
13288TIP3    H261356   0.192   3.177  14.503 -0.3244  0.3576 -3.1289
13289TIP3   OH261357   3.686   1.051  11.804 -0.5645 -0.5358 -0.2540
13289TIP3    H161358   3.598   1.088  11.811 -0.1312  0.6870 -1.0198
13289TIP3    H261359   3.703   1.048  11.710 -0.0887 -1.5458 -0.1552
13290TIP3   OH261360   4.482   5.027  15.484  0.4801 -0.9876  0.1531
13290TIP3    H161361   4.494   4.988  15.398  0.6926 -0.7947  0.0932
13290TIP3    H261362   4.425   4.966  15.531  0.4117 -1.1220 -0.1037
13291TIP3   OH261363   2.631   3.086   4.066  0.0981  0.2619  0.0581
13291TIP3    H161364   2.690   3.035   4.122  0.1018 -0.0788 -0.2506
13291TIP3    H261365   2.687   3.120   3.996 -0.1260 -0.3973 -0.4628
13292TIP3   OH261366   0.845   6.716  14.117  0.9086 -0.2209 -0.0052
13292TIP3    H161367   0.750   6.728  14.122  0.7895 -0.9958 -0.1933
13292TIP3    H261368   0.858   6.622  14.129  1.5350 -0.3487 -1.4652
13293TIP3   OH261369   4.483   1.059   5.065  0.2722 -0.5811 -0.6822
13293TIP3    H161370   4.517   1.149   5.069 -0.2637 -0.3037 -1.8740
13293TIP3    H261371   4.499   1.032   4.974  0.4651 -1.7172 -0.3255
13294TIP3   OH261372   4.073   0.064  15.710  0.4259 -0.3115 -0.0755
13294TIP3    H161373   4.102  -0.007  15.767 -0.7266 -0.5834  0.2086
13294TIP3    H261374   4.063   0.139  15.768 -1.3948 -0.7595  0.2637
13295TIP3   OH261375   4.951   2.894  11.970 -0.6380 -0.0897 -0.4656
13295TIP3    H161376   4.993   2.874  12.053 -2.2887  2.1687  1.0144
13295TIP3    H261377   4.946   2.989  11.968 -1.4425 -0.1194 -2.7541
13296TIP3   OH261378   3.658   2.990   3.587 -0.0351 -0.5202  0.0046
13296TIP3    H161379   3.593   3.014   3.652 -0.4820  2.0689 -1.2370
13296TIP3    H261380   3.609   2.948   3.517  0.0593 -0.9413  0.1846
13297TIP3   OH261381   2.696   3.150  15.971  0.1756 -0.4664  0.0208
13297TIP3    H161382   2.612   3.116  16.001  0.0876  0.9651  1.5505
13297TIP3    H261383   2.754   3.074  15.971 -0.8158 -1.2469  0.0764
13298TIP3   OH261384   2.589   3.177   5.248  0.4526  0.0263 -0.1233
13298TIP3    H161385   2.512   3.126   5.224  0.7634  0.0237 -1.1629
13298TIP3    H261386   2.576   3.198   5.341  0.0639 -1.4946  0.1930
13299TIP3   OH261387   2.269   5.716  12.961  0.6817 -0.1072  0.0365
13299TIP3    H161388   2.332   5.752  13.024 -0.2333  0.6423  0.5391
13299TIP3    H261389   2.201   5.783  12.954 -0.6023 -1.3495  0.2995
13300TIP3   OH261390   1.690   2.561  11.859 -0.1128 -0.2378 -0.2083
13300TIP3    H161391   1.747   2.584  11.786  0.9917 -1.2698  0.2778
13300TIP3    H261392   1.750   2.545  11.932 -1.0585 -0.9122  0.4487
13301TIP3   OH261393   1.341   3.318   0.824  0.3766  0.8626 -0.1687
13301TIP3    H161394   1.253   3.297   0.855  1.1649 -0.1053  1.5850
13301TIP3    H261395   1.356   3.258   0.751 -0.0903  0.3661  0.1340
13302TIP3   OH261396   1.116   6.010   4.669 -0.3505 -0.2604 -0.0744
13302TIP3    H161397   1.054   6.066   4.624 -0.7217 -1.0065 -0.5030
13302TIP3    H261398   1.072   5.987   4.751 -0.4248 -0.3658 -0.1438
13303TIP3   OH261399   1.698   4.953   2.344  0.3858  0.1641  0.2737
13303TIP3    H161400   1.733   4.997   2.266  0.0403 -1.2431 -0.7063
13303TIP3    H261401   1.711   5.017   2.415 -0.4919  2.0233 -1.1576
13304TIP3   OH261402   3.925   3.182   1.136  0.2016 -0.0267  0.3862
13304TIP3    H161403   3.984   3.140   1.198 -0.4881 -1.2105  0.2910
13304TIP3    H261404   3.878   3.109   1.095 -1.2349  0.8438  0.3849
13305TIP3   OH261405   0.771   5.416  14.359 -0.0421 -0.5820 -0.0266
13305TIP3    H161406   0.849   5.470  14.360  0.2222 -0.8111 -2.4594
13305TIP3    H261407   0.798   5.334  14.401  0.2436  0.2385  1.4556
13306TIP3   OH261408   6.210   4.194  16.588 -0.3891  0.5422 -0.6364
13306TIP3    H161409   6.128   4.158  16.622 -0.0626 -0.7369 -1.1413
13306TIP3    H261410   6.189   4.225  16.500 -0.3952  0.4907 -0.6529
13307TIP3   OH261411   5.135   3.747  12.678 -0.5603  0.4199  0.0945
13307TIP3    H161412   5.093   3.721  12.596 -0.5500  1.0075 -0.1039
13307TIP3    H261413   5.067   3.732  12.744 -0.8666  0.7371 -0.1383
13308TIP3   OH261414   1.565   3.411  10.563 -0.3639 -0.1182  0.7145
13308TIP3    H161415   1.602   3.331  10.602 -0.5009 -0.6966 -0.3057
13308TIP3    H261416   1.553   3.470  10.637  0.6990 -0.6637  1.3543
13309TIP3   OH261417   5.726   5.998   1.087 -0.0921  0.8422  0.6116
13309TIP3    H161418   5.686   5.993   1.000 -0.6955  0.3986  0.9094
13309TIP3    H261419   5.655   5.976   1.148  0.9042 -1.3542  1.0827
13310TIP3   OH261420   5.084   3.674  14.395  0.4218 -0.1262  0.5009
13310TIP3    H161421   5.033   3.707  14.321 -0.2721  1.3618  1.5894
13310TIP3    H261422   5.175   3.680  14.366  0.1810  0.7943 -0.0931
13311TIP3   OH261423   4.572   1.891   5.839 -1.0223  1.0889  0.8533
13311TIP3    H161424   4.576   1.963   5.901 -0.7336 -0.4834  2.7480
13311TIP3    H261425   4.522   1.823   5.884 -0.7028 -0.1557 -0.5890
13312TIP3   OH261426   6.312   4.230  14.450  0.8463  0.2244 -0.4991
13312TIP3    H161427   6.320   4.266  14.361  1.7615  0.3240 -0.3905
13312TIP3    H261428   6.366   4.288  14.504  1.3938 -0.6140 -0.1190
13313TIP3   OH261429   4.979   6.489  14.372 -0.2294  0.2740  0.3824
13313TIP3    H161430   4.926   6.460  14.298 -1.5624  0.6261  1.1598
13313TIP3    H261431   4.978   6.585  14.367  1.1338  0.2842 -0.1159
13314TIP3   OH261432   1.767   2.100  16.200  0.3144 -0.6093 -0.6799
13314TIP3    H161433   1.858   2.091  16.171  0.5269 -0.2071 -0.1521
13314TIP3    H261434   1.746   2.015  16.239  0.8871 -0.2798  0.3616
13315TIP3   OH261435   3.723   4.816   3.023  0.0823 -0.5307  0.0870
13315TIP3    H161436   3.768   4.838   3.104 -0.0037  0.9682 -0.2552
13315TIP3    H261437   3.632   4.801   3.049  0.2866 -1.2631  0.4260
13316TIP3   OH261438   2.034   4.809   3.487  0.0131 -0.1783  0.3977
13316TIP3    H161439   2.102   4.857   3.534 -0.1358  0.5293 -0.0777
13316TIP3    H261440   2.032   4.850   3.400  0.2200 -1.3887 -0.1974
13317TIP3   OH261441   4.455   0.843  14.261 -0.5721 -0.3735  0.0453
13317TIP3    H161442   4.528   0.853  14.200 -1.0685  0.5148 -0.4223
13317TIP3    H261443   4.497   0.831  14.347  0.1769 -3.1362 -0.6049
13318TIP3   OH261444   3.921   5.044  11.776 -0.3533  0.0010 -0.2532
13318TIP3    H161445   3.855   5.060  11.844  2.1122  0.9037  2.1221
13318TIP3    H261446   3.961   4.961  11.802  1.6507  1.1005  0.4356
13319TIP3   OH261447   4.987   4.009  10.612  0.2613  0.1156  0.3034
13319TIP3    H161448   5.004   3.915  10.600  0.3499 -0.1223  2.0847
13319TIP3    H261449   5.029   4.031  10.694 -0.1292  1.6373  0.1203
13320TIP3   OH261450   5.159   2.107  14.620  0.1265 -0.0750 -0.4280
13320TIP3    H161451   5.226   2.099  14.552  0.4566  1.9525 -0.3890
13320TIP3    H261452   5.206   2.095  14.702 -0.5014 -4.0946 -0.4131
13321TIP3   OH261453   5.110   6.493   1.323  0.1206  0.3533  0.4150
13321TIP3    H161454   5.041   6.493   1.389  0.2597 -0.2190  0.5622
13321TIP3    H261455   5.086   6.423   1.262  0.2883  0.5094  0.1639
13322TIP3   OH261456   6.426   0.284  15.444 -0.3114 -0.3118  0.2670
13322TIP3    H161457   6.428   0.196  15.481  2.6459 -1.2757 -1.8096
13322TIP3    H261458   6.348   0.285  15.388 -1.4966 -0.8367  1.8523
13323TIP3   OH261459   1.763   4.356   2.821 -0.1313 -0.5577 -0.2991
13323TIP3    H161460   1.773   4.445   2.789 -1.4070 -0.6303 -0.9403
13323TIP3    H261461   1.671   4.336   2.809  0.0126 -1.7547  0.4105
13324TIP3   OH261462   3.074   6.397   1.363  0.5285 -0.0882 -0.1656
13324TIP3    H161463   3.148   6.352   1.404  2.3171  3.0008  0.3833
13324TIP3    H261464   3.000   6.378   1.420  1.2709 -1.8348  0.2857
13325TIP3   OH261465   0.485   2.446   3.978 -0.0447 -0.4150 -0.4695
13325TIP3    H161466   0.401   2.401   3.968 -0.0202 -0.4820 -0.3740
13325TIP3    H261467   0.548   2.377   3.997  0.3754 -0.5930 -2.3035
13326TIP3   OH261468   1.068   4.327  13.705  0.3181 -0.1341 -0.0034
13326TIP3    H161469   1.056   4.411  13.750 -4.2265  0.8181 -2.2889
13326TIP3    H261470   1.063   4.349  13.612  0.3702 -2.7926 -0.7191
13327TIP3   OH261471   1.330   6.705   4.040  0.3309 -0.6171  0.4088
13327TIP3    H161472   1.243   6.691   4.002  0.2652  0.2468  0.2224
13327TIP3    H261473   1.391   6.692   3.967  0.2443  0.4128  0.1356
13328TIP3   OH261474   0.064   0.160  13.132 -0.2991  0.5535  0.1168
13328TIP3    H161475   0.070   0.255  13.142 -0.9421  0.6409 -0.3152
13328TIP3    H261476   0.120   0.126  13.202 -1.4466  1.2204  1.4048
13329TIP3   OH261477   3.997   5.830   0.489  0.0891  0.1365  0.3298
13329TIP3    H161478   4.035   5.752   0.530 -0.4774  0.1752  0.9518
13329TIP3    H261479   4.068   5.893   0.485  0.5232 -0.3637 -0.0651
13330TIP3   OH261480   2.459   3.867   5.586 -0.1621  0.1347 -0.0377
13330TIP3    H161481   2.403   3.797   5.553  1.1787 -0.7422 -0.5385
13330TIP3    H261482   2.426   3.885   5.674 -2.0999  0.6396 -0.8007
13331TIP3   OH261483   0.174   6.230  10.757  0.5731  0.1579  0.7954
13331TIP3    H161484   0.195   6.139  10.735 -1.4388 -0.1540 -0.0526
13331TIP3    H261485   0.106   6.255  10.694  0.0363  1.7542  1.9387
13332TIP3   OH261486   1.164   3.661   2.808  0.1585 -0.6831  0.0669
13332TIP3    H161487   1.177   3.664   2.713 -0.4428 -1.6077 -0.0600
13332TIP3    H261488   1.221   3.591   2.838  0.6136 -0.1591  0.4508
13333TIP3   OH261489   0.934   4.439  12.216 -0.1421 -0.0104 -0.0431
13333TIP3    H161490   0.916   4.512  12.157 -0.6772  0.0347  0.1686
13333TIP3    H261491   1.002   4.389  12.172 -0.2292  0.2617 -0.4952
13334TIP3   OH261492   4.787   2.021   5.140  0.8736  0.3715  0.1035
13334TIP3    H161493   4.738   2.081   5.196  1.4364  1.2045 -0.2758
13334TIP3    H261494   4.843   1.972   5.200  0.4761  0.2869  0.4076
13335TIP3   OH261495   3.137   3.409   4.121 -0.0852  0.5422 -0.2833
13335TIP3    H161496   3.058   3.361   4.095  0.6495 -0.5738 -0.5440
13335TIP3    H261497   3.201   3.389   4.053  1.2249 -0.7282  1.2191
13336TIP3   OH261498   5.099   1.529   4.518  0.4684  0.1785 -0.0962
13336TIP3    H161499   5.019   1.477   4.523  0.9876 -0.5712  0.5731
13336TIP3    H261500   5.069   1.620   4.523 -0.5835  0.0741 -2.7427
13337TIP3   OH261501   6.253   6.284  11.965  0.0618 -0.9084 -0.6839
13337TIP3    H161502   6.160   6.263  11.964  0.0453 -0.8086 -1.7077
13337TIP3    H261503   6.256   6.377  11.988  0.0686 -1.5158  2.2337
13338TIP3   OH261504   2.491   2.017   0.694 -0.2697 -0.1038  0.3909
13338TIP3    H161505   2.514   1.957   0.765  0.1405 -0.4260 -0.0087
13338TIP3    H261506   2.569   2.070   0.681 -0.7101  0.6713  0.8924
13339TIP3   OH261507   1.735   4.904   4.094  0.2520 -0.3428  0.3617
13339TIP3    H161508   1.805   4.913   4.158  0.8483 -1.4062 -0.0981
13339TIP3    H261509   1.655   4.895   4.146  0.5112  0.4179  0.9043
13340TIP3   OH261510   6.232   2.143  10.798  0.4043  0.0060 -0.3007
13340TIP3    H161511   6.279   2.069  10.759  0.0832  0.1766 -1.0230
13340TIP3    H261512   6.153   2.151  10.746 -0.0815  0.1878  0.4490
13341TIP3   OH261513   2.518   4.437   5.754  0.4841 -0.5703  0.4216
13341TIP3    H161514   2.423   4.445   5.744  0.5494  3.0831  1.3887
13341TIP3    H261515   2.553   4.462   5.668  0.5868 -1.1239  0.3014
13342TIP3   OH261516   0.417   6.741  16.954 -0.3431 -0.1824 -0.6297
13342TIP3    H161517   0.403   6.826  16.994 -1.9307 -0.4288 -0.5715
13342TIP3    H261518   0.328   6.705  16.942  0.2739 -1.7909 -0.7090
13343TIP3   OH261519   6.686   6.562  15.479 -0.1771 -0.0454  0.3311
13343TIP3    H161520   6.690   6.491  15.415  1.2658  0.7717 -0.5481
13343TIP3    H261521   6.658   6.639  15.428 -5.1051 -0.4902  1.8548
13344TIP3   OH261522   3.388   2.559  13.214  0.1497 -0.8451  0.3196
13344TIP3    H161523   3.472   2.601  13.195  0.5849 -1.5647  0.6220
13344TIP3    H261524   3.366   2.589  13.302 -0.3867  0.1006 -0.1272
13345TIP3   OH261525   0.683   2.782   0.426 -0.4306 -0.0325  0.0173
13345TIP3    H161526   0.711   2.832   0.349 -0.3756 -1.4617 -0.9184
13345TIP3    H261527   0.734   2.820   0.498 -1.3966  2.1831 -0.3582
13346TIP3   OH261528   3.505   4.545   2.799 -0.5399  0.2002  0.3503
13346TIP3    H161529   3.496   4.469   2.741 -0.3652 -0.1227  0.7430
13346TIP3    H261530   3.595   4.540   2.831 -0.1699  1.1892 -0.4733
13347TIP3   OH261531   4.850   0.232   2.384 -0.0300 -0.4366 -0.2789
13347TIP3    H161532   4.771   0.259   2.432 -0.0878 -0.6968 -0.2211
13347TIP3    H261533   4.923   0.264   2.438 -0.0799  1.0598 -1.0514
13348TIP3   OH261534   3.666   4.108  11.177 -0.1840 -0.0249  0.2308
13348TIP3    H161535   3.646   4.140  11.089  0.2917  1.4635  0.6503
13348TIP3    H261536   3.587   4.125  11.228  0.2332  0.9244  0.5687
13349TIP3   OH261537   3.822   0.440  16.073 -0.1134  0.3568 -0.2706
13349TIP3    H161538   3.821   0.432  16.169  2.5708 -1.0267 -0.2833
13349TIP3    H261539   3.882   0.513  16.056 -0.6695  0.6731 -0.9419
13350TIP3   OH261540   6.743   3.324   2.818 -0.1160  0.5609  0.0675
13350TIP3    H161541   6.816   3.345   2.877  0.0590 -1.3362  0.6063
13350TIP3    H261542   6.771   3.244   2.774 -1.9895 -0.4043  0.5211
13351TIP3   OH261543   6.217   6.033  15.848  0.5895  0.4681  0.7788
13351TIP3    H161544   6.195   6.017  15.940 -0.3741 -1.7231  0.2427
13351TIP3    H261545   6.313   6.029  15.846  0.5636 -1.5660  1.4081
13352TIP3   OH261546   0.395   6.801  13.317 -0.1378  0.3553 -0.6264
13352TIP3    H161547   0.433   6.809  13.229  1.4330 -0.6761 -0.0867
13352TIP3    H261548   0.459   6.843  13.375 -0.7093  0.2069  0.1208
13353TIP3   OH261549   6.038   2.800   4.330  0.4399 -0.3501 -0.3101
13353TIP3    H161550   6.073   2.769   4.414 -1.1009  0.0955  0.5599
13353TIP3    H261551   6.077   2.887   4.318  0.5644 -0.3556  0.0350
13354TIP3   OH261552   6.513   6.143  14.637  0.5474 -0.0324  0.4254
13354TIP3    H161553   6.543   6.231  14.660  0.9599 -0.4086  1.3803
13354TIP3    H261554   6.455   6.157  14.562 -0.7022  1.2307  1.5750
13355TIP3   OH261555   0.019   5.911   5.874  0.2770  0.2796  0.1419
13355TIP3    H161556   0.078   5.875   5.940 -0.8140  0.5164  1.2845
13355TIP3    H261557  -0.060   5.856   5.880 -0.4045  1.2315  0.0762
13356TIP3   OH261558   6.546   5.681   5.284 -0.4796  0.1886  0.3549
13356TIP3    H161559   6.478   5.653   5.346 -0.1858  0.9054  1.0178
13356TIP3    H261560   6.619   5.708   5.340 -0.0120  0.3664 -0.3287
13357TIP3   OH261561   6.468   2.282   2.821  0.4209 -0.1257  0.5239
13357TIP3    H161562   6.449   2.330   2.740 -0.2965 -0.3080  0.5748
13357TIP3    H261563   6.558   2.252   2.811  0.2156 -0.4628 -0.3614
13358TIP3   OH261564   4.107   1.932   0.920  0.0269 -0.0334 -0.3767
13358TIP3    H161565   4.111   1.857   0.979  3.3898 -0.3639 -0.8457
13358TIP3    H261566   4.126   2.007   0.976 -0.4900  0.1226 -0.4072
13359TIP3   OH261567   4.301   4.812  14.429 -0.5084 -0.8603 -0.6187
13359TIP3    H161568   4.314   4.859  14.348 -1.2915 -0.9480 -0.8111
13359TIP3    H261569   4.359   4.854  14.492  0.9133 -1.4817 -1.4707
13360TIP3   OH261570   4.480   1.121  13.970  0.0331 -0.6699  0.4885
13360TIP3    H161571   4.462   1.194  14.030 -0.5009 -1.2089  0.9892
13360TIP3    H261572   4.408   1.124  13.907  0.2986 -0.4476  0.1861
13361TIP3   OH261573   2.638   1.091   1.523 -0.5985 -0.2321  0.1068
13361TIP3    H161574   2.726   1.095   1.485 -0.2021 -1.1985  0.8797
13361TIP3    H261575   2.582   1.063   1.451 -0.1777 -0.1538 -0.2529
13362TIP3   OH261576   2.052   0.234   5.491  0.5840  0.0720  0.0087
13362TIP3    H161577   2.127   0.247   5.433  1.6146  0.2953  1.3330
13362TIP3    H261578   1.990   0.302   5.466  1.3715  0.7029 -0.2813
13363TIP3   OH261579   2.165   2.222   5.243 -0.0619  0.4435 -0.3281
13363TIP3    H161580   2.105   2.294   5.225 -0.6752  0.6703  2.2841
13363TIP3    H261581   2.124   2.146   5.202 -0.7615  1.0855 -0.8432
13364TIP3   OH261582   2.881   3.788   6.127  0.1682  0.0661  0.3658
13364TIP3    H161583   2.955   3.743   6.167  0.2141  1.2928  1.7812
13364TIP3    H261584   2.805   3.756   6.175 -0.0188  0.0608  0.0687
13365TIP3   OH261585   3.810   3.928  11.813  0.0755  0.4712  0.3625
13365TIP3    H161586   3.730   3.874  11.811  0.0223  0.5748 -0.7645
13365TIP3    H261587   3.840   3.922  11.904  0.5002 -2.0995  0.1378
13366TIP3   OH261588   6.311   0.070  17.166  0.5472  0.4969  0.0675
13366TIP3    H161589   6.334   0.085  17.258  1.0744 -0.3407  0.0766
13366TIP3    H261590   6.267  -0.016  17.166  1.7474 -0.1380 -0.6461
13367TIP3   OH261591   1.325   2.553   1.231 -0.3715 -0.5431  0.0272
13367TIP3    H161592   1.305   2.590   1.144 -0.5624 -0.5353  0.0733
13367TIP3    H261593   1.374   2.473   1.212  2.1891  0.9536 -0.0360
13368TIP3   OH261594   0.942   5.878  16.202  0.6256  0.4021 -0.3017
13368TIP3    H161595   0.973   5.938  16.134  1.5020  2.1936  1.5686
13368TIP3    H261596   1.011   5.879  16.268 -0.3468 -1.0018  0.7929
13369TIP3   OH261597   2.198   5.050  12.265 -0.2309  0.5900 -0.6363
13369TIP3    H161598   2.289   5.075  12.285 -0.8886  0.3941  3.4905
13369TIP3    H261599   2.152   5.134  12.260 -0.1242  0.6236 -1.1795
13370TIP3   OH261600   0.117   6.001  11.732  0.2091 -0.2012  0.3816
13370TIP3    H161601   0.170   6.030  11.657  0.8486 -1.8627  0.1521
13370TIP3    H261602   0.051   5.944  11.694  0.4846 -0.9920  1.0643
13371TIP3   OH261603   4.536   5.095   0.164 -0.6524 -0.8184  0.1099
13371TIP3    H161604   4.516   5.054   0.080  0.4507  0.6172 -0.9002
13371TIP3    H261605   4.579   5.025   0.214 -1.5599 -1.7667 -0.3852
13372TIP3   OH261606   0.211   3.389   1.246  0.0949  0.2452  0.2160
13372TIP3    H161607   0.199   3.475   1.205  1.4857 -0.1545 -1.1004
13372TIP3    H261608   0.143   3.386   1.314 -2.9447  0.6151 -2.5238
13373TIP3   OH261609   1.339   0.579  16.752  0.0898  0.0097 -0.1714
13373TIP3    H161610   1.425   0.618  16.733 -0.0022 -0.4718 -1.7344
13373TIP3    H261611   1.360   0.499  16.801  0.6268 -0.6299 -1.4003
13374TIP3   OH261612   4.380   2.636  11.977 -0.2266  0.2559 -0.0308
13374TIP3    H161613   4.394   2.730  11.987  0.4928  0.3016 -1.2587
13374TIP3    H261614   4.317   2.614  12.045 -1.2027  1.8233 -0.3602
13375TIP3   OH261615   3.144   6.340  13.116  0.1541 -0.3689 -0.2707
13375TIP3    H161616   3.061   6.300  13.139  0.1526 -0.4933 -0.4880
13375TIP3    H261617   3.144   6.424  13.161 -0.1293 -0.3290 -0.3439
13376TIP3   OH261618   6.508   0.394  12.872 -0.0631 -0.7011  0.6220
13376TIP3    H161619   6.564   0.458  12.828 -0.5052 -0.8387 -0.1667
13376TIP3    H261620   6.518   0.413  12.965 -2.0431  2.1813  0.3819
13377TIP3   OH261621   6.551   6.187  10.267 -0.4999 -0.0824 -0.5011
13377TIP3    H161622   6.645   6.202  10.255 -0.7242  0.3425 -1.9711
13377TIP3    H261623   6.509   6.259  10.221 -1.5721  0.3956  1.1401
13378TIP3   OH261624   2.074   2.248   3.188 -0.1211  0.4335 -0.5335
13378TIP3    H161625   2.110   2.301   3.117  0.9985 -0.9809 -1.0866
13378TIP3    H261626   2.110   2.160   3.172 -0.5131 -0.1003  1.3278
13379TIP3   OH261627   3.968   5.819   5.265 -0.2765  0.1441  0.0420
13379TIP3    H161628   4.060   5.792   5.259 -1.1879 -3.0850 -1.3571
13379TIP3    H261629   3.950   5.864   5.183 -0.1724 -0.0098 -0.0650
13380TIP3   OH261630   2.575   3.056  16.728 -0.4296 -0.1103 -0.2227
13380TIP3    H161631   2.636   3.057  16.802  0.7484  0.3519 -1.1771
13380TIP3    H261632   2.559   2.962  16.712  4.7972 -0.7901 -3.6808
13381TIP3   OH261633   5.594   5.097  13.814  0.1828  0.0542 -0.3982
13381TIP3    H161634   5.528   5.165  13.801 -1.9369 -1.5528  1.2431
13381TIP3    H261635   5.556   5.019  13.773  1.1470 -0.8667  0.4155
13382TIP3   OH261636   2.773   3.685   3.786 -0.1394  0.0130  0.0818
13382TIP3    H161637   2.844   3.708   3.726  0.5703 -1.2894  0.3835
13382TIP3    H261638   2.809   3.703   3.873 -0.0938 -0.8524  0.2470
13383TIP3   OH261639   2.305   5.319   1.028 -0.2110  0.2219  0.4293
13383TIP3    H161640   2.326   5.349   1.116 -0.1991  0.4206  0.3589
13383TIP3    H261641   2.319   5.224   1.031  0.0360  0.2628  0.5709
13384TIP3   OH261642   1.299   0.345  15.281  0.0114  0.2328 -0.2461
13384TIP3    H161643   1.233   0.377  15.219 -0.2170 -0.7113 -0.4970
13384TIP3    H261644   1.302   0.251  15.267  1.0538  0.1995  0.1305
13385TIP3   OH261645   4.546   1.570  13.905  0.6670  0.1368 -0.2973
13385TIP3    H161646   4.586   1.644  13.950  0.2265 -0.2071  0.6931
13385TIP3    H261647   4.456   1.597  13.887  1.1719  0.7423 -2.1285
13386TIP3   OH261648   6.492   0.358   4.740  0.3588  0.0236  0.2127
13386TIP3    H161649   6.412   0.371   4.792  0.2028 -3.0837  0.9134
13386TIP3    H261650   6.477   0.277   4.693  1.9922  0.9016 -1.9702
13387TIP3   OH261651   5.673   2.226   1.106 -0.3025 -0.5870 -0.3112
13387TIP3    H161652   5.664   2.276   1.187  0.4319 -0.4699 -0.2951
13387TIP3    H261653   5.689   2.136   1.134  0.8179 -0.4019 -0.2979
13388TIP3   OH261654   3.997   5.758  12.147 -0.1489 -0.4054  0.3640
13388TIP3    H161655   4.057   5.696  12.190 -0.3662  0.0652  1.3449
13388TIP3    H261656   3.939   5.702  12.095  2.1981 -0.8294 -2.0947
13389TIP3   OH261657   6.029   6.031  15.630 -0.3062  0.2455 -0.3158
13389TIP3    H161658   6.070   5.998  15.710  0.2256 -2.3689 -1.5705
13389TIP3    H261659   5.935   6.022  15.645 -0.2177  0.0425  0.1304
13390TIP3   OH261660   2.379   0.827  13.766  0.2731  0.7218 -0.5318
13390TIP3    H161661   2.401   0.734  13.769 -1.4315  0.3029  2.2991
13390TIP3    H261662   2.464   0.872  13.775  0.9347 -0.5914  0.0745
13391TIP3   OH261663   6.038   2.555   3.029  0.0827 -0.1774 -0.1014
13391TIP3    H161664   6.112   2.525   2.976 -0.5165 -1.5028 -0.2317
13391TIP3    H261665   6.045   2.507   3.111  0.5766  1.3132  0.7701
13392TIP3   OH261666   0.804   1.620  13.419  0.1998  0.1163 -0.0819
13392TIP3    H161667   0.825   1.608  13.512  0.8831 -0.3747 -0.2922
13392TIP3    H261668   0.783   1.532  13.388 -3.4856  0.6780  0.3836
13393TIP3   OH261669   2.814   3.471  15.856  0.4377 -0.2356  0.0561
13393TIP3    H161670   2.750   3.493  15.788  1.6786  1.0953 -0.7320
13393TIP3    H261671   2.864   3.399  15.819  0.4097 -0.2322  0.0113
13394TIP3   OH261672   5.811   4.255  13.502  0.1687  0.2950  0.1785
13394TIP3    H161673   5.849   4.339  13.526 -1.6240  0.6213  2.1314
13394TIP3    H261674   5.717   4.265  13.518 -0.3211 -1.5788 -1.1046
13395TIP3   OH261675   6.733   6.649  10.455  0.2598 -0.6230 -0.3289
13395TIP3    H161676   6.821   6.686  10.454 -0.1566  0.5517  1.5707
13395TIP3    H261677   6.681   6.712  10.505 -1.6877 -1.2838 -1.3965
13396TIP3   OH261678   2.459   0.016  11.548  0.0023  0.0804 -0.3976
13396TIP3    H161679   2.397   0.059  11.489  0.1921  1.0758  0.1047
13396TIP3    H261680   2.499   0.088  11.597 -0.1772 -0.7311  0.9753
13397TIP3   OH261681   6.647   5.065  12.169 -0.2396 -0.0013 -0.1097
13397TIP3    H161682   6.690   5.048  12.253 -1.2078 -0.0756  0.3901
13397TIP3    H261683   6.607   4.982  12.145 -0.9054  0.2995 -0.0775
13398TIP3   OH261684   3.581   3.236   0.030 -0.7145  0.0325  0.3334
13398TIP3    H161685   3.607   3.155   0.074 -0.8852 -0.4842 -0.4989
13398TIP3    H261686   3.533   3.207  -0.048  0.3589  0.9212 -0.6884
13399TIP3   OH261687   3.033   1.715   0.684 -0.0042 -0.0076  0.1863
13399TIP3    H161688   2.997   1.684   0.767  1.6554 -1.2567  0.4711
13399TIP3    H261689   3.031   1.638   0.626  1.5805  0.0536  0.0142
13400TIP3   OH261690   0.084   1.219  11.697 -0.9655  0.0181  0.0056
13400TIP3    H161691   0.016   1.206  11.630 -0.4970 -0.7008 -0.3547
13400TIP3    H261692   0.070   1.148  11.759  0.6251 -1.3648 -1.1068
13401TIP3   OH261693   0.385   0.928   4.254  0.1901 -0.1844 -0.1506
13401TIP3    H161694   0.390   1.023   4.249  2.0259 -0.2802 -0.8771
13401TIP3    H261695   0.474   0.900   4.278 -0.9059 -1.5942  2.7930
13402TIP3   OH261696   0.339   0.372   0.756  0.1362  0.1843 -0.4761
13402TIP3    H161697   0.343   0.453   0.808  1.8116  0.3665 -0.8119
13402TIP3    H261698   0.420   0.373   0.706 -0.8648 -0.6012 -2.1880
13403TIP3   OH261699   3.974   3.374   0.739  0.1097  0.1786 -0.0649
13403TIP3    H161700   3.879   3.380   0.754  0.3031 -0.6719  1.7312
13403TIP3    H261701   3.983   3.301   0.677 -0.4120  0.5645 -0.6190
13404TIP3   OH261702   1.555   5.061   5.955  0.1555  0.0208  0.2412
13404TIP3    H161703   1.544   5.116   5.878  2.8094  1.3148  0.6827
13404TIP3    H261704   1.628   5.004   5.933  0.6552  0.0992  1.6124
13405TIP3   OH261705   6.686   3.056  11.781 -0.3994  0.6574 -0.1394
13405TIP3    H161706   6.639   3.066  11.864  1.7886 -1.3709  1.4654
13405TIP3    H261707   6.724   3.142  11.764 -0.7149  1.0469  1.0695
13406TIP3   OH261708   3.697   5.073   0.176 -0.1900 -0.7102 -0.3963
13406TIP3    H161709   3.632   5.009   0.147 -0.3483  0.1718 -2.0769
13406TIP3    H261710   3.646   5.153   0.192  0.4382 -0.0441 -1.6258
13407TIP3   OH261711   6.523   4.858   1.771 -0.5377 -0.2176 -0.3764
13407TIP3    H161712   6.584   4.795   1.733 -0.2952 -0.5614  0.5435
13407TIP3    H261713   6.500   4.821   1.856 -0.2396  1.0076  0.2735
13408TIP3   OH261714   5.294   4.024  13.474  0.0400 -0.3130  0.1537
13408TIP3    H161715   5.312   4.024  13.568  1.5106 -1.1397 -0.0898
13408TIP3    H261716   5.200   4.039  13.467  0.0195  0.4392  1.7225
13409TIP3   OH261717   4.562   6.292   5.198  0.0966 -0.1777  0.0454
13409TIP3    H161718   4.583   6.199   5.192  0.1319 -0.0909 -1.7694
13409TIP3    H261719   4.513   6.301   5.280  1.3324 -1.5232  0.9678
13410TIP3   OH261720   1.706   6.621  11.185 -0.3493  0.5758  0.2533
13410TIP3    H161721   1.708   6.541  11.238  1.1916  1.3543  1.4460
13410TIP3    H261722   1.680   6.591  11.098 -2.3667 -0.8324  1.2524
13411TIP3   OH261723   1.535   2.791  15.529  0.3943  0.0442 -0.5565
13411TIP3    H161724   1.587   2.711  15.533  1.0529  0.4320 -1.0809
13411TIP3    H261725   1.595   2.857  15.494 -0.2973  0.6359 -0.6580
13412TIP3   OH261726   2.809   3.571   1.191  0.1453  0.0325 -0.0995
13412TIP3    H161727   2.843   3.577   1.281 -0.0569 -2.7749  0.2648
13412TIP3    H261728   2.727   3.620   1.193  1.5203  2.4319  0.4263
13413TIP3   OH261729   4.703   5.456   1.654  0.1437  0.2816  0.1348
13413TIP3    H161730   4.732   5.547   1.657  1.5841 -0.1645  2.3608
13413TIP3    H261731   4.772   5.410   1.607  0.8531 -0.0499  1.4374
13414TIP3   OH261732   6.228   5.659   2.811 -0.1148 -0.0723  0.7086
13414TIP3    H161733   6.220   5.593   2.879 -1.1516 -0.1612  0.5153
13414TIP3    H261734   6.247   5.740   2.858  0.0800 -0.3053  1.0320
13415TIP3   OH261735   5.019   0.778   4.450 -0.1046  0.1767  0.0567
13415TIP3    H161736   5.034   0.732   4.533  0.4729 -2.0702 -1.2014
13415TIP3    H261737   4.924   0.787   4.445 -0.2503 -0.9284  0.3641
13416TIP3   OH261738   3.988   6.209  15.057 -0.1645  0.6241  0.7304
13416TIP3    H161739   3.907   6.173  15.021  1.0926 -1.4374 -0.3096
13416TIP3    H261740   3.998   6.166  15.142  2.0261 -3.0483 -1.0716
13417TIP3   OH261741   5.931   4.239  14.069 -0.3614 -0.5037  0.4759
13417TIP3    H161742   5.977   4.174  14.122  2.1036  0.1650 -0.7038
13417TIP3    H261743   5.918   4.313  14.128 -0.6022 -0.9659  1.0172
13418TIP3   OH261744   3.156   5.517  16.113  0.5335 -0.1129  0.0999
13418TIP3    H161745   3.220   5.576  16.073 -0.2018  0.3246 -0.4581
13418TIP3    H261746   3.115   5.570  16.182  0.2996 -0.1661  0.0031
13419TIP3   OH261747   3.423   2.406   2.231  0.1769  0.0840 -0.9205
13419TIP3    H161748   3.349   2.417   2.292  1.4423  0.7122  0.5695
13419TIP3    H261749   3.498   2.392   2.288  1.3308  0.0921 -2.3945
13420TIP3   OH261750   2.919   0.238   2.227  0.0529  0.3665  0.0069
13420TIP3    H161751   2.839   0.267   2.270 -0.1433 -1.4307  0.9492
13420TIP3    H261752   2.988   0.253   2.292  0.2370  0.4498 -0.2061
13421TIP3   OH261753   6.036   3.262  17.179 -0.0884 -0.3156 -0.6786
13421TIP3    H161754   6.078   3.200  17.119 -0.8528 -0.1533 -1.4054
13421TIP3    H261755   5.966   3.301  17.127 -0.6450 -0.0274  0.2710
13422TIP3   OH261756   1.622   2.023  14.949  0.4886  0.0669 -0.4130
13422TIP3    H161757   1.592   2.043  14.860  1.2956  0.6395 -0.5601
13422TIP3    H261758   1.717   2.023  14.943  0.5553 -1.8668  0.0345
13423TIP3   OH261759   5.464   5.531   3.625 -0.1274  0.4625  0.6279
13423TIP3    H161760   5.405   5.606   3.621 -1.0435 -0.2735 -1.4531
13423TIP3    H261761   5.407   5.455   3.610  1.1672 -0.3777 -0.2719
13424TIP3   OH261762   0.328   0.861  14.659 -0.6166 -0.6393  0.1199
13424TIP3    H161763   0.378   0.853  14.740 -0.2108 -0.7949 -0.1409
13424TIP3    H261764   0.392   0.894  14.595 -0.4500 -2.2145 -0.5849
13425TIP3   OH261765   4.557   1.375   1.571  0.4927  0.4308  0.1480
13425TIP3    H161766   4.651   1.394   1.565  0.0471  2.7707 -0.3152
13425TIP3    H261767   4.521   1.402   1.486 -0.5087 -1.2930 -0.0298
13426TIP3   OH261768   5.459   2.978   3.048  0.8663  0.1118 -0.0076
13426TIP3    H161769   5.472   3.071   3.030  1.0975  0.1279  0.2413
13426TIP3    H261770   5.543   2.937   3.028  0.2871 -0.3116 -1.7903
13427TIP3   OH261771   3.809   2.083  10.726  0.0134  0.1380 -0.1142
13427TIP3    H161772   3.742   2.148  10.703 -0.1485 -0.2006 -0.5994
13427TIP3    H261773   3.892   2.128  10.713 -0.0725 -0.0501 -1.3831
13428TIP3   OH261774   5.552   5.627  15.614  0.5943  0.3250 -0.5849
13428TIP3    H161775   5.538   5.540  15.651 -1.2599 -0.4248 -2.8132
13428TIP3    H261776   5.512   5.687  15.678 -0.6827 -0.7198 -0.3592
13429TIP3   OH261777   5.544   5.505  12.302  0.6110  0.5460 -0.2398
13429TIP3    H161778   5.569   5.413  12.304 -2.1665 -0.3008  0.2736
13429TIP3    H261779   5.545   5.532  12.394 -0.1966  0.5116 -0.2160
13430TIP3   OH261780   2.962   5.367  13.103  0.3909 -0.4047 -0.2957
13430TIP3    H161781   2.946   5.461  13.096 -0.2631 -0.5688 -1.1529
13430TIP3    H261782   3.045   5.353  13.058  0.6066 -0.2084  0.0379
13431TIP3   OH261783   4.577   0.103   4.689 -0.3453  0.0534  0.0559
13431TIP3    H161784   4.672   0.119   4.689 -0.2307 -0.5431  0.8409
13431TIP3    H261785   4.569   0.009   4.705 -1.0759  0.4024  2.0084
13432TIP3   OH261786   4.980   4.370   5.439 -0.1474  0.3302 -0.3619
13432TIP3    H161787   5.018   4.424   5.508  2.2949 -0.0349 -1.3203
13432TIP3    H261788   4.971   4.283   5.479  2.3640 -0.1827 -0.7177
13433TIP3   OH261789   6.315   4.772  15.505  0.4299 -0.3236  0.0486
13433TIP3    H161790   6.220   4.776  15.513  0.4120 -0.5246 -0.0597
13433TIP3    H261791   6.331   4.738  15.417  0.6190  1.7289 -0.7699
13434TIP3   OH261792   0.677   1.063   0.345 -0.2672 -0.0509 -0.6877
13434TIP3    H161793   0.604   1.008   0.316 -0.4699  0.7753 -1.8279
13434TIP3    H261794   0.725   1.008   0.406 -1.2690 -0.9793 -0.6988
13435TIP3   OH261795   1.687   1.472  13.045 -0.4139  0.1127  0.5087
13435TIP3    H161796   1.738   1.419  12.984 -1.1186 -0.7470  0.6535
13435TIP3    H261797   1.733   1.463  13.128 -0.1492  0.2850  0.3817
13436TIP3   OH261798   6.125   1.478   0.719  0.4818  0.1756 -0.3041
13436TIP3    H161799   6.051   1.537   0.705 -0.1364 -0.1642  1.2553
13436TIP3    H261800   6.181   1.525   0.781 -0.2673 -1.0178  1.3473
13437TIP3   OH261801   6.258   0.510  15.539 -0.2905  0.3229 -0.0787
13437TIP3    H161802   6.316   0.434  15.550  0.4489  0.5635 -1.9621
13437TIP3    H261803   6.249   0.546  15.627  2.4081  0.2450  0.3105
13438TIP3   OH261804   4.449   1.977  14.058 -0.3551  0.0427 -0.0838
13438TIP3    H161805   4.534   1.933  14.056  1.0992  2.6205  0.1246
13438TIP3    H261806   4.396   1.925  14.119  1.1444 -1.4849 -0.0116
13439TIP3   OH261807   5.034   6.635  10.222  0.0103  0.4003  0.4124
13439TIP3    H161808   5.087   6.579  10.279  1.1612  0.4697 -0.5683
13439TIP3    H261809   4.974   6.574  10.178  0.4232  0.0985  0.2630
13440TIP3   OH261810   0.008   5.916  12.655 -0.0879 -0.2196 -0.0895
13440TIP3    H161811  -0.069   5.972  12.663 -0.3206 -0.5442 -0.0339
13440TIP3    H261812   0.033   5.897  12.746 -0.6188 -1.0273 -0.0962
13441TIP3   OH261813   2.315   3.070   2.211  0.0268 -0.1846 -0.8239
13441TIP3    H161814   2.295   3.044   2.121 -0.4477 -1.5275 -0.3594
13441TIP3    H261815   2.410   3.062   2.218 -0.0138 -0.8194 -0.9898
13442TIP3   OH261816   3.349   4.279   4.970 -0.1151 -0.1785  0.3365
13442TIP3    H161817   3.402   4.204   4.995  1.5035 -0.2155 -2.7214
13442TIP3    H261818   3.394   4.354   5.008  1.6258 -0.3143 -1.3303
13443TIP3   OH261819   3.114   1.628   4.643  0.3931  0.0305 -0.9721
13443TIP3    H161820   3.087   1.550   4.596  0.2114  0.4151 -1.5199
13443TIP3    H261821   3.136   1.691   4.574  4.0245 -0.6713 -0.6617
13444TIP3   OH261822   5.712   6.091   6.116  0.1932  0.1384  0.3188
13444TIP3    H161823   5.735   5.999   6.134  1.7755  0.0918 -1.6244
13444TIP3    H261824   5.796   6.134   6.101 -0.5735  1.7807  0.5191
13445TIP3   OH261825   3.471   3.684   3.590 -0.0046 -0.4107  0.0075
13445TIP3    H161826   3.487   3.744   3.517 -1.5484 -1.2491 -1.0566
13445TIP3    H261827   3.558   3.671   3.629  0.6610  1.0054 -0.8939
13446TIP3   OH261828   6.294   2.987  15.758 -0.1996  0.7270 -0.2065
13446TIP3    H161829   6.201   3.006  15.768 -0.0616  2.2728 -1.5102
13446TIP3    H261830   6.331   3.002  15.845 -1.3657 -1.4651  0.7443
13447TIP3   OH261831   2.789   2.672  11.972 -0.1317 -0.6616 -0.1067
13447TIP3    H161832   2.807   2.591  12.020 -0.7075 -0.7141  0.0235
13447TIP3    H261833   2.710   2.654  11.922 -2.1456  0.7756  2.2976
13448TIP3   OH261834   0.427   6.148  14.804  0.0955  0.1598  0.0896
13448TIP3    H161835   0.343   6.108  14.824  0.9794 -1.4966  0.7660
13448TIP3    H261836   0.408   6.241  14.792 -1.8448 -0.2173 -0.0522
13449TIP3   OH261837   3.089   6.025   1.344 -0.8670 -0.3936  0.4072
13449TIP3    H161838   3.140   6.084   1.288 -1.5471  1.4789  1.6936
13449TIP3    H261839   3.128   6.034   1.431 -2.2638 -0.2656  1.0493
13450TIP3   OH261840   2.183   1.034  13.763 -0.0526  0.8453  0.2911
13450TIP3    H161841   2.253   0.975  13.792 -1.0986 -0.7795 -0.3489
13450TIP3    H261842   2.228   1.117  13.744  1.8481 -0.3675 -0.8960
13451TIP3   OH261843   2.698   6.482   1.630 -0.0280  0.1564  0.2110
13451TIP3    H161844   2.728   6.528   1.708 -2.0090  0.0900  1.0589
13451TIP3    H261845   2.676   6.552   1.568  0.0819  0.2420  0.2668
13452TIP3   OH261846   5.198   1.172   4.011  0.4698 -0.1837  0.4232
13452TIP3    H161847   5.146   1.111   3.959  2.6688  1.0620 -3.6334
13452TIP3    H261848   5.270   1.119   4.047  0.1609 -0.6634  0.3365
13453TIP3   OH261849   5.409   6.035  11.223 -0.1710  0.2966  0.0302
13453TIP3    H161850   5.322   6.073  11.233 -0.0366  0.8690 -0.8453
13453TIP3    H261851   5.394   5.951  11.180 -0.2856  0.4194 -0.1697
13454TIP3   OH261852   1.099   1.030  15.359  0.0593  0.2844  0.2482
13454TIP3    H161853   1.055   1.001  15.439 -0.7634  0.1674 -0.2327
13454TIP3    H261854   1.155   1.103  15.388  0.1103 -0.0381  0.9968
13455TIP3   OH261855   0.026   2.803   5.303 -0.3509  0.0892  0.2925
13455TIP3    H161856   0.080   2.865   5.254 -0.4871 -0.9579 -1.2510
13455TIP3    H261857  -0.036   2.859   5.351  3.3583  1.5053  4.0142
13456TIP3   OH261858   6.059   6.227   2.230  0.4399  0.2131 -0.2927
13456TIP3    H161859   6.041   6.272   2.148 -0.5480 -0.6389 -0.5567
13456TIP3    H261860   5.975   6.188   2.255  0.8288  0.0965  0.8958
13457TIP3   OH261861   2.499   6.083   1.406 -0.3397 -0.9003 -0.3993
13457TIP3    H161862   2.593   6.103   1.400 -0.0651 -2.1588 -0.7367
13457TIP3    H261863   2.475   6.060   1.316 -0.7007 -1.6765 -0.1074
13458TIP3   OH261864   3.291   2.704   0.806  0.0592 -0.3647  0.0496
13458TIP3    H161865   3.299   2.681   0.714  1.7621 -1.1566  0.3390
13458TIP3    H261866   3.324   2.627   0.853  1.6438  0.9201  1.2106
13459TIP3   OH261867   1.006   2.685   4.873 -0.1387  0.4100  0.4399
13459TIP3    H161868   1.079   2.661   4.929 -0.0438  0.1180  0.1952
13459TIP3    H261869   0.930   2.644   4.914 -0.3930  1.8160  1.4380
13460TIP3   OH261870   3.157   0.802  13.225  0.0634  0.5727  0.3074
13460TIP3    H161871   3.085   0.825  13.166  0.4306  0.4588 -0.2030
13460TIP3    H261872   3.119   0.804  13.312 -0.2992  1.5677  0.1457
13461TIP3   OH261873   5.923   6.046  13.238 -0.1092 -1.1422  0.6213
13461TIP3    H161874   6.008   6.086  13.254 -1.0098  0.9326  0.5823
13461TIP3    H261875   5.942   5.966  13.188  1.6710  0.3294 -1.1906
13462TIP3   OH261876   4.520   3.308   0.829  0.4118  0.1469  0.2637
13462TIP3    H161877   4.501   3.381   0.771  2.0129 -0.1080 -0.6602
13462TIP3    H261878   4.536   3.234   0.770  3.3905  0.1868  0.8641
13463TIP3   OH261879   5.732   3.154   4.945  0.1496 -0.7491  0.0956
13463TIP3    H161880   5.666   3.203   4.896  1.3699  1.0512  0.1565
13463TIP3    H261881   5.711   3.170   5.037  1.2003  0.6495  0.1189
13464TIP3   OH261882   1.789   1.253   0.767  0.3213  0.2742 -0.3285
13464TIP3    H161883   1.778   1.303   0.686 -3.4036 -1.3316 -1.0159
13464TIP3    H261884   1.811   1.319   0.833  1.0973  1.9705 -2.1816
13465TIP3   OH261885   3.281   3.257  15.767 -0.8062 -0.3535  0.3471
13465TIP3    H161886   3.270   3.162  15.764 -1.0029 -0.3085 -0.8394
13465TIP3    H261887   3.370   3.270  15.798 -0.1078 -0.9904 -1.2765
13466TIP3   OH261888   1.849   1.972   5.267  0.1673  0.3331  0.2616
13466TIP3    H161889   1.865   1.913   5.340 -0.5707 -2.7730 -1.8952
13466TIP3    H261890   1.761   2.007   5.283 -1.9561 -3.7458 -1.0422
13467TIP3   OH261891   3.586   0.689   2.270 -0.2267  0.1256 -0.0225
13467TIP3    H161892   3.583   0.781   2.295  0.5375  0.5759 -1.4739
13467TIP3    H261893   3.524   0.683   2.197 -0.0030 -0.4297 -0.1685
13468TIP3   OH261894   6.131   1.223   4.909 -0.1947  0.0100 -0.0437
13468TIP3    H161895   6.179   1.294   4.865  0.6841 -0.7727 -0.3891
13468TIP3    H261896   6.085   1.178   4.838  2.5362 -2.2839 -0.5447
13469TIP3   OH261897   3.014   0.397   0.931 -0.2352 -0.3571 -0.3134
13469TIP3    H161898   2.955   0.434   0.865 -0.8699 -1.6089 -0.4718
13469TIP3    H261899   3.010   0.459   1.004 -1.6493 -0.3440 -0.3769
13470TIP3   OH261900   4.489   4.020   5.974  0.1733 -0.3661  0.0223
13470TIP3    H161901   4.543   3.962   6.027  1.1049  0.7659  0.3428
13470TIP3    H261902   4.528   4.107   5.984 -2.5517  0.8240  1.5122
13471TIP3   OH261903   6.712   6.785  15.650 -0.2312  0.3901  0.4235
13471TIP3    H161904   6.758   6.740  15.579 -0.6641 -0.0704  0.4233
13471TIP3    H261905   6.619   6.769  15.631 -0.3383 -0.2646  1.4261
13472TIP3   OH261906   6.163   2.130  14.132 -0.7624 -0.3911 -0.1564
13472TIP3    H161907   6.244   2.079  14.140 -0.0915  0.9267  3.3837
13472TIP3    H261908   6.170   2.171  14.046  3.2296  0.9408  0.5546
13473TIP3   OH261909   6.815   5.759   0.945 -0.4378  0.0913  0.0745
13473TIP3    H161910   6.903   5.766   0.907  0.0229  1.0298  1.2454
13473TIP3    H261911   6.758   5.801   0.882 -0.2206 -1.4064 -1.1800
13474TIP3   OH261912   1.166   0.483   1.999  0.0414  0.6044 -0.2263
13474TIP3    H161913   1.233   0.438   1.947  0.4079 -0.3206  1.0029
13474TIP3    H261914   1.199   0.480   2.089 -1.3301  0.7195  0.3124
13475TIP3   OH261915   5.340   4.197  13.123 -0.2645 -0.8596  0.0820
13475TIP3    H161916   5.272   4.254  13.085 -0.5081 -1.5797 -0.5892
13475TIP3    H261917   5.291   4.121  13.156  0.0066 -0.5073  1.3704
13476TIP3   OH261918   4.854   2.709   0.921  0.0026 -0.3067 -0.2582
13476TIP3    H161919   4.845   2.738   1.012 -0.2798  1.8255 -0.9028
13476TIP3    H261920   4.948   2.695   0.909 -0.0542 -1.5990  0.6042
13477TIP3   OH261921   4.978   2.516  14.386 -0.3046 -0.4577  0.1765
13477TIP3    H161922   5.042   2.485  14.450 -1.6698  0.1058  1.8800
13477TIP3    H261923   4.918   2.571  14.436  0.4768  2.8983 -2.1653
13478TIP3   OH261924   3.156   0.437  11.861 -0.3096 -0.0217  0.0149
13478TIP3    H161925   3.195   0.518  11.828  1.7603 -0.5265  1.0492
13478TIP3    H261926   3.092   0.413  11.794 -1.1163  2.5164 -0.2310
13479TIP3   OH261927   6.203   3.290  13.493 -0.2506  0.2370 -0.1121
13479TIP3    H161928   6.126   3.261  13.443 -0.0374  0.6197 -0.6761
13479TIP3    H261929   6.277   3.249  13.447 -0.0563  0.5525 -0.0819
13480TIP3   OH261930   1.622   6.227  15.868  0.0198  0.7914 -0.1663
13480TIP3    H161931   1.632   6.289  15.796  0.5222  0.6590 -0.2124
13480TIP3    H261932   1.654   6.144  15.834 -0.4780  0.5435 -0.0437
13481TIP3   OH261933   0.364   3.033  14.861  0.5961  0.1480 -0.6378
13481TIP3    H161934   0.303   3.038  14.935  3.1840  0.1462  1.6372
13481TIP3    H261935   0.378   2.940  14.848  4.1003 -0.0131  2.5822
13482TIP3   OH261936   3.414   6.342  16.541  0.0006 -0.3723 -0.5220
13482TIP3    H161937   3.503   6.346  16.576 -0.4279  3.3401  0.5884
13482TIP3    H261938   3.370   6.277  16.596  1.2743 -0.0467  0.9618
13483TIP3   OH261939   3.189   5.259  13.019  0.4011 -0.1191  0.1923
13483TIP3    H161940   3.209   5.171  12.987  0.8702 -0.2425  0.8091
13483TIP3    H261941   3.234   5.265  13.103  1.0414  0.9991 -0.2146
13484TIP3   OH261942   2.306   2.946   4.312 -0.0202 -0.5567 -0.3222
13484TIP3    H161943   2.276   3.037   4.323  0.4014 -0.4812  0.2739
13484TIP3    H261944   2.334   2.940   4.221 -0.5665 -0.2452 -0.5173
13485TIP3   OH261945   2.244   2.441   0.067  0.5039  0.1608  0.3984
13485TIP3    H161946   2.198   2.372   0.115 -1.4191  0.1873 -1.2700
13485TIP3    H261947   2.336   2.416   0.072  0.4718  0.1616  4.0037
13486TIP3   OH261948   3.751   0.995  11.548  0.7906 -0.1354 -0.1301
13486TIP3    H161949   3.689   0.921  11.546  0.8721 -0.3114  1.9564
13486TIP3    H261950   3.831   0.960  11.510  0.3120 -0.5987 -0.7393
13487TIP3   OH261951   4.496   0.502  16.093  0.7743 -0.6310  0.6341
13487TIP3    H161952   4.506   0.482  16.186 -0.1158 -0.7132  0.7252
13487TIP3    H261953   4.500   0.597  16.089 -2.5526 -0.3496  1.2617
13488TIP3   OH261954   0.139   1.563   0.087 -0.7831 -0.0818 -0.5335
13488TIP3    H161955   0.148   1.656   0.064 -0.0266 -0.0875 -0.2805
13488TIP3    H261956   0.107   1.563   0.177 -0.4588 -0.0634 -0.4168
13489TIP3   OH261957   5.164   4.218   1.892 -0.4016  0.2701  0.3164
13489TIP3    H161958   5.169   4.133   1.848 -0.3315  1.0776 -1.3272
13489TIP3    H261959   5.161   4.282   1.820 -0.6822  1.6484  1.5018
13490TIP3   OH261960   2.198   3.178  14.886 -0.3795 -0.0490 -0.5031
13490TIP3    H161961   2.130   3.112  14.884  1.1626 -1.9714  2.9173
13490TIP3    H261962   2.278   3.132  14.860  0.2163  1.3397 -1.2907
13491TIP3   OH261963   1.591   1.093  13.307  0.2848  0.2642 -0.4758
13491TIP3    H161964   1.643   1.062  13.381 -2.5644 -1.1082  1.1162
13491TIP3    H261965   1.561   1.013  13.264  1.4820  1.0395 -2.9204
13492TIP3   OH261966   0.906   5.472  14.827 -0.0199  0.1133 -0.7358
13492TIP3    H161967   0.827   5.456  14.776 -0.1307 -4.3311  0.3587
13492TIP3    H261968   0.978   5.460  14.765 -0.1578  0.3651 -0.9484
13493TIP3   OH261969   5.399   4.605  17.114  0.3906  0.3063 -0.1013
13493TIP3    H161970   5.486   4.630  17.080  0.0673 -0.4829 -1.5681
13493TIP3    H261971   5.404   4.625  17.208  2.1675  0.2625 -0.1458
13494TIP3   OH261972   4.484   0.246  11.075 -0.6875  0.2954  0.1867
13494TIP3    H161973   4.429   0.220  11.001  0.0317  3.7254 -1.7997
13494TIP3    H261974   4.423   0.258  11.148 -1.5667 -2.0832 -0.0829
13495TIP3   OH261975   4.141   1.271   3.879  0.4909 -0.1824 -0.0621
13495TIP3    H161976   4.201   1.343   3.898 -0.4195  0.4760  0.3876
13495TIP3    H261977   4.147   1.259   3.785  4.2810 -2.7800  0.2846
13496TIP3   OH261978   0.663   2.647   2.793 -0.2490 -0.4712 -0.4647
13496TIP3    H161979   0.734   2.659   2.856  0.1334  0.3996 -1.0457
13496TIP3    H261980   0.669   2.554   2.768  0.5749 -0.4489 -0.3729
13497TIP3   OH261981   2.706   0.725  17.045  0.2652  0.1230 -0.1299
13497TIP3    H161982   2.676   0.634  17.038 -2.2695  0.9327 -1.0321
13497TIP3    H261983   2.772   0.734  16.976  0.0136 -0.8534 -0.5085
13498TIP3   OH261984   4.682   5.994  16.035  0.3544 -0.0276  0.3990
13498TIP3    H161985   4.703   6.024  16.124  0.3572  0.7516  0.1420
13498TIP3    H261986   4.612   5.930  16.047  0.7832 -0.3970  1.0127
13499TIP3   OH261987   5.192   3.134  15.387  0.1960 -0.1868  0.5294
13499TIP3    H161988   5.259   3.201  15.402  0.2849 -0.4776  1.5250
13499TIP3    H261989   5.232   3.053  15.419  0.2504 -0.8026 -1.0527
13500TIP3   OH261990   4.597   2.087  15.436  0.5851  0.3320  0.3614
13500TIP3    H161991   4.662   2.144  15.395  1.5182  1.2465  2.8938
13500TIP3    H261992   4.622   2.086  15.529 -1.4757 -1.4414  0.9660
13501TIP3   OH261993   2.428   1.380  12.932 -0.0947  0.1047 -0.0119
13501TIP3    H161994   2.503   1.394  12.990 -0.3607  2.2870 -0.1119
13501TIP3    H261995   2.461   1.323  12.863  1.2995  0.4810  0.3080
13502TIP3   OH261996   3.107   4.654  12.209 -0.1121  0.1853 -0.6353
13502TIP3    H161997   3.159   4.642  12.288 -1.4210 -0.3493  0.1913
13502TIP3    H261998   3.148   4.598  12.144  1.1275  0.8130 -0.4226
13503TIP3   OH261999   5.083   6.295   2.511 -0.5932 -0.1202 -0.0726
13503TIP3    H162000   5.170   6.301   2.550  0.5499 -0.6952 -2.3309
13503TIP3    H262001   5.026   6.268   2.583  0.7382  1.8990  1.8557
13504TIP3   OH262002   6.529   1.695  12.617  0.1204 -0.3061 -0.3559
13504TIP3    H162003   6.474   1.743  12.679  0.1636 -0.5648 -0.1178
13504TIP3    H262004   6.487   1.709  12.532  0.2438  0.3260 -0.3227
13505TIP3   OH262005   3.653   1.856  12.367  0.2650  0.0356  0.4660
13505TIP3    H162006   3.646   1.951  12.369 -1.6145 -0.0756  1.1643
13505TIP3    H262007   3.644   1.833  12.275  0.6271  0.5095  0.3053
13506TIP3   OH262008   4.701   2.254   4.883 -0.0714  0.1085  0.6810
13506TIP3    H162009   4.712   2.278   4.975 -1.3985  2.6981  0.2521
13506TIP3    H262010   4.689   2.337   4.837  3.4047 -0.7505 -2.3562
13507TIP3   OH262011   3.362   2.458   2.751 -0.2997  0.1019 -0.0237
13507TIP3    H162012   3.285   2.507   2.781 -0.5856 -1.0195  1.1716
13507TIP3    H262013   3.347   2.369   2.782  0.3501 -0.6947 -1.9053
13508TIP3   OH262014   4.579   5.704  13.974 -0.6442 -0.3764  0.1626
13508TIP3    H162015   4.514   5.635  13.961 -0.2973 -0.9072  1.1072
13508TIP3    H262016   4.558   5.742  14.059 -0.3324  0.1364  0.0165
13509TIP3   OH262017   5.178   2.154   3.905 -0.1028 -1.1270  0.5416
13509TIP3    H162018   5.211   2.068   3.880  0.0533 -0.7269 -0.7529
13509TIP3    H262019   5.130   2.184   3.827 -2.0533 -0.9577  1.7397
13510TIP3   OH262020   6.029   4.395   5.681  0.4298 -0.3050  0.0391
13510TIP3    H162021   6.027   4.403   5.776  0.6515  0.3445 -0.0051
13510TIP3    H262022   6.119   4.369   5.661  0.6097  0.3692 -0.0458
13511TIP3   OH262023   6.676   1.310  10.406 -0.2945 -0.4387 -0.1388
13511TIP3    H162024   6.744   1.271  10.351 -0.5541 -0.2998 -0.5715
13511TIP3    H262025   6.602   1.323  10.345 -0.5483 -0.1813  0.2242
13512TIP3   OH262026   1.971   3.725   4.179 -0.7040  0.4673  0.3497
13512TIP3    H162027   2.026   3.686   4.111 -1.1267  0.1536  0.1824
13512TIP3    H262028   2.025   3.722   4.258 -0.6192 -0.2015  0.2744
13513TIP3   OH262029   1.231   4.619   2.498  0.3544  0.3096 -0.1949
13513TIP3    H162030   1.227   4.604   2.593  1.5054  0.4393 -0.1125
13513TIP3    H262031   1.294   4.554   2.467  1.0261  1.1723 -0.6655
13514TIP3   OH262032   1.742   2.676   1.729  0.3413 -0.1845 -0.2589
13514TIP3    H162033   1.777   2.720   1.652 -1.2012 -0.1158 -0.9616
13514TIP3    H262034   1.719   2.588   1.699 -0.3617 -0.1288  0.0856
13515TIP3   OH262035   2.386   4.405  16.039 -0.0413  0.2675  0.0158
13515TIP3    H162036   2.359   4.316  16.062 -1.9499  0.1722 -2.1291
13515TIP3    H262037   2.332   4.462  16.094 -0.9197  0.0567 -0.6035
13516TIP3   OH262038   0.838   3.127  11.421 -0.1410 -0.0291  0.6177
13516TIP3    H162039   0.755   3.129  11.373  0.1433  1.6403  0.1136
13516TIP3    H262040   0.824   3.062  11.490 -1.4145 -0.7041 -0.2280
13517TIP3   OH262041   1.376   6.786  14.758  0.4626 -0.1635 -0.5474
13517TIP3    H162042   1.373   6.733  14.838 -0.4340 -0.1602 -0.5761
13517TIP3    H262043   1.295   6.837  14.759  0.2090 -0.5072 -1.6815
13518TIP3   OH262044   4.845   3.378   5.151  0.5016 -0.1978  0.2517
13518TIP3    H162045   4.856   3.309   5.216  0.9225 -0.1030  0.2867
13518TIP3    H262046   4.810   3.334   5.073  1.6818 -0.6309 -0.0573
13519TIP3   OH262047   1.139   4.972  13.729 -0.0172 -0.4001  0.1588
13519TIP3    H162048   1.192   4.907  13.682 -1.8429 -1.8639 -0.0309
13519TIP3    H262049   1.130   4.935  13.817  0.0024  0.2771  0.4473
13520TIP3   OH262050   2.749   6.647   3.294  0.4477  0.8329  0.0519
13520TIP3    H162051   2.771   6.606   3.210 -2.4201 -1.7198  0.3730
13520TIP3    H262052   2.832   6.652   3.341  1.7172 -0.0115 -1.9704
13521TIP3   OH262053   0.537   0.716  13.683  0.6582  0.0488 -0.9112
13521TIP3    H162054   0.547   0.794  13.738  0.8803  0.2832 -1.2810
13521TIP3    H262055   0.625   0.698  13.650  0.6545 -0.5186 -0.6143
13522TIP3   OH262056   3.696   5.862  17.032 -0.0825  0.0963 -0.6329
13522TIP3    H162057   3.706   5.898  17.120 -2.0511  2.5301 -1.2692
13522TIP3    H262058   3.614   5.812  17.035  0.6341 -1.1071 -0.7294
13523TIP3   OH262059   2.881   4.902  15.611 -0.1360  0.2286  0.4578
13523TIP3    H162060   2.944   4.838  15.645 -0.4647  0.2228  1.0874
13523TIP3    H262061   2.824   4.851  15.553 -0.0299  0.0746  0.4879
13524TIP3   OH262062   4.973   4.606   0.826 -0.8898 -0.0473  0.2789
13524TIP3    H162063   4.893   4.645   0.861 -0.4694  0.3254  0.8514
13524TIP3    H262064   5.027   4.588   0.903 -0.6176 -0.7469 -0.0615
13525TIP3   OH262065   3.666   6.525   0.818  0.5087 -0.2117 -0.1655
13525TIP3    H162066   3.633   6.458   0.878 -0.0803  0.9233  0.8228
13525TIP3    H262067   3.760   6.511   0.816  0.3378 -1.4255 -0.4306
13526TIP3   OH262068   0.830   6.828   3.304  0.5143  0.0570 -0.2198
13526TIP3    H162069   0.857   6.808   3.214 -0.4107 -1.2852 -0.2241
13526TIP3    H262070   0.762   6.764   3.324 -0.9389  1.7558  0.6459
13527TIP3   OH262071   3.106   2.044  15.697 -0.2784 -0.3726 -0.1438
13527TIP3    H162072   3.045   2.072  15.765  1.1188 -0.5727  1.2415
13527TIP3    H262073   3.103   2.113  15.631  1.9443  2.4628  2.4252
13528TIP3   OH262074   0.779   0.273   3.332 -0.0425 -0.1426  0.3734
13528TIP3    H162075   0.769   0.322   3.250  0.7358  0.0285  0.3745
13528TIP3    H262076   0.797   0.183   3.304  3.3228  0.4408  0.2322
13529TIP3   OH262077   1.762   4.291   1.099 -0.3711  0.4260 -0.2242
13529TIP3    H162078   1.823   4.320   1.167  2.4773 -0.6068 -2.1540
13529TIP3    H262079   1.690   4.252   1.148  0.8471  0.9835  2.2099
13530TIP3   OH262080   3.233   3.029   0.528 -0.1808 -0.1878 -0.1656
13530TIP3    H162081   3.181   3.087   0.473 -2.4535 -0.2498  1.7754
13530TIP3    H262082   3.231   2.945   0.481 -1.8805 -0.1873 -0.1607
13531TIP3   OH262083   0.943   2.770   1.958  0.1274 -0.2197 -0.2481
13531TIP3    H162084   0.871   2.724   2.000  0.2158  0.0333  0.1880
13531TIP3    H262085   0.902   2.843   1.911  0.2456  1.0257  1.5044
13532TIP3   OH262086   5.173   1.118   2.860  0.2129 -0.1335 -0.0033
13532TIP3    H162087   5.109   1.146   2.794  1.5820 -0.6335 -1.6003
13532TIP3    H262088   5.203   1.200   2.900 -0.5601  0.1847 -0.0551
13533TIP3   OH262089   5.817   4.256   4.089  0.1772 -0.2843  0.1917
13533TIP3    H162090   5.727   4.278   4.114  0.1883 -0.6264  0.5481
13533TIP3    H262091   5.872   4.302   4.152  0.2643  0.1673 -0.2117
13534TIP3   OH262092   5.649   2.729  12.751  0.2343 -1.2823 -0.1661
13534TIP3    H162093   5.715   2.677  12.705  1.7452  0.2285  0.2132
13534TIP3    H262094   5.652   2.815  12.711  0.3741 -0.4237  1.5756
13535TIP3   OH262095   4.544   2.512   1.745  0.4374 -0.1890 -0.1753
13535TIP3    H162096   4.626   2.478   1.781  1.3665 -0.0571 -2.0783
13535TIP3    H262097   4.502   2.437   1.704 -0.4723 -0.2745  0.8603
13536TIP3   OH262098   1.718   1.468  11.605 -0.2120  0.3665  0.5019
13536TIP3    H162099   1.781   1.522  11.557  2.1066 -2.8078 -0.3857
13536TIP3    H262100   1.765   1.444  11.685 -1.6618  0.5963  1.4533
13537TIP3   OH262101   1.668   0.636   5.845 -0.1326 -0.2453  0.0431
13537TIP3    H162102   1.756   0.669   5.867 -0.4837  1.6874 -1.1756
13537TIP3    H262103   1.678   0.596   5.759 -0.3306 -0.6002  0.1837
13538TIP3   OH262104   1.526   1.663  10.897 -0.6390  0.6950 -0.3930
13538TIP3    H162105   1.561   1.574  10.893  1.3647  1.4864 -2.2763
13538TIP3    H262106   1.601   1.718  10.919 -0.9910  2.2861 -2.7724
13539TIP3   OH262107   4.190   4.036  12.088 -0.1585 -0.2865 -0.6343
13539TIP3    H162108   4.228   4.050  12.001  1.5049 -0.1688  0.0596
13539TIP3    H262109   4.257   4.069  12.149 -1.1789 -0.5736  0.7004
13540TIP3   OH262110   6.610   2.289  13.379  0.8291  0.6962  0.6742
13540TIP3    H162111   6.645   2.264  13.293  1.0006  2.4286  0.1975
13540TIP3    H262112   6.652   2.229  13.440  2.7314  1.0969 -0.1706
13541TIP3   OH262113   0.805   1.748  15.780  0.1400 -0.5627 -0.1698
13541TIP3    H162114   0.885   1.705  15.810  0.2231 -1.1372 -1.1905
13541TIP3    H262115   0.811   1.837  15.814  0.9200 -0.7786  0.2658
13542TIP3   OH262116   0.370   1.444  10.460  1.0160  0.4990  0.3321
13542TIP3    H162117   0.302   1.490  10.410 -0.1533  0.9852  2.2621
13542TIP3    H262118   0.451   1.491  10.438  0.2605  1.8201  0.2353
13543TIP3   OH262119   1.525   5.009   4.217  0.2015  0.5654  0.1233
13543TIP3    H162120   1.471   5.080   4.252 -1.0789 -1.0846  1.6169
13543TIP3    H262121   1.465   4.958   4.163  0.2371 -1.1718  1.6345
13544TIP3   OH262122   4.714   6.030   2.239 -0.0484  0.0037  0.2991
13544TIP3    H162123   4.675   5.975   2.171  1.4267 -0.4524 -0.2101
13544TIP3    H262124   4.649   6.099   2.253 -0.6634 -0.2384 -1.1137
13545TIP3   OH262125   3.410   3.166   2.197  0.1418 -0.0898  0.3976
13545TIP3    H162126   3.347   3.238   2.200 -0.5775 -0.7276  0.9087
13545TIP3    H262127   3.494   3.209   2.180 -0.4052  0.7851 -0.1893
13546TIP3   OH262128   2.012   4.490  12.756 -0.0498 -0.1536 -0.0965
13546TIP3    H162129   2.088   4.533  12.795 -0.6101  1.8914 -1.1308
13546TIP3    H262130   2.019   4.507  12.663 -2.7611  1.8531 -0.0626
13547TIP3   OH262131   6.155   4.533  15.763  0.0061 -0.0264 -0.4304
13547TIP3    H162132   6.121   4.460  15.814 -0.6816 -1.0047 -2.2171
13547TIP3    H262133   6.080   4.589  15.747  0.6676  1.5569  1.5778
13548TIP3   OH262134   1.985   1.730   3.289  0.4600  0.0593  0.0551
13548TIP3    H162135   1.917   1.764   3.232 -0.2172  1.8643  1.8247
13548TIP3    H262136   1.939   1.680   3.356  0.9238  0.5335  0.7519
13549TIP3   OH262137   1.643   5.386   2.606 -0.2537 -0.3357  0.3018
13549TIP3    H162138   1.615   5.419   2.520 -0.4476 -0.0233  0.4819
13549TIP3    H262139   1.642   5.464   2.662 -1.4076 -0.7700  0.9101
13550TIP3   OH262140   3.096   1.199  14.253  0.3078  0.2615  0.1762
13550TIP3    H162141   3.139   1.280  14.279  0.5372  0.1134  0.2673
13550TIP3    H262142   3.002   1.218  14.258  0.3312  0.0952  1.5730
13551TIP3   OH262143   0.714   0.087  11.257  0.1442  0.5517 -0.0802
13551TIP3    H162144   0.716   0.002  11.214  1.6640 -0.0616  1.1228
13551TIP3    H262145   0.729   0.150  11.187  2.4612 -0.4106 -0.5336
13552TIP3   OH262146   0.234   4.242  12.633  0.4684  0.2003 -0.0942
13552TIP3    H162147   0.259   4.162  12.678 -1.1500 -1.4092 -1.8315
13552TIP3    H262148   0.288   4.242  12.553  1.5894  1.7361  0.6115
13553TIP3   OH262149   3.968   5.393   2.743  0.0594  0.4891 -0.6867
13553TIP3    H162150   4.055   5.408   2.781 -0.2254 -1.6916  1.0824
13553TIP3    H262151   3.924   5.478   2.749  1.8370  1.4891 -1.0688
13554TIP3   OH262152   0.011   3.594   0.134 -0.2736 -0.0394 -0.1628
13554TIP3    H162153   0.043   3.638   0.213  0.5271 -0.3944 -0.2909
13554TIP3    H262154  -0.066   3.544   0.165  1.3399 -2.0189  0.9161
13555TIP3   OH262155   1.052   3.562  10.650 -0.4430  0.4118 -0.3412
13555TIP3    H162156   1.109   3.563  10.727 -1.2891 -0.1795  0.3155
13555TIP3    H262157   1.077   3.483  10.602 -1.1022 -0.1865  0.2722
13556TIP3   OH262158   6.429   1.697  13.359 -0.0687  0.3637 -0.0757
13556TIP3    H162159   6.508   1.698  13.307  0.7340  0.0216  1.0954
13556TIP3    H262160   6.441   1.625  13.420 -1.0971  0.5708  0.3933
13557TIP3   OH262161   0.497   5.981  11.359 -0.1911  0.2271 -0.3681
13557TIP3    H162162   0.532   5.939  11.438  0.1568  0.7251 -0.2593
13557TIP3    H262163   0.432   5.918  11.326  0.4991 -0.5065 -0.3424
13558TIP3   OH262164   4.082   3.742  14.083  0.3122  0.1924  0.4303
13558TIP3    H162165   4.086   3.719  13.991 -0.3754 -0.9582  0.6717
13558TIP3    H262166   4.022   3.678  14.122  3.7987 -2.2127  2.4706
13559TIP3   OH262167   1.810   5.024   5.063  0.1814 -0.2233  0.6117
13559TIP3    H162168   1.901   5.053   5.050  0.3137 -0.6130  0.6758
13559TIP3    H262169   1.816   4.929   5.071 -0.4094 -0.4109 -0.9553
13560TIP3   OH262170   6.284   4.966   0.975  0.2136  0.1829  0.4759
13560TIP3    H162171   6.238   4.976   1.058  1.7856 -1.0245  1.5525
13560TIP3    H262172   6.367   5.012   0.987  0.9794 -1.0356  0.0468
13561TIP3   OH262173   4.075   4.006   6.429 -0.2103  0.4973  0.0337
13561TIP3    H162174   4.124   3.959   6.496  0.1386  0.3421 -0.3283
13561TIP3    H262175   4.026   3.938   6.383  1.1657  0.3092 -1.2341
13562TIP3   OH262176   6.031   3.859   4.036  0.0102  0.1736  0.1245
13562TIP3    H162177   6.071   3.936   4.077  0.3531  0.6795 -1.0999
13562TIP3    H262178   6.102   3.795   4.031 -0.2687 -0.2309  1.1209
13563TIP3   OH262179   5.115   5.955  15.747 -0.4932  0.0993  0.2375
13563TIP3    H162180   5.031   5.951  15.791 -0.8817  2.3037 -0.1856
13563TIP3    H262181   5.103   6.020  15.678  0.8208 -1.4356 -1.5243
13564TIP3   OH262182   4.971   2.072   2.391  0.4455 -0.0126 -0.4755
13564TIP3    H162183   4.885   2.081   2.349  1.3619  1.7327 -2.0951
13564TIP3    H262184   4.968   1.985   2.432 -1.8077 -0.3060 -1.0959
13565TIP3   OH262185   3.018   0.288  14.783 -0.0023 -0.3732 -0.2998
13565TIP3    H162186   3.003   0.250  14.869 -0.4332  1.2172  0.3751
13565TIP3    H262187   3.110   0.273  14.765  0.2971 -0.0025  0.8354
13566TIP3   OH262188   3.937   0.068  13.369 -0.1897  0.0361  0.0225
13566TIP3    H162189   3.957   0.114  13.287 -1.4500  2.1105  0.8047
13566TIP3    H262190   4.020   0.067  13.417  0.3396 -0.3917 -0.8626
13567TIP3   OH262191   5.637   4.842   1.744 -0.2613 -0.1964 -0.1939
13567TIP3    H162192   5.724   4.805   1.757 -1.4846 -2.5920  2.2636
13567TIP3    H262193   5.589   4.775   1.695 -1.2079  0.2740  0.0530
13568TIP3   OH262194   3.345   1.017  13.630 -0.2418 -0.4029 -0.7182
13568TIP3    H162195   3.277   1.044  13.569  0.6232 -0.3170 -1.6831
13568TIP3    H262196   3.300   1.003  13.713 -1.3658 -0.0314 -1.2537
13569TIP3   OH262197   4.108   0.493   0.180  0.7696  0.1206 -0.0467
13569TIP3    H162198   4.165   0.420   0.158 -0.0512 -0.8261  0.8618
13569TIP3    H262199   4.089   0.482   0.273  0.4150  1.3511  0.0538
13570TIP3   OH262200   2.134   0.611   5.642  0.0479  0.2941  0.1236
13570TIP3    H162201   2.158   0.648   5.727 -0.5665  0.9997 -0.0011
13570TIP3    H262202   2.064   0.667   5.610 -1.0477 -1.0980  0.0110
13571TIP3   OH262203   3.650   1.025   3.444  0.2369  0.7974  0.5148
13571TIP3    H162204   3.700   1.029   3.525  2.1794  0.6501 -0.5963
13571TIP3    H262205   3.595   0.947   3.453 -1.2501  1.9839  2.5170
13572TIP3   OH262206   4.643   0.570   1.180  0.2997  0.0051 -0.0625
13572TIP3    H162207   4.661   0.622   1.259 -0.9537  0.9156 -0.3560
13572TIP3    H262208   4.589   0.498   1.212  1.9496 -1.1200  0.3256
13573TIP3   OH262209   3.282   1.979   5.051  0.0132  0.6736 -0.4087
13573TIP3    H162210   3.256   2.059   5.096 -2.4936 -0.1074 -0.2869
13573TIP3    H262211   3.347   1.939   5.109 -1.3157  0.9140  1.3678
13574TIP3   OH262212   2.893   1.100   0.219  0.5923  0.0645 -0.0760
13574TIP3    H162213   2.943   1.049   0.156  0.4130  0.2072 -0.3356
13574TIP3    H262214   2.945   1.180   0.232  0.6881 -0.0180  0.0471
13575TIP3   OH262215   1.740   6.723  16.516 -0.0711 -0.3133  0.2501
13575TIP3    H162216   1.730   6.654  16.451  2.7181 -0.0942 -0.5440
13575TIP3    H262217   1.723   6.804  16.468  0.5228 -0.2409  0.1519
13576TIP3   OH262218   3.944   2.319   5.189 -0.7559 -0.2533  0.1754
13576TIP3    H162219   3.932   2.412   5.203 -0.5317 -0.1208 -0.4597
13576TIP3    H262220   4.039   2.308   5.181 -0.6833 -0.7146  1.3872
13577TIP3   OH262221   1.013   2.128  14.531 -0.5150 -0.3616 -0.3729
13577TIP3    H162222   0.928   2.121  14.575 -0.2053  2.1724  0.8151
13577TIP3    H262223   1.005   2.206  14.477  1.4333  0.7311  0.8022
13578TIP3   OH262224   3.938   0.011   5.585  0.3491 -0.2818  0.7222
13578TIP3    H162225   4.009  -0.052   5.599  0.4819 -0.4578 -0.5782
13578TIP3    H262226   3.871  -0.013   5.650  0.7612 -1.2154  0.8181
13579TIP3   OH262227   5.640   1.811   2.801 -1.1180 -0.7128  0.3052
13579TIP3    H162228   5.575   1.863   2.847  1.3520  1.7114  1.3292
13579TIP3    H262229   5.601   1.793   2.716 -2.9517  0.9439  0.7229
13580TIP3   OH262230   2.025   0.589  15.676  0.3332 -0.3486  0.0117
13580TIP3    H162231   1.992   0.619  15.592 -0.0004  0.7999  0.5237
13580TIP3    H262232   2.096   0.529  15.655  0.5947  0.3266 -1.0810
13581TIP3   OH262233   2.578   2.741   4.080 -0.1272 -0.6131 -0.4776
13581TIP3    H162234   2.545   2.770   3.995 -0.1988 -0.1245 -0.2851
13581TIP3    H262235   2.597   2.822   4.127  3.0275 -0.8010 -1.1849
13582TIP3   OH262236   1.713   2.031   5.014 -0.0687 -0.0669 -0.3643
13582TIP3    H162237   1.678   2.120   5.020 -0.6462 -0.2920 -0.3706
13582TIP3    H262238   1.766   2.022   5.093 -1.3017 -0.2671  0.4679
13583TIP3   OH262239   3.769   0.550   1.229 -0.1403  0.2456  0.0941
13583TIP3    H162240   3.821   0.544   1.309 -1.3400 -0.5729  0.8390
13583TIP3    H262241   3.789   0.469   1.181 -2.1572 -1.0493  1.3151
13584TIP3   OH262242   0.365   0.160   5.331 -0.0817 -0.0392  0.1338
13584TIP3    H162243   0.341   0.178   5.422  0.5415 -1.2057  0.5517
13584TIP3    H262244   0.448   0.114   5.336 -0.0194 -0.0992 -1.0362
13585TIP3   OH262245   0.581   0.618   5.592 -0.2622 -0.4226 -0.0409
13585TIP3    H162246   0.542   0.565   5.522  0.6658 -2.4778  0.9151
13585TIP3    H262247   0.613   0.554   5.656  3.5841  1.1094 -0.1781
13586TIP3   OH262248   4.732   6.585   2.819 -0.3071 -0.8040  0.4473
13586TIP3    H162249   4.717   6.674   2.787 -1.1282 -1.0393  0.1626
13586TIP3    H262250   4.780   6.597   2.901  0.4376 -0.1391 -0.0693
13587TIP3   OH262251   5.113   3.635  12.016  0.8007 -0.0405 -0.4155
13587TIP3    H162252   5.105   3.544  11.986 -0.6000 -0.3348  0.6969
13587TIP3    H262253   5.171   3.630  12.092  2.0659  0.2647 -1.3494
13588TIP3   OH262254   3.240   0.856  15.647 -0.1782  0.4881  0.1162
13588TIP3    H162255   3.298   0.901  15.709 -1.0144  2.2744 -0.3528
13588TIP3    H262256   3.268   0.886  15.561 -2.1197  1.8723 -0.0964
13589TIP3   OH262257   4.317   1.473  15.800  0.3852 -0.3820  0.2071
13589TIP3    H162258   4.267   1.431  15.870  1.5578 -0.2848  1.1232
13589TIP3    H262259   4.385   1.411  15.778 -1.4611 -1.5627 -2.7262
13590TIP3   OH262260   3.330   1.646  13.264 -0.0008 -0.2332  0.2763
13590TIP3    H162261   3.339   1.557  13.232  0.0076 -0.5560  1.1546
13590TIP3    H262262   3.341   1.639  13.359 -0.2324  0.6632  0.3804
13591TIP3   OH262263   1.626   1.476   2.437 -0.4587  0.0521  0.0828
13591TIP3    H162264   1.653   1.503   2.524 -0.3858 -0.0226  0.0832
13591TIP3    H262265   1.707   1.470   2.387 -0.5804  0.9632 -0.2339
13592TIP3   OH262266   4.888   4.369   1.563 -0.3869 -0.1753  0.2118
13592TIP3    H162267   4.809   4.334   1.522 -1.2718  0.3355  1.4415
13592TIP3    H262268   4.857   4.418   1.638  1.2002 -1.5616  1.8760
13593TIP3   OH262269   5.651   1.668   5.096 -0.0260 -0.7543 -0.2501
13593TIP3    H162270   5.643   1.754   5.135 -2.1327 -0.3948 -1.3019
13593TIP3    H262271   5.726   1.628   5.139  1.0705  1.6264  0.1779
13594TIP3   OH262272   3.115   5.794  12.012 -0.0171 -0.1448  0.3337
13594TIP3    H162273   3.199   5.757  12.039  0.6563  1.3461  0.3894
13594TIP3    H262274   3.128   5.889  12.017 -1.2158  0.1307 -1.1855
13595TIP3   OH262275   0.731   0.724  14.501  0.1690  0.0730  0.4730
13595TIP3    H162276   0.787   0.787  14.547 -0.4258 -0.2192  1.6560
13595TIP3    H262277   0.643   0.745  14.531 -0.1698 -0.5375 -0.0796
13596TIP3   OH262278   4.671   0.940   0.358  0.4268  0.2221 -0.2818
13596TIP3    H162279   4.640   1.014   0.305  1.0880  0.2266 -0.6784
13596TIP3    H262280   4.592   0.890   0.378 -0.7799  3.0915  3.3660
13597TIP3   OH262281   3.987   2.168   1.461  0.0404 -0.2103 -0.2355
13597TIP3    H162282   3.963   2.259   1.475 -2.3509 -0.6561 -0.8940
13597TIP3    H262283   3.991   2.129   1.548 -1.8518 -0.0993 -0.0713
13598TIP3   OH262284   4.314   2.584   4.437  0.0030  0.2650  0.0610
13598TIP3    H162285   4.243   2.591   4.501  0.1540  2.2746  0.0796
13598TIP3    H262286   4.394   2.588   4.490  0.1237  1.0060 -0.1676
13599TIP3   OH262287   0.702   1.228  11.226  0.0772 -0.0390 -0.0619
13599TIP3    H162288   0.782   1.221  11.174  0.8683 -1.5259  1.2587
13599TIP3    H262289   0.695   1.321  11.247 -0.1737  0.5800 -2.5886
13600TIP3   OH262290   0.599   1.652  10.376 -0.3339  0.4683  0.1675
13600TIP3    H162291   0.622   1.564  10.346 -1.1598  0.4648 -0.4706
13600TIP3    H262292   0.683   1.699  10.378  0.2740 -0.5965  1.4817
13601TIP3   OH262293   6.300   0.696   2.315 -0.0347  0.4356  0.6803
13601TIP3    H162294   6.252   0.744   2.382 -1.3476  0.6329 -0.3705
13601TIP3    H262295   6.233   0.651   2.264  1.0233 -0.7058  0.2428
13602TIP3   OH262296   0.342   6.387   4.981  0.1639 -0.6805  0.3055
13602TIP3    H162297   0.294   6.327   5.037 -0.6186 -0.3039  0.0553
13602TIP3    H262298   0.384   6.332   4.916  0.2099 -1.0298  0.6304
13603TIP3   OH262299   1.870   1.453   4.129  0.5743 -0.2510 -0.4019
13603TIP3    H162300   1.940   1.462   4.064  2.3421  3.2086  1.6993
13603TIP3    H262301   1.795   1.499   4.092  1.4568  1.3744 -0.2738
13604TIP3   OH262302   3.148   0.007  11.756  0.4246  0.0291 -0.3298
13604TIP3    H162303   3.139   0.100  11.737  1.3468  0.4550  1.1078
13604TIP3    H262304   3.059  -0.025  11.766  0.1317  1.2123  1.0814
13605TIP3   OH262305   5.965   4.794   1.211 -0.1571 -0.2810 -0.1316
13605TIP3    H162306   5.893   4.764   1.157  0.0716  1.7841 -1.7066
13605TIP3    H262307   5.925   4.818   1.295 -1.3649  1.0148 -1.0431
13606TIP3   OH262308   2.846   0.792   0.769  0.1603  0.1592  0.0784
13606TIP3    H162309   2.790   0.783   0.692 -1.4546  1.2036  1.0725
13606TIP3    H262310   2.850   0.887   0.784 -1.7404 -0.0802  2.7653
13607TIP3   OH262311   4.467   2.612  11.463 -0.2830  0.2472 -0.5060
13607TIP3    H162312   4.419   2.629  11.544 -1.3025 -2.1051 -0.5346
13607TIP3    H262313   4.558   2.601  11.490 -0.5851 -0.3407  0.3095
13608TIP3   OH262314   5.276   3.912   3.788  0.1708 -0.9645  0.1879
13608TIP3    H162315   5.300   3.902   3.696  1.0230 -0.8299  0.3862
13608TIP3    H262316   5.340   3.973   3.823 -1.1916  0.3541  0.4714
13609TIP3   OH262317   2.030   3.129  12.452 -0.3817 -0.3548  0.7859
13609TIP3    H162318   1.995   3.104  12.537  0.3541  1.6426  1.7373
13609TIP3    H262319   2.034   3.224  12.454  0.8482 -0.3052 -1.0069
13610TIP3   OH262320   4.313   2.235  12.063  0.2850 -0.6958  0.1390
13610TIP3    H162321   4.400   2.194  12.068  0.6606  0.2202  1.9126
13610TIP3    H262322   4.318   2.294  11.988  0.2983 -2.5654 -1.3962
13611TIP3   OH262323   1.870   6.217  13.172 -0.4289 -0.5573 -0.1102
13611TIP3    H162324   1.886   6.307  13.202 -1.6605 -0.2024 -0.4615
13611TIP3    H262325   1.814   6.179  13.239  1.1589 -1.5313  0.7180
13612TIP3   OH262326   0.785   0.924   1.852 -0.0352  0.3398  0.0200
13612TIP3    H162327   0.766   0.942   1.759  1.0750  0.4300 -0.1999
13612TIP3    H262328   0.875   0.892   1.852 -0.5656 -1.2325  0.9010
13613TIP3   OH262329   2.114   3.804  16.428 -0.0971  0.1649  0.4172
13613TIP3    H162330   2.206   3.806  16.455 -0.6415 -1.1829  2.6524
13613TIP3    H262331   2.069   3.862  16.489 -0.5362  2.3534 -1.8556
13614TIP3   OH262332   0.691   5.905  16.392 -0.0581 -0.5436 -0.4533
13614TIP3    H162333   0.747   5.979  16.369  1.2703 -1.4900 -0.3807
13614TIP3    H262334   0.690   5.850  16.314 -0.6509 -0.6961 -0.3481
13615TIP3   OH262335   1.419   0.275  13.842 -0.4644  0.4816  0.5124
13615TIP3    H162336   1.408   0.347  13.905 -0.3640 -0.7612  2.0002
13615TIP3    H262337   1.353   0.211  13.867 -1.5011  0.5834 -1.6701
13616TIP3   OH262338   1.910   1.309  16.698 -0.3295 -0.5590 -0.6042
13616TIP3    H162339   1.862   1.359  16.765 -0.1455 -1.2427  0.0429
13616TIP3    H262340   1.874   1.220  16.705 -0.0168 -0.7254 -1.1336
13617TIP3   OH262341   6.033   1.984  13.572 -0.2775  0.2364 -0.1943
13617TIP3    H162342   5.951   1.948  13.538  0.5768 -0.2063 -1.8719
13617TIP3    H262343   6.028   2.077  13.550 -0.6780  0.3847  0.4746
13618TIP3   OH262344   6.680   0.428  15.564  0.3935  0.8813  0.1403
13618TIP3    H162345   6.623   0.497  15.598  0.6962  0.3893  1.7193
13618TIP3    H262346   6.631   0.388  15.492 -1.1110  0.6793  1.2547
13619TIP3   OH262347   4.482   1.262   3.197 -0.0573  0.2943  0.2117
13619TIP3    H162348   4.513   1.180   3.159 -0.9066  1.1156 -2.4265
13619TIP3    H262349   4.561   1.310   3.221  0.5734  0.1636 -1.5248
13620TIP3   OH262350   4.245   1.246  14.156  0.4137 -0.2818 -0.2541
13620TIP3    H162351   4.227   1.152  14.151  0.7350 -0.3454 -0.2023
13620TIP3    H262352   4.276   1.260  14.245 -1.6414  0.2251  0.4479
13621TIP3   OH262353   4.516   4.758   6.473 -0.0485 -0.5250 -0.1704
13621TIP3    H162354   4.530   4.758   6.378 -1.1932  0.1405 -0.3655
13621TIP3    H262355   4.523   4.667   6.499 -0.9473 -0.8705 -1.1014
13622TIP3   OH262356   4.289   2.353   4.316  0.3390  0.2661  0.4070
13622TIP3    H162357   4.291   2.432   4.370  0.7137  0.1888  0.5114
13622TIP3    H262358   4.381   2.335   4.297  0.2288  0.0783  0.0565
13623TIP3   OH262359   2.867   0.407   0.515 -0.1392  0.1667 -0.0483
13623TIP3    H162360   2.905   0.341   0.573  1.1207  1.4846  0.6717
13623TIP3    H262361   2.772   0.394   0.524  0.0019  0.3993  2.4274
13624TIP3   OH262362   2.105   0.585   6.606 -0.3646 -0.0211  0.0761
13624TIP3    H162363   2.194   0.555   6.588 -0.3941 -0.3699  0.5129
13624TIP3    H262364   2.051   0.539   6.541 -0.2670 -0.0328  0.0031
13625TIP3   OH262365   3.851   0.644  12.363 -0.0812 -0.7110  0.5054
13625TIP3    H162366   3.853   0.604  12.450  2.4074 -0.1098  0.7970
13625TIP3    H262367   3.928   0.607  12.318  1.2249  2.2274  0.1378
13626TIP3   OH262368   1.233   6.475  16.146 -0.0194 -0.4072 -0.0471
13626TIP3    H162369   1.156   6.476  16.088  1.1358  0.9325 -1.6443
13626TIP3    H262370   1.289   6.406  16.111  0.6508  0.3562 -0.4988
13627TIP3   OH262371   3.567   6.386  13.111 -0.0545 -0.2597  0.1344
13627TIP3    H162372   3.578   6.373  13.016 -2.4909 -2.5501  0.0601
13627TIP3    H262373   3.550   6.480  13.120 -0.7370 -0.1487 -1.8377
13628TIP3   OH262374   0.134   1.476   1.910 -0.3447  0.3426 -0.3631
13628TIP3    H162375   0.194   1.436   1.847  0.9151 -1.5507  1.9047
13628TIP3    H262376   0.180   1.556   1.938  0.2768 -0.1387  0.0112
13629TIP3   OH262377   2.091   0.377   5.082  0.2642  0.1661 -0.2116
13629TIP3    H162378   2.062   0.305   5.025 -0.2166 -0.5048  0.8423
13629TIP3    H262379   2.181   0.355   5.104 -0.5708 -1.4062  1.9651
13630TIP3   OH262380   5.105   5.656   0.285 -0.3200  0.1558  0.2765
13630TIP3    H162381   5.122   5.691   0.372  0.5571  0.2955  0.0555
13630TIP3    H262382   5.086   5.733   0.231  0.7640  0.2412 -0.0146
13631TIP3   OH262383   2.526   5.646  15.490  0.4400 -0.3097 -0.2292
13631TIP3    H162384   2.599   5.652  15.429 -0.3338  0.5541 -1.1189
13631TIP3    H262385   2.451   5.622  15.435 -0.4363  1.2698  0.2169
13632TIP3   OH262386   4.118   1.581   6.636 -0.0039 -0.4350  0.1180
13632TIP3    H162387   4.159   1.628   6.563 -0.0649  0.5388  0.6926
13632TIP3    H262388   4.068   1.510   6.594 -1.4242  1.1071 -0.9360
13633TIP3   OH262389   3.832   0.754   1.059 -0.3129 -0.6224  0.6350
13633TIP3    H162390   3.923   0.755   1.031 -0.8160 -0.6186 -1.1655
13633TIP3    H262391   3.829   0.696   1.134  1.4123  0.5552  1.6644
13634TIP3   OH262392   4.730   1.365  12.696  0.0738 -0.5695 -0.4990
13634TIP3    H162393   4.682   1.287  12.724 -0.5528  0.1277  0.4364
13634TIP3    H262394   4.713   1.371  12.602  1.7147 -2.6205 -1.0179
13635TIP3   OH262395   3.756   1.557   1.424 -0.2347 -0.1283 -0.7695
13635TIP3    H162396   3.661   1.570   1.426 -0.2207 -0.1113  0.3657
13635TIP3    H262397   3.793   1.641   1.451  0.0542 -0.5621  0.1984
13636TIP3   OH262398   1.004   3.598   0.093  0.3746  0.3817 -0.0752
13636TIP3    H162399   1.089   3.555   0.096 -0.2712 -0.9161  0.1723
13636TIP3    H262400   0.990   3.615  -0.000 -0.1132 -1.5545 -0.3983
13637TIP3   OH262401   5.452   6.004  12.739 -0.3591 -0.0986  0.5068
13637TIP3    H162402   5.539   5.964  12.736  1.3279  3.0964  1.8571
13637TIP3    H262403   5.436   6.035  12.650  0.5396  0.4561  0.5256
13638TIP3   OH262404   2.642   3.752   6.640  0.1106  0.0507 -0.0571
13638TIP3    H162405   2.565   3.698   6.658  0.7316 -1.1221 -0.7933
13638TIP3    H262406   2.607   3.831   6.599 -0.7977  0.1370  0.8480
13639TIP3   OH262407   6.015   6.657   3.601  0.6412 -0.2425 -0.2591
13639TIP3    H162408   6.073   6.712   3.549  2.1392  1.3641  2.8613
13639TIP3    H262409   5.951   6.717   3.639 -0.9338 -1.4854 -0.7963
13640TIP3   OH262410   0.254   0.477  12.350 -0.0437 -0.1569 -0.5172
13640TIP3    H162411   0.341   0.456  12.316 -0.1675  1.4813 -1.9459
13640TIP3    H262412   0.234   0.403  12.408  2.7635 -0.0386  0.8059
13641TIP3   OH262413   4.739   6.663  13.426 -0.1084 -0.1841 -0.4099
13641TIP3    H162414   4.820   6.694  13.467 -0.4882  0.0404  0.1755
13641TIP3    H262415   4.766   6.587  13.374  0.6504  0.5120 -1.0360
13642TIP3   OH262416   1.676   2.175   3.041 -0.6641 -0.7532  0.5402
13642TIP3    H162417   1.650   2.267   3.028  0.4997 -0.4383  0.3619
13642TIP3    H262418   1.727   2.175   3.121  1.8323 -0.6963 -0.9541
13643TIP3   OH262419   6.508   3.915   5.073  0.1634 -0.4508  0.9235
13643TIP3    H162420   6.542   3.890   5.160  1.0309 -0.9892  0.4491
13643TIP3    H262421   6.415   3.894   5.076  0.1871 -0.4667  1.7212
13644TIP3   OH262422   3.150   6.282   0.884 -0.1608  0.0950 -0.2119
13644TIP3    H162423   3.116   6.331   0.959  1.0349 -1.2628  1.3050
13644TIP3    H262424   3.229   6.330   0.858  0.2635 -0.2672  0.3949
13645TIP3   OH262425   3.291   0.389   4.983  1.0489  0.2722  0.1090
13645TIP3    H162426   3.346   0.467   4.994  0.5972  0.8338 -1.3829
13645TIP3    H262427   3.353   0.317   4.974  1.4948  0.5851  0.6127
13646TIP3   OH262428   3.408   5.507  13.597 -0.1914  0.0582 -0.0042
13646TIP3    H162429   3.360   5.424  13.592  0.7193 -0.4272 -1.2095
13646TIP3    H262430   3.415   5.524  13.691  0.7988 -1.9879  0.3643
13647TIP3   OH262431   0.083   2.034  16.643  0.0326  0.4573  0.4048
13647TIP3    H162432   0.018   1.964  16.642 -0.5507  0.8068 -3.5532
13647TIP3    H262433   0.109   2.042  16.735 -3.1888 -1.8091  1.6921
13648TIP3   OH262434   0.263   2.361  15.208 -0.4885 -0.0333  0.4224
13648TIP3    H162435   0.197   2.309  15.254 -2.1420  0.9147 -0.7368
13648TIP3    H262436   0.218   2.443  15.187  1.0282  0.5957 -0.5496
13649TIP3   OH262437   6.283   5.201  15.840  0.1967  0.1322  0.0351
13649TIP3    H162438   6.321   5.114  15.831 -0.6434 -0.2525  0.1427
13649TIP3    H262439   6.348   5.260  15.802  0.2771 -0.6476 -1.0667
13650TIP3   OH262440   3.888   2.443  12.544  0.0684 -0.0406  0.5469
13650TIP3    H162441   3.953   2.513  12.535  0.8496 -0.8673 -0.7751
13650TIP3    H262442   3.879   2.430  12.638  0.8576  0.9775  0.7841
13651TIP3   OH262443   4.299   4.104   1.729 -0.4632  0.3297  0.4424
13651TIP3    H162444   4.344   4.188   1.738 -0.3401  0.3792 -0.5147
13651TIP3    H262445   4.220   4.113   1.782  0.7824  0.1193  2.4347
13652TIP3   OH262446   0.754   4.695   0.510 -0.4742 -0.1591 -0.0546
13652TIP3    H162447   0.665   4.660   0.520 -1.0509  0.7130 -1.7798
13652TIP3    H262448   0.747   4.759   0.439  1.5552 -0.1388 -0.2977
13653TIP3   OH262449   4.755   4.728  16.695  0.1986  0.0562  0.2357
13653TIP3    H162450   4.668   4.716  16.656  0.5825  0.6127 -0.8436
13653TIP3    H262451   4.740   4.719  16.789 -1.5801  2.8120  0.3546
13654TIP3   OH262452   5.207   2.849   1.063 -0.9119  0.3006  0.1045
13654TIP3    H162453   5.177   2.810   1.145  0.8737 -1.4579  0.0053
13654TIP3    H262454   5.302   2.839   1.065 -0.6822  1.6347 -1.5119
13655TIP3   OH262455   4.998   2.381   6.621 -0.3344 -0.2111  0.1806
13655TIP3    H162456   5.088   2.350   6.620 -0.4625 -0.6618 -2.2809
13655TIP3    H262457   4.945   2.302   6.625 -0.6132 -0.1219 -1.2598
13656TIP3   OH262458   0.404   0.019   2.720 -0.2117  0.3043  0.5323
13656TIP3    H162459   0.421  -0.058   2.774 -0.3691 -0.6985 -0.7936
13656TIP3    H262460   0.417  -0.012   2.630 -1.9672  1.3871 -0.1310
13657TIP3   OH262461   2.645   6.329   3.298  0.1581  0.1085  0.1487
13657TIP3    H162462   2.694   6.409   3.315  1.1265 -0.5157  0.3645
13657TIP3    H262463   2.710   6.267   3.265 -0.5183 -0.6809  0.2543
13658TIP3   OH262464   4.030   4.996  16.427 -0.0504 -0.3472  0.2988
13658TIP3    H162465   4.082   4.923  16.461 -0.4571 -1.0435 -0.5409
13658TIP3    H262466   3.943   4.959  16.412 -0.7140  0.6982  1.3178
13659TIP3   OH262467   2.146   6.650   2.649  0.2058 -0.3427 -0.2339
13659TIP3    H162468   2.199   6.618   2.722  0.7518  1.1406  0.0441
13659TIP3    H262469   2.079   6.705   2.689  0.8561  0.9494 -0.8696
13660TIP3   OH262470   3.384   0.112   5.049  1.0141 -0.1174 -0.4874
13660TIP3    H162471   3.351   0.133   5.136 -0.6799 -2.3091 -0.5204
13660TIP3    H262472   3.476   0.141   5.051  1.2974 -0.8696  2.3401
13661TIP3   OH262473   3.969   5.916   4.313  0.0035 -0.0008  0.1971
13661TIP3    H162474   3.945   5.870   4.233 -0.8564  0.7844 -0.0187
13661TIP3    H262475   3.981   6.007   4.286 -0.9079  0.3977  1.0519
13662TIP3   OH262476   4.670   2.568  11.933 -0.6443  0.0472 -0.3071
13662TIP3    H162477   4.576   2.567  11.917 -0.3559  1.5376 -2.4905
13662TIP3    H262478   4.701   2.649  11.892  1.4973  0.0086  1.0515
13663TIP3   OH262479   5.160   2.410  14.897 -0.7173  0.2097 -0.6710
13663TIP3    H162480   5.208   2.492  14.897  0.5568 -0.5059 -0.5629
13663TIP3    H262481   5.138   2.394  14.989 -1.6030  0.7682 -0.7740
13664TIP3   OH262482   1.213   4.451  14.763 -0.3242 -1.3409  0.1955
13664TIP3    H162483   1.199   4.357  14.750  0.6893 -1.7798  1.9072
13664TIP3    H262484   1.269   4.456  14.841  2.8346  0.5188 -1.9639
13665TIP3   OH262485   5.478   6.391  13.741  0.0570 -0.2845 -0.2252
13665TIP3    H162486   5.523   6.346  13.669 -0.6208  0.1657 -0.9561
13665TIP3    H262487   5.386   6.394  13.713 -0.5664 -1.7408  1.5235
13666TIP3   OH262488   3.299   2.551  16.758 -0.4017  0.5736  0.1427
13666TIP3    H162489   3.209   2.524  16.777 -0.9238 -1.9129 -4.3075
13666TIP3    H262490   3.290   2.640  16.723 -1.5150 -0.1539 -1.6069
13667TIP3   OH262491   1.277   4.167  15.524 -0.0725  0.0446 -0.1289
13667TIP3    H162492   1.265   4.262  15.514 -0.7098 -0.0512 -0.3258
13667TIP3    H262493   1.370   4.156  15.541 -0.2289  0.8304  1.4396
13668TIP3   OH262494   0.850   5.005  13.347 -0.0542  0.5683 -0.1760
13668TIP3    H162495   0.767   5.045  13.321 -0.3836 -0.0969 -0.1606
13668TIP3    H262496   0.885   5.065  13.413 -0.9395  0.4312  0.4510
13669TIP3   OH262497   6.368   6.162   3.756  0.3103 -0.3330  0.0545
13669TIP3    H162498   6.461   6.142   3.744  0.6805  0.9587  0.5828
13669TIP3    H262499   6.346   6.217   3.681  0.2776  0.3026  0.5222
13670TIP3   OH262500   5.304   2.010   0.898 -0.2159 -0.4212  0.0972
13670TIP3    H162501   5.304   1.999   0.993 -0.9938  0.6373  0.2493
13670TIP3    H262502   5.377   2.069   0.881 -1.3095  1.0657  0.3103
13671TIP3   OH262503   1.057   6.621  13.910  0.5392  0.1030  0.9613
13671TIP3    H162504   0.966   6.622  13.880  0.6148 -0.6961  0.6800
13671TIP3    H262505   1.058   6.680  13.985 -0.4985 -0.8559  1.7712
13672TIP3   OH262506   1.835   2.394   2.885  0.6961  0.0415  0.1016
13672TIP3    H162507   1.845   2.488   2.903  1.1923 -0.1247  0.6949
13672TIP3    H262508   1.740   2.382   2.877  0.4463  0.2055  2.2362
13673TIP3   OH262509   1.610   4.128   2.818 -0.1197 -0.5895  0.0118
13673TIP3    H162510   1.550   4.054   2.819 -0.7755 -0.0726 -0.3476
13673TIP3    H262511   1.662   4.117   2.739  0.6832 -1.3624  0.6337
13674TIP3   OH262512   3.315   4.606  14.519 -0.6447 -0.7141 -0.0735
13674TIP3    H162513   3.274   4.682  14.560  1.6022  0.8578 -0.5886
13674TIP3    H262514   3.387   4.583  14.578  1.1489  0.0973 -1.8265
13675TIP3   OH262515   0.237   5.774  14.521 -0.6822  0.9794  0.0779
13675TIP3    H162516   0.283   5.774  14.437 -0.1998 -0.5020  0.3084
13675TIP3    H262517   0.194   5.859  14.525 -0.6684  1.1040 -1.6472
13676TIP3   OH262518   0.260   1.579  11.968  0.4931 -0.0278  0.9192
13676TIP3    H162519   0.271   1.673  11.981 -2.0677  0.3406  0.9336
13676TIP3    H262520   0.181   1.557  12.018 -2.4877 -0.9574 -3.6216
13677TIP3   OH262521   6.257   4.623   5.395  0.2438 -0.0059  0.2296
13677TIP3    H162522   6.212   4.656   5.472  0.9802 -0.4862  0.8833
13677TIP3    H262523   6.187   4.590   5.338 -0.2331 -0.7735  1.2408
13678TIP3   OH262524   2.893   5.654  16.397  0.4489  0.5666  0.2594
13678TIP3    H162525   2.892   5.741  16.436  0.1038  0.3169  0.8172
13678TIP3    H262526   2.981   5.621  16.417 -0.1867 -0.1449  2.1980
13679TIP3   OH262527   4.786   6.228   0.899 -0.4443 -0.2278  0.3240
13679TIP3    H162528   4.803   6.221   0.805  1.9710  0.5725  0.6162
13679TIP3    H262529   4.798   6.321   0.918 -0.8263 -0.3991  1.4498
13680TIP3   OH262530   2.490   1.013   1.295 -0.2393 -0.4308 -0.2312
13680TIP3    H162531   2.443   0.943   1.340  0.5303 -0.4829  0.5017
13680TIP3    H262532   2.564   0.970   1.253  1.3508  0.1535  1.7989
13681TIP3   OH262533   1.596   4.867   2.649  0.1427 -0.2300  0.3951
13681TIP3    H162534   1.582   4.778   2.682  0.0341 -1.0245 -1.6492
13681TIP3    H262535   1.551   4.869   2.565 -0.1762  1.9061  0.5634
13682TIP3   OH262536   6.100   4.841   3.150 -0.3198  0.3290  0.1999
13682TIP3    H162537   6.041   4.797   3.211  0.0919  1.2987  1.3300
13682TIP3    H262538   6.042   4.880   3.085 -0.8441  0.2734  0.6275
13683TIP3   OH262539   6.024   0.621   3.226  0.1232  0.3645 -0.2552
13683TIP3    H162540   6.118   0.632   3.217  0.1160 -0.2997 -1.2452
13683TIP3    H262541   5.987   0.660   3.147 -0.4654  0.9165  0.2778
13684TIP3   OH262542   1.816   1.643   1.884 -0.1588  0.2989  0.7923
13684TIP3    H162543   1.767   1.648   1.965  0.6114  1.1996  1.2195
13684TIP3    H262544   1.904   1.673   1.906  0.0920  0.4814 -0.3544
13685TIP3   OH262545   4.364   6.773  14.272 -0.3532 -0.6516 -0.0009
13685TIP3    H162546   4.345   6.692  14.226  1.2210 -0.3152 -1.3415
13685TIP3    H262547   4.454   6.763  14.303  0.5269  1.1967 -1.7324
13686TIP3   OH262548   2.051   4.378   2.886  0.2649  0.4406  0.5094
13686TIP3    H162549   2.043   4.471   2.865  0.9625  0.3297 -0.2972
13686TIP3    H262550   1.964   4.341   2.870  0.2241  0.7816 -0.0433
13687TIP3   OH262551   5.619   5.572  11.179 -0.6191  0.5425  0.3860
13687TIP3    H162552   5.603   5.644  11.240 -1.2554 -0.6099  1.6333
13687TIP3    H262553   5.584   5.604  11.095  1.0538  2.4764  0.3697
13688TIP3   OH262554   0.707   5.976   4.695 -0.0255 -0.4097 -0.0455
13688TIP3    H162555   0.660   5.931   4.765 -0.8701  2.4131  1.3275
13688TIP3    H262556   0.687   6.068   4.708  0.5795  0.3273 -3.4780
13689TIP3   OH262557   3.182   0.026   0.699 -0.2258 -0.8185 -0.7114
13689TIP3    H162558   3.274   0.031   0.672 -0.2176 -0.2235 -0.5987
13689TIP3    H262559   3.183  -0.033   0.774  0.1640 -0.3497 -0.3368
13690TIP3   OH262560   0.338   2.812   4.219 -0.1359  0.3288 -0.6203
13690TIP3    H162561   0.393   2.888   4.201 -0.1166  0.0913 -1.6317
13690TIP3    H262562   0.264   2.846   4.269  0.8861  0.6620  0.7577
13691TIP3   OH262563   2.584   3.633  12.157 -0.3226 -0.2611  0.6290
13691TIP3    H162564   2.549   3.702  12.100 -0.3195 -1.6487 -1.1484
13691TIP3    H262565   2.508   3.582  12.183 -0.3888  0.6523  2.3528
13692TIP3   OH262566   5.791   4.834  15.693 -0.0703  0.0224  0.4119
13692TIP3    H162567   5.818   4.750  15.656 -1.7169 -1.9015  3.1812
13692TIP3    H262568   5.841   4.842  15.774 -1.1226  0.8667  1.0129
13693TIP3   OH262569   4.203   2.325   5.251 -0.4012 -0.2283  0.2375
13693TIP3    H162570   4.251   2.399   5.286 -0.0223 -0.3550 -0.0119
13693TIP3    H262571   4.262   2.286   5.186 -0.6531 -0.6576  0.2599
13694TIP3   OH262572   3.961   0.407   4.262 -0.8557 -0.3118 -0.6847
13694TIP3    H162573   3.985   0.463   4.336  0.1579  0.2490 -1.4189
13694TIP3    H262574   3.899   0.460   4.211 -0.5577 -0.1977 -0.9263
13695TIP3   OH262575   0.014   4.394  13.448  0.3553 -0.0146  0.3908
13695TIP3    H162576   0.028   4.340  13.370 -1.9646  0.3081 -0.3120
13695TIP3    H262577   0.028   4.483  13.417 -1.1481  0.1585  0.1593
13696TIP3   OH262578   1.907   3.063   3.647 -0.3493 -0.4123  0.1108
13696TIP3    H162579   1.830   3.074   3.703  0.8092  0.6953  1.5823
13696TIP3    H262580   1.951   2.985   3.681 -0.4931 -0.6760 -0.3095
13697TIP3   OH262581   1.494   2.206  15.703 -0.3693  0.1592 -0.5655
13697TIP3    H162582   1.474   2.183  15.613 -2.1770 -0.8881  0.0582
13697TIP3    H262583   1.441   2.284  15.720 -2.0639 -1.1303  0.3215
13698TIP3   OH262584   1.407   0.322  16.437 -0.1586 -0.2643 -0.2487
13698TIP3    H162585   1.476   0.259  16.458  0.3875  0.3209 -0.2574
13698TIP3    H262586   1.454   0.400  16.407 -0.8031  0.3891  0.3912
13699TIP3   OH262587   2.780   6.395  12.907  0.0917  0.1632  0.2301
13699TIP3    H162588   2.818   6.343  12.836 -0.5365 -0.0691  0.0583
13699TIP3    H262589   2.778   6.484  12.872 -0.0350  0.0824  0.0303
13700TIP3   OH262590   2.184   3.211   6.274  0.1958  0.2330 -0.3300
13700TIP3    H162591   2.245   3.209   6.347  0.8942  1.5003 -0.8609
13700TIP3    H262592   2.176   3.119   6.247 -0.1225 -0.2730  1.3334
13701TIP3   OH262593   2.002   4.262   2.503 -0.0450  0.0113  0.0607
13701TIP3    H162594   1.993   4.255   2.408 -1.6576 -2.3141  0.3134
13701TIP3    H262595   2.096   4.277   2.518  0.3511 -0.4234 -1.8367
13702TIP3   OH262596   2.779   4.803  16.918  1.1185 -0.6148 -0.0661
13702TIP3    H162597   2.690   4.829  16.939  1.4692  0.7625 -0.1437
13702TIP3    H262598   2.816   4.772  17.001  0.5219 -1.3859 -0.0786
13703TIP3   OH262599   0.129   3.903   2.258  0.0230 -0.0999 -0.3997
13703TIP3    H162600   0.117   3.809   2.245 -0.9573 -0.0023 -0.2804
13703TIP3    H262601   0.183   3.931   2.184  1.8426 -1.0341  0.4912
13704TIP3   OH262602   3.503   4.585   4.029 -0.3072 -0.0782 -0.3022
13704TIP3    H162603   3.482   4.670   3.990 -0.4204  1.4565  2.7871
13704TIP3    H262604   3.592   4.566   4.001 -0.0030  1.4728 -0.4480
13705TIP3   OH262605   4.943   0.629   0.788 -1.1249 -0.1040  0.4451
13705TIP3    H162606   4.957   0.634   0.883 -0.8834 -0.7864  0.4511
13705TIP3    H262607   5.031   0.616   0.752 -1.3912 -1.5942  0.2652
13706TIP3   OH262608   1.772   4.831   3.545  0.0967  0.1519 -0.4782
13706TIP3    H162609   1.863   4.805   3.530 -0.1455 -0.2212 -1.3179
13706TIP3    H262610   1.778   4.898   3.614  0.7703 -1.6958  1.3681
13707TIP3   OH262611   5.430   0.694  12.484 -0.5889  0.5476  0.0561
13707TIP3    H162612   5.417   0.669  12.576  0.7857  0.5903  0.2884
13707TIP3    H262613   5.342   0.694  12.446 -1.3872  2.1241  1.7723
13708TIP3   OH262614   3.966   4.212  11.388  0.0306  0.7917  0.0637
13708TIP3    H162615   3.934   4.144  11.448  0.7045  0.0602 -0.3933
13708TIP3    H262616   3.991   4.284  11.446 -1.7909  1.1453  0.4780
13709TIP3   OH262617   4.155   6.017  14.093  0.3641  0.3646  0.0340
13709TIP3    H162618   4.187   5.935  14.055 -0.1444 -0.3502  1.1200
13709TIP3    H262619   4.061   6.003  14.106 -0.1258  1.8287 -1.5321
13710TIP3   OH262620   3.441   2.496   3.298  0.0940 -0.0254 -0.6280
13710TIP3    H162621   3.505   2.427   3.316 -1.4135 -1.4873 -0.6161
13710TIP3    H262622   3.445   2.508   3.203  0.9385  0.4825 -0.5391
13711TIP3   OH262623   5.153   0.397  10.603  0.0483  0.4092  0.3043
13711TIP3    H162624   5.059   0.404  10.624 -0.4426  0.2952 -1.6839
13711TIP3    H262625   5.166   0.458  10.531  1.1225 -0.8499 -0.5976
13712TIP3   OH262626   1.329   0.036  14.454 -0.4913 -0.2179  0.0815
13712TIP3    H162627   1.303   0.125  14.478 -0.2826  0.4198 -1.9228
13712TIP3    H262628   1.284  -0.020  14.519  0.0338  1.3484  1.8820
13713TIP3   OH262629   6.062   5.315   4.608  0.0976  0.1169 -0.5002
13713TIP3    H162630   5.998   5.259   4.651 -0.9102  0.7745 -1.1253
13713TIP3    H262631   6.129   5.254   4.576 -0.5270 -0.6361 -0.3975
13714TIP3   OH262632   1.064   4.534  12.674  0.1463 -0.3276  0.2752
13714TIP3    H162633   1.099   4.623  12.668 -1.1512  0.3654  2.2050
13714TIP3    H262634   1.114   4.493  12.744 -2.0620  0.3791  2.4307
13715TIP3   OH262635   4.755   5.883   0.499  0.2852 -0.3859  0.1275
13715TIP3    H162636   4.797   5.962   0.534  1.0982 -0.7395 -0.0318
13715TIP3    H262637   4.662   5.894   0.522  0.1794  1.1420 -0.8679
13716TIP3   OH262638   2.910   0.840  13.076 -0.1379 -0.8517 -0.2923
13716TIP3    H162639   2.822   0.874  13.093 -0.0012 -1.0516  0.8666
13716TIP3    H262640   2.896   0.766  13.017 -0.5720  0.2118 -1.5834
13717TIP3   OH262641   4.548   2.829   0.145  0.2172  0.0799  0.0566
13717TIP3    H162642   4.520   2.906   0.094  0.3936  0.1975  0.1361
13717TIP3    H262643   4.468   2.777   0.156  0.5545 -1.0420 -2.1904
13718TIP3   OH262644   5.230   4.893  15.343  0.5530  0.1035 -0.1968
13718TIP3    H162645   5.140   4.924  15.330  0.5242 -0.5607 -1.8944
13718TIP3    H262646   5.258   4.864  15.256  1.6255 -1.7911  0.7080
13719TIP3   OH262647   0.745   3.612  12.376 -0.2690  0.4725 -0.0268
13719TIP3    H162648   0.801   3.689  12.368 -0.0349  0.1169 -2.7694
13719TIP3    H262649   0.807   3.539  12.383 -0.4690  0.3723  0.7916
13720TIP3   OH262650   3.071   5.452  12.793  0.5984 -0.0558  0.1208
13720TIP3    H162651   3.114   5.509  12.730  1.8571 -2.8168 -1.7098
13720TIP3    H262652   3.142   5.418  12.848  0.5268 -2.5548 -1.1719
13721TIP3   OH262653   1.059   1.239  13.316  0.1159  0.0815  0.5097
13721TIP3    H162654   0.995   1.263  13.249  1.0414 -0.2319 -0.5191
13721TIP3    H262655   1.128   1.193  13.268  1.8367  1.6648  1.3090
13722TIP3   OH262656   0.097   2.603   4.898 -0.5315  0.1621  0.7671
13722TIP3    H162657   0.031   2.656   4.940 -1.3845  0.4894 -0.8913
13722TIP3    H262658   0.056   2.518   4.885  0.1480 -0.3225  1.6485
13723TIP3   OH262659   6.163   0.654  13.681 -0.1097 -0.0388  0.6382
13723TIP3    H162660   6.210   0.672  13.763  4.4251 -0.9235 -1.4558
13723TIP3    H262661   6.155   0.559  13.679  0.0757 -0.0403 -0.0367
13724TIP3   OH262662   5.120   4.388  13.592 -0.4027  0.8474 -0.2750
13724TIP3    H162663   5.110   4.385  13.497  0.3456 -0.6221 -0.3350
13724TIP3    H262664   5.051   4.330  13.625  0.3881  0.0341 -0.0299
13725TIP3   OH262665   4.585   4.238   5.542  0.0758 -0.0647 -0.7448
13725TIP3    H162666   4.548   4.164   5.591 -0.1485  0.9090  0.6016
13725TIP3    H262667   4.638   4.285   5.606  1.1956  0.2755 -1.8902
13726TIP3   OH262668   1.698   2.504   0.285  0.1147  0.3297 -0.4178
13726TIP3    H162669   1.690   2.427   0.341  0.2789  1.5034  1.2815
13726TIP3    H262670   1.659   2.477   0.201 -1.1844 -1.1295  0.6059
13727TIP3   OH262671   6.165   4.267   2.034 -0.2024 -0.1442 -0.2549
13727TIP3    H162672   6.208   4.188   2.066  0.3716  0.5550  0.7500
13727TIP3    H262673   6.160   4.255   1.939 -2.5712 -2.5914  0.0364
13728TIP3   OH262674   0.006   1.730  11.914 -0.6589  0.4114 -0.4458
13728TIP3    H162675   0.010   1.634  11.918 -1.0886  0.3991 -0.3236
13728TIP3    H262676  -0.060   1.754  11.979  0.5649  0.8758  0.6745
13729TIP3   OH262677   1.884   3.384  14.323  0.3913  0.0536 -0.4581
13729TIP3    H162678   1.883   3.425  14.237 -1.9358 -2.5054 -1.8300
13729TIP3    H262679   1.865   3.455  14.384  2.0033  1.9180 -1.9987
13730TIP3   OH262680   1.254   3.963   6.196  0.1125  0.3033  0.1676
13730TIP3    H162681   1.255   3.967   6.100  1.4069  2.0917  0.2088
13730TIP3    H262682   1.326   3.904   6.218 -0.4751 -0.4736  0.0544
13731TIP3   OH262683   3.242   6.032   0.273  0.0443 -0.0799 -0.3528
13731TIP3    H162684   3.221   5.963   0.210  0.4046 -0.1676 -0.3762
13731TIP3    H262685   3.324   6.070   0.241 -0.5380  0.8669 -0.7746
13732TIP3   OH262686   1.208   2.460  14.034 -0.6735 -0.2642  0.5003
13732TIP3    H162687   1.147   2.419  13.972  0.3086 -1.9498  0.5938
13732TIP3    H262688   1.287   2.477  13.982 -0.2799 -0.5452  0.9982
13733TIP3   OH262689   3.036   0.897  11.734 -0.5451 -0.1722 -0.2725
13733TIP3    H162690   3.098   0.969  11.722  0.8842 -1.5846 -1.8743
13733TIP3    H262691   3.020   0.864  11.646 -1.8600 -1.2814  0.3394
13734TIP3   OH262692   0.114   1.391   1.363 -0.1057 -0.3516 -0.3485
13734TIP3    H162693   0.136   1.412   1.272  0.3116 -0.7330 -0.3352
13734TIP3    H262694   0.032   1.342   1.358  1.0860 -2.3980 -0.7115
13735TIP3   OH262695   4.734   4.483   5.444  0.4424  0.1030  0.6092
13735TIP3    H162696   4.821   4.448   5.424 -0.1109 -1.1980  0.3573
13735TIP3    H262697   4.684   4.407   5.473 -0.9587  0.5995 -0.3949
13736TIP3   OH262698   2.370   5.590  16.292  0.2872  0.6934 -0.0825
13736TIP3    H162699   2.348   5.676  16.327  2.3326  1.2882 -0.1371
13736TIP3    H262700   2.457   5.571  16.328 -0.2129 -1.4869  0.1505
13737TIP3   OH262701   4.224   1.240   3.623 -0.8950  0.2003 -0.0083
13737TIP3    H162702   4.299   1.186   3.650 -0.6829  1.0198  1.1195
13737TIP3    H262703   4.259   1.298   3.557 -0.6966  0.1276  0.0308
13738TIP3   OH262704   3.918   6.691  12.899 -0.2875 -0.4169 -0.4619
13738TIP3    H162705   3.978   6.762  12.920 -1.9064  0.5979  0.9501
13738TIP3    H262706   3.975   6.620  12.868  1.5466  0.7406  0.1188
13739TIP3   OH262707   5.297   6.219   4.745 -0.1677  0.2201  0.5341
13739TIP3    H162708   5.249   6.291   4.705  1.2750  0.8865 -0.0927
13739TIP3    H262709   5.291   6.235   4.839 -1.5221  0.0214  0.4973
13740TIP3   OH262710   6.571   4.968   4.191 -0.0179  0.0745  0.5101
13740TIP3    H162711   6.493   4.913   4.192  0.4104 -0.6433 -1.1225
13740TIP3    H262712   6.538   5.057   4.180 -0.7202  0.2465  3.2866
13741TIP3   OH262713   0.026   4.369  11.132 -0.0863 -0.8963  0.7051
13741TIP3    H162714   0.056   4.278  11.127 -0.0901 -0.8588  0.0083
13741TIP3    H262715   0.076   4.406  11.204 -0.4380 -1.5847  1.3275
13742TIP3   OH262716   6.164   6.433   2.367 -0.0933 -0.3002  0.0924
13742TIP3    H162717   6.133   6.357   2.318 -0.3469  0.1270 -0.4140
13742TIP3    H262718   6.147   6.507   2.310 -1.1239  0.3068  1.1237
13743TIP3   OH262719   2.959   0.878  16.484  0.5255  0.1970 -0.1109
13743TIP3    H162720   2.994   0.800  16.528  0.8160 -0.2213 -1.0460
13743TIP3    H262721   3.034   0.937  16.477  0.4254  0.3573  0.1493
13744TIP3   OH262722   5.857   2.007  15.824 -0.9075  0.0684 -0.3635
13744TIP3    H162723   5.932   2.046  15.778  0.4112 -3.0408 -1.1025
13744TIP3    H262724   5.892   1.983  15.910 -1.2549 -0.7252 -0.4393
13745TIP3   OH262725   4.180   5.658  12.605  0.0214  1.0992  0.3651
13745TIP3    H162726   4.171   5.699  12.691  0.6562  0.7058  0.6187
13745TIP3    H262727   4.162   5.729  12.544  0.9502  1.7314  0.8060
13746TIP3   OH262728   2.474   3.232   0.794  0.0499 -0.1396 -0.1632
13746TIP3    H162729   2.479   3.152   0.741  1.2996  0.4442 -0.9681
13746TIP3    H262730   2.448   3.300   0.732 -0.2026  0.2355  0.3473
13747TIP3   OH262731   2.826   2.263   3.411  0.0515 -0.3019 -0.3170
13747TIP3    H162732   2.791   2.251   3.323 -1.1539  1.0539 -0.0717
13747TIP3    H262733   2.920   2.271   3.399 -0.0807 -0.3118 -1.4697
13748TIP3   OH262734   3.749   5.465  12.805  0.3817  0.1511 -0.2550
13748TIP3    H162735   3.810   5.436  12.873  1.5089  0.8164 -0.9515
13748TIP3    H262736   3.676   5.404  12.811  1.7413 -1.5638 -0.3084
13749TIP3   OH262737   3.645   6.689  14.437  0.2004 -0.1036 -0.1069
13749TIP3    H162738   3.605   6.770  14.407  2.4104  0.9686 -0.3874
13749TIP3    H262739   3.658   6.701  14.531  1.2938  0.2735 -0.2848
13750TIP3   OH262740   4.570   4.473  16.766  0.0249  0.3513  0.1208
13750TIP3    H162741   4.614   4.403  16.815 -0.1820 -1.2670 -1.8686
13750TIP3    H262742   4.629   4.492  16.693 -1.0774  0.4133 -0.7821
13751TIP3   OH262743   2.621   0.866  11.575 -0.4344  0.3817  0.0208
13751TIP3    H162744   2.630   0.800  11.643  1.7309  0.3291 -0.2573
13751TIP3    H262745   2.675   0.833  11.503 -1.5667  1.1123 -1.2113
13752TIP3   OH262746   5.834   4.706   4.757 -0.1666 -0.2234  0.1934
13752TIP3    H162747   5.882   4.625   4.772  0.3495 -0.0698 -0.5611
13752TIP3    H262748   5.830   4.748   4.842  0.3757 -0.6033  0.4107
13753TIP3   OH262749   0.566   5.198  13.570 -0.1160  0.1675 -1.0878
13753TIP3    H162750   0.588   5.291  13.570 -1.2601  0.4707 -2.0019
13753TIP3    H262751   0.472   5.195  13.551  0.0923 -1.1979 -2.1061
13754TIP3   OH262752   2.992   6.829  10.645  0.4235  0.0814 -0.3768
13754TIP3    H162753   3.038   6.859  10.567 -2.4978 -0.2869 -2.3986
13754TIP3    H262754   2.929   6.899  10.665  0.2211 -0.4146  0.8380
13755TIP3   OH262755   0.473   1.727   5.261 -0.1027 -0.1847 -0.4231
13755TIP3    H162756   0.490   1.687   5.175  0.1245 -1.7750  0.3224
13755TIP3    H262757   0.559   1.727   5.304 -0.7350 -2.6081  1.0582
13756TIP3   OH262758   1.477   1.841   0.480 -0.1880  0.0549 -0.1423
13756TIP3    H162759   1.567   1.811   0.486 -0.2431 -0.0089  0.3865
13756TIP3    H262760   1.427   1.777   0.532 -0.6834 -0.5112 -1.2685
13757TIP3   OH262761   5.533   1.381  11.647 -0.2533  0.4538  0.3540
13757TIP3    H162762   5.524   1.325  11.570  1.5620  0.5141  0.0447
13757TIP3    H262763   5.449   1.375  11.692 -0.4140 -1.8161 -0.1494
13758TIP3   OH262764   2.140   2.294   6.772  0.8386 -0.2883 -0.5765
13758TIP3    H162765   2.144   2.344   6.691  0.1578  1.0738  0.2021
13758TIP3    H262766   2.060   2.242   6.763  0.5424  0.1667 -0.6122
13759TIP3   OH262767   3.370   4.189   1.927 -0.2867 -0.2948  0.5918
13759TIP3    H162768   3.462   4.185   1.953 -0.0900  1.2231  0.2439
13759TIP3    H262769   3.371   4.178   1.832 -0.5504 -1.1013  0.6779
13760TIP3   OH262770   6.643   5.446  11.779  0.0579 -0.0939  0.2166
13760TIP3    H162771   6.576   5.411  11.837 -0.5240  2.3817  1.1547
13760TIP3    H262772   6.684   5.516  11.829  2.4899 -0.6469 -0.8349
13761TIP3   OH262773   1.102   5.476   4.392 -0.4660  0.5683  0.2664
13761TIP3    H162774   1.166   5.480   4.321 -1.7080  3.6448 -0.8759
13761TIP3    H262775   1.149   5.509   4.468 -0.2837  1.4803 -0.2245
13762TIP3   OH262776   6.430   2.159   3.063  0.4632  0.3009 -0.0901
13762TIP3    H162777   6.336   2.155   3.078  0.6228 -1.7089  0.7240
13762TIP3    H262778   6.440   2.214   2.986 -1.4860 -0.5125 -0.9906
13763TIP3   OH262779   4.089   6.418  11.362  0.1513  0.3549 -0.1992
13763TIP3    H162780   4.035   6.446  11.436  1.6537  1.1404  0.6326
13763TIP3    H262781   4.148   6.352  11.399  1.4029  1.2764 -0.4961
13764TIP3   OH262782   6.799   1.791  13.464 -0.3135  0.4297 -0.2420
13764TIP3    H162783   6.777   1.703  13.432 -1.1318  0.7139 -0.4891
13764TIP3    H262784   6.821   1.840  13.385  0.9034  0.2510 -0.0305
13765TIP3   OH262785   5.000   6.514  12.205 -0.5108  0.3400  0.0662
13765TIP3    H162786   4.944   6.523  12.127 -1.3537  0.4785  0.6716
13765TIP3    H262787   5.008   6.420  12.218  1.0771  0.2609 -1.1825
13766TIP3   OH262788   0.486   5.050  15.426 -0.4374  0.2569 -0.9526
13766TIP3    H162789   0.546   4.992  15.472 -1.2868 -0.2768 -0.4688
13766TIP3    H262790   0.481   5.015  15.337 -0.3160  0.0804 -0.8889
13767TIP3   OH262791   1.267   3.135  11.941  0.2716 -0.1292 -0.4874
13767TIP3    H162792   1.348   3.089  11.962 -0.2320 -0.2896  1.2730
13767TIP3    H262793   1.294   3.225  11.926  0.8736 -0.3493 -0.7568
13768TIP3   OH262794   0.794   3.854   4.189 -0.1746 -0.3453  0.3893
13768TIP3    H162795   0.802   3.921   4.257  0.4657 -0.2060  0.1874
13768TIP3    H262796   0.791   3.771   4.237 -0.3781 -0.2062  0.6160
13769TIP3   OH262797   0.407   2.890   1.887  0.2332  0.1601 -0.4718
13769TIP3    H162798   0.366   2.842   1.958  1.6581 -4.5204 -2.4025
13769TIP3    H262799   0.344   2.884   1.814  1.8251 -2.2528 -1.7997
13770TIP3   OH262800   5.620   5.194   3.249 -0.3752 -0.0329  0.0711
13770TIP3    H162801   5.713   5.173   3.242 -0.5467 -0.3593 -1.6938
13770TIP3    H262802   5.618   5.276   3.298  0.7500 -0.6602  1.2138
13771TIP3   OH262803   0.361   5.583   5.471  0.2774 -0.9129 -0.5914
13771TIP3    H162804   0.445   5.540   5.488  0.0008 -1.7503 -1.2582
13771TIP3    H262805   0.295   5.517   5.491 -0.1501 -0.9073 -1.8833
13772TIP3   OH262806   0.053   0.984   4.534  0.6802  0.4128 -0.4764
13772TIP3    H162807   0.010   1.013   4.614  0.3390  1.7204 -1.1085
13772TIP3    H262808   0.101   1.061   4.503  1.0747 -0.1650 -1.3548
13773TIP3   OH262809   3.227   5.916  15.955 -0.3029 -0.1485 -0.0584
13773TIP3    H162810   3.182   5.898  16.038  2.3473  1.2048  1.8000
13773TIP3    H262811   3.265   5.832  15.929  0.2100 -0.2470  0.9818
13774TIP3   OH262812   0.579   1.879  11.808  0.0190 -0.4695 -0.4523
13774TIP3    H162813   0.665   1.874  11.849 -0.3898  1.5059  0.7874
13774TIP3    H262814   0.534   1.799  11.838  1.3830 -1.5637 -1.1723
13775TIP3   OH262815   5.952   3.237   2.699 -0.2491 -0.5370 -0.2630
13775TIP3    H162816   6.014   3.201   2.635  0.4817 -0.4792  0.3980
13775TIP3    H262817   5.876   3.263   2.646  0.2749 -0.6300 -1.0884
13776TIP3   OH262818   5.233   2.050  11.321  0.3010 -0.7069  0.3616
13776TIP3    H162819   5.270   2.131  11.289 -0.9114 -0.5792 -0.7834
13776TIP3    H262820   5.240   2.056  11.417  2.5792 -0.4339  0.2357
13777TIP3   OH262821   5.099   5.513   2.229  0.2620 -0.1508 -0.4804
13777TIP3    H162822   5.047   5.573   2.282 -0.5620 -3.7843  3.3609
13777TIP3    H262823   5.180   5.562   2.211 -0.9127  2.5903  0.9904
13778TIP3   OH262824   1.150   0.775   1.093 -0.4700 -0.2808 -0.0921
13778TIP3    H162825   1.139   0.680   1.084  3.2537 -0.7591 -0.9829
13778TIP3    H262826   1.214   0.785   1.164  0.3111  1.4563 -0.9954
13779TIP3   OH262827   4.555   0.800   0.647 -0.3694 -0.5151  0.1424
13779TIP3    H162828   4.542   0.771   0.557 -1.0682  0.5353 -0.1109
13779TIP3    H262829   4.559   0.719   0.698 -1.2530 -1.0905 -0.6674
13780TIP3   OH262830   2.058   4.354   4.767  0.0622 -0.1333 -0.2682
13780TIP3    H162831   2.046   4.306   4.684  3.1879 -0.7419 -0.4932
13780TIP3    H262832   2.071   4.445   4.740  1.1602 -0.3429 -0.5078
13781TIP3   OH262833   5.169   1.409   1.611  0.0787  0.2952  0.6479
13781TIP3    H162834   5.107   1.336   1.600  3.4569 -2.4463 -2.3889
13781TIP3    H262835   5.253   1.374   1.584  3.0004  4.0077  3.7515
13782TIP3   OH262836   3.350   1.396   4.616 -0.1790  0.2360 -0.2155
13782TIP3    H162837   3.420   1.370   4.557  1.1044  1.4659  0.6845
13782TIP3    H262838   3.298   1.459   4.566  0.7242  1.0456 -0.1657
13783TIP3   OH262839   1.469   1.468   1.537  0.0305  0.2169  0.1205
13783TIP3    H162840   1.396   1.502   1.589 -0.0008  1.4573 -0.7132
13783TIP3    H262841   1.430   1.401   1.482 -0.4111  0.5993 -0.0366
13784TIP3   OH262842   5.590   3.769   4.388 -0.1183 -1.0596  0.2745
13784TIP3    H162843   5.662   3.831   4.402 -0.0786 -0.7907 -1.0455
13784TIP3    H262844   5.632   3.683   4.387  0.8018 -0.7610 -3.7162
13785TIP3   OH262845   3.482   2.894  11.965  0.1223 -0.0154  0.3738
13785TIP3    H162846   3.487   2.942  12.047  0.4362 -0.8466  0.8484
13785TIP3    H262847   3.404   2.838  11.974  0.1328 -0.0795  0.0867
13786TIP3   OH262848   1.455   4.945   0.107 -0.5499  0.0695 -0.1106
13786TIP3    H162849   1.493   4.980   0.187  1.9373  0.7950 -1.4989
13786TIP3    H262850   1.379   4.894   0.136  0.1649  0.4467  2.6511
13787TIP3   OH262851   0.405   6.484   1.363 -0.6463  0.5583  0.4627
13787TIP3    H162852   0.401   6.560   1.420  1.6908  0.9305  0.2368
13787TIP3    H262853   0.409   6.409   1.422  0.2360  0.8478  0.7877
13788TIP3   OH262854   1.087   2.784  12.357 -0.2377 -0.8914 -0.0738
13788TIP3    H162855   1.011   2.736  12.322 -0.0120 -1.6952  0.4857
13788TIP3    H262856   1.152   2.716  12.372 -0.8450 -0.9028  3.3022
13789TIP3   OH262857   5.648   0.551  10.907  0.0554 -0.0862  0.1084
13789TIP3    H162858   5.694   0.593  10.834  1.4998 -1.3996  0.2205
13789TIP3    H262859   5.608   0.624  10.955  2.8234  1.2629  0.5601
13790TIP3   OH262860   4.948   5.933  10.990 -0.2229  0.9269  0.1991
13790TIP3    H162861   4.924   5.870  10.923 -1.2817  1.5058  0.0140
13790TIP3    H262862   4.972   6.012  10.942 -0.0090  1.0299  0.4687
13791TIP3   OH262863   5.386   4.052  16.659  0.1144 -0.2014 -0.9973
13791TIP3    H162864   5.294   4.043  16.686 -0.2735  1.0864 -1.8046
13791TIP3    H262865   5.431   4.080  16.739 -0.1490 -1.0497 -0.5413
13792TIP3   OH262866   6.429   4.529  13.912 -0.3761  0.1740 -0.0266
13792TIP3    H162867   6.433   4.492  14.000 -0.5385 -0.5667 -0.3215
13792TIP3    H262868   6.336   4.540  13.895 -0.4291 -1.0051 -0.6252
13793TIP3   OH262869   2.239   3.407  13.410 -0.0597 -0.0033  0.1711
13793TIP3    H162870   2.315   3.349  13.412 -0.0139  0.0494 -0.0327
13793TIP3    H262871   2.165   3.348  13.398  0.2274  0.1633 -3.3309
13794TIP3   OH262872   3.011   3.389   2.475  0.8539 -0.0177  0.5326
13794TIP3    H162873   3.048   3.367   2.561  0.9352 -2.3515 -0.0493
13794TIP3    H262874   2.976   3.477   2.487  2.6887  0.5537  2.3621
13795TIP3   OH262875   1.017   0.050  16.978 -0.8638 -0.4120  0.3753
13795TIP3    H162876   1.102   0.091  16.991 -1.2047  0.0305  1.2516
13795TIP3    H262877   0.975   0.104  16.911 -0.6887 -0.2688  0.3794
13796TIP3   OH262878   3.316   2.310  17.148 -0.9694  0.1885  0.4990
13796TIP3    H162879   3.272   2.251  17.087 -1.0764  0.3223  0.4478
13796TIP3    H262880   3.398   2.333  17.104 -1.9450  1.9158 -0.5145
13797TIP3   OH262881   2.646   6.281   4.121 -0.1445 -0.4037 -0.3620
13797TIP3    H162882   2.601   6.265   4.203  0.6933  0.3473  0.2644
13797TIP3    H262883   2.715   6.215   4.117 -0.0494 -0.3042 -0.3640
13798TIP3   OH262884   3.140   2.200  16.969  0.1532 -0.2181  0.6178
13798TIP3    H162885   3.075   2.164  17.030  0.0565  1.4724  1.5739
13798TIP3    H262886   3.090   2.222  16.891 -0.3927  0.8276  1.2498
13799TIP3   OH262887   2.315   0.296   1.830 -0.4363  0.2000 -0.2848
13799TIP3    H162888   2.267   0.292   1.748  1.2796  1.5274 -1.4275
13799TIP3    H262889   2.247   0.308   1.897 -1.7690  0.7159 -1.6748
13800TIP3   OH262890   4.529   2.558   6.008  0.3877 -0.0637  0.2181
13800TIP3    H162891   4.517   2.583   6.100  2.0236  2.4601 -0.1439
13800TIP3    H262892   4.611   2.509   6.007 -1.2798 -3.0829  0.4723
13801TIP3   OH262893   1.434   5.098  14.798  0.8021 -0.7334 -0.1332
13801TIP3    H162894   1.473   5.091  14.710 -0.1524 -0.2344 -0.6167
13801TIP3    H262895   1.454   5.187  14.826 -0.9833 -0.0279 -0.9155
13802TIP3   OH262896   6.348   5.370   0.141  0.1650 -0.6913  0.8000
13802TIP3    H162897   6.259   5.335   0.132  0.4927 -1.1781 -0.9110
13802TIP3    H262898   6.388   5.356   0.055  1.6275  0.2942  1.2832
13803TIP3   OH262899   5.463   3.295  16.383 -0.1817  0.4853 -0.6512
13803TIP3    H162900   5.499   3.210  16.359 -1.6067  0.3747 -2.6238
13803TIP3    H262901   5.450   3.289  16.478  1.0063 -0.9732 -0.5423
13804TIP3   OH262902   5.770   4.402   0.008 -0.6415 -0.5009  0.1140
13804TIP3    H162903   5.860   4.431   0.027 -0.1096  0.3277 -3.1756
13804TIP3    H262904   5.774   4.307   0.018  1.2043 -0.7074 -1.9172
13805TIP3   OH262905   2.203   1.784  16.734  0.2077 -0.3716  0.7226
13805TIP3    H162906   2.170   1.783  16.824 -5.1063  1.4381 -0.7984
13805TIP3    H262907   2.218   1.877  16.716 -1.0346 -0.4317 -0.8062
13806TIP3   OH262908   2.736   3.455  10.401 -0.2624 -0.2508  0.1253
13806TIP3    H162909   2.663   3.412  10.445  0.2741  0.6583  2.0099
13806TIP3    H262910   2.790   3.383  10.369 -0.7468 -0.9485  0.8310
13807TIP3   OH262911   6.443   3.915   1.277 -0.4123  0.2552 -0.0421
13807TIP3    H162912   6.528   3.906   1.234 -0.6427  1.3372 -0.7353
13807TIP3    H262913   6.464   3.951   1.363 -0.1567  0.2899 -0.1176
13808TIP3   OH262914   4.177   2.299  16.633 -0.1124 -0.0838 -0.0798
13808TIP3    H162915   4.117   2.369  16.608 -0.9177 -0.7633 -0.1215
13808TIP3    H262916   4.178   2.241  16.557 -0.4883 -0.7801  0.4292
13809TIP3   OH262917   5.804   1.709  16.110  0.1281  0.2840  0.2106
13809TIP3    H162918   5.714   1.730  16.086 -0.4500 -0.4906  1.5878
13809TIP3    H262919   5.857   1.771  16.061 -1.1136  0.3798 -1.0707
13810TIP3   OH262920   5.971   5.062   5.414 -0.2179  0.1968  0.5493
13810TIP3    H162921   6.035   5.121   5.374 -0.5148  0.6748  0.7619
13810TIP3    H262922   5.901   5.121   5.446 -0.3644 -0.2397  1.0517
13811TIP3   OH262923   6.105   5.915   5.085 -0.0330 -0.1184 -0.8001
13811TIP3    H162924   6.054   5.834   5.083  1.5458 -1.1808 -3.2635
13811TIP3    H262925   6.193   5.888   5.058  0.8894  2.2369 -0.3707
13812TIP3   OH262926   4.763   1.528  12.109 -0.6499  0.1276  0.0521
13812TIP3    H162927   4.682   1.478  12.104  0.3203 -1.6330  0.9235
13812TIP3    H262928   4.829   1.464  12.136  1.1667  1.3450 -1.2448
13813TIP3   OH262929   3.594   4.313  12.366  0.2397 -0.5640  0.6529
13813TIP3    H162930   3.648   4.378  12.410 -0.0026 -0.9320  1.5202
13813TIP3    H262931   3.656   4.258  12.318  0.3728  0.9233 -0.9826
13814TIP3   OH262932   2.101   1.063   1.287 -0.1683 -0.2389  0.4611
13814TIP3    H162933   2.126   1.124   1.218  0.2465 -0.5730  0.3147
13814TIP3    H262934   2.133   0.978   1.257  2.4336 -0.0133  2.2401
13815TIP3   OH262935   6.426   5.873   3.403  0.1478  0.6006 -0.6977
13815TIP3    H162936   6.386   5.932   3.466  0.5847 -0.7163  0.8791
13815TIP3    H262937   6.489   5.928   3.355  1.0003  1.3095  1.1449
13816TIP3   OH262938   4.495   6.555  14.484  0.1966  0.1265  0.1468
13816TIP3    H162939   4.546   6.486  14.527 -0.9684 -0.0371  1.3264
13816TIP3    H262940   4.479   6.522  14.395  1.1466 -0.3202  0.1324
13817TIP3   OH262941   3.049   2.991  17.030  0.0204 -0.0952  0.4189
13817TIP3    H162942   3.138   2.956  17.023 -0.0341 -0.1866  0.1988
13817TIP3    H262943   3.015   2.990  16.941 -0.1544  0.0640  0.4824
13818TIP3   OH262944   1.276   5.520   0.896  0.5151 -0.6899  0.3979
13818TIP3    H162945   1.367   5.497   0.876  0.2784 -1.2493 -0.0659
13818TIP3    H262946   1.276   5.535   0.990  1.1788 -0.2603  0.3384
13819TIP3   OH262947   4.324   6.015  14.320  0.3580 -0.6779 -0.1122
13819TIP3    H162948   4.263   5.989  14.251 -0.1883 -0.2038  0.1863
13819TIP3    H262949   4.319   5.944  14.384 -1.4158  0.2831  0.8880
13820TIP3   OH262950   2.510   4.972   4.046  0.1074  0.3592 -0.0262
13820TIP3    H162951   2.497   4.957   4.140 -0.8874  3.1071  0.3624
13820TIP3    H262952   2.431   4.937   4.005  0.5218 -0.8062  0.1518
13821TIP3   OH262953   2.802   2.231  14.128 -0.7702  0.5040  0.2354
13821TIP3    H162954   2.722   2.184  14.154 -0.7593  0.0739 -0.4716
13821TIP3    H262955   2.776   2.323  14.127 -1.1238  0.4082  0.4957
13822TIP3   OH262956   1.905   0.415  12.392 -0.5542 -0.1199  0.6518
13822TIP3    H162957   1.940   0.339  12.346 -0.1502 -0.4956  1.5519
13822TIP3    H262958   1.894   0.385  12.483 -1.5815  0.5160  0.7551
13823TIP3   OH262959   3.060   0.554  14.011  0.2205 -0.1891 -0.3743
13823TIP3    H162960   3.017   0.589  14.089  0.6619 -1.1158  0.3113
13823TIP3    H262961   3.150   0.538  14.040  0.7833  0.8160 -1.5005
13824TIP3   OH262962   6.778   5.264  15.463 -0.5701  0.2765 -0.0642
13824TIP3    H162963   6.872   5.253  15.450 -0.8101 -1.3565 -0.7221
13824TIP3    H262964   6.764   5.244  15.555 -0.4595 -1.2071 -0.3431
13825TIP3   OH262965   0.522   4.490  12.286 -0.4454  0.3297  0.1641
13825TIP3    H162966   0.502   4.428  12.357 -0.4186  0.3394  0.1809
13825TIP3    H262967   0.437   4.515  12.251 -0.3919 -1.2199 -1.1475
13826TIP3   OH262968   2.142   1.850   1.411 -0.6787  0.0740 -0.3335
13826TIP3    H162969   2.138   1.861   1.506  1.1522  1.8138 -0.3633
13826TIP3    H262970   2.120   1.937   1.377 -0.6559 -0.3583 -1.4683
13827TIP3   OH262971   1.803   0.445  16.923 -0.2215 -0.2944  0.5167
13827TIP3    H162972   1.716   0.418  16.951 -1.0704  0.3197 -1.3786
13827TIP3    H262973   1.792   0.473  16.832  1.9471 -0.1483  0.2383
13828TIP3   OH262974   4.136   3.758  15.755  0.4563 -0.8600 -0.5403
13828TIP3    H162975   4.045   3.753  15.726 -1.1886  1.2037  3.4538
13828TIP3    H262976   4.157   3.851  15.753  2.3569 -1.2527 -0.9114
13829TIP3   OH262977   4.481   2.334   3.211 -0.4454 -0.5772 -0.3901
13829TIP3    H162978   4.519   2.420   3.195  0.3577 -0.6548  0.9612
13829TIP3    H262979   4.393   2.352   3.244 -0.8060 -0.3347 -1.4515
13830TIP3   OH262980   5.197   3.484  13.327  0.2763  0.2335  0.5894
13830TIP3    H162981   5.249   3.431  13.267 -0.9924 -1.9834  1.3231
13830TIP3    H262982   5.183   3.567  13.282 -0.7416 -1.3701 -2.2633
13831TIP3   OH262983   1.346   2.504  15.108  0.1709 -0.1597 -0.1286
13831TIP3    H162984   1.256   2.519  15.138  0.1613  0.7097 -0.5653
13831TIP3    H262985   1.355   2.559  15.031  0.6733 -1.2298 -0.8610
13832TIP3   OH262986   5.561   0.478   4.554 -0.6640 -0.1866  0.3026
13832TIP3    H162987   5.588   0.442   4.469  0.6544  0.3535  0.4574
13832TIP3    H262988   5.603   0.421   4.619 -1.6746 -0.6037  0.6060
13833TIP3   OH262989   3.414   3.276   1.856 -0.2248 -0.7901  0.2838
13833TIP3    H162990   3.384   3.306   1.770 -0.8062 -3.1665 -0.3974
13833TIP3    H262991   3.421   3.181   1.848  0.2303 -1.0253  2.7113
13834TIP3   OH262992   1.507   0.956  11.748 -0.4560 -0.1458  0.1454
13834TIP3    H162993   1.581   0.919  11.796 -2.0708 -0.0275  2.9380
13834TIP3    H262994   1.523   1.050  11.750  0.0480 -0.2092 -0.5912
13835TIP3   OH262995   3.506   6.423   5.700  0.2549 -0.5607  0.1620
13835TIP3    H162996   3.506   6.493   5.766  1.5409  0.4349 -0.8555
13835TIP3    H262997   3.420   6.381   5.711  0.0065  0.2651  1.7305
13836TIP3   OH262998   6.268   4.454  15.481 -0.3723  0.0815 -0.5145
13836TIP3    H162999   6.331   4.506  15.431 -0.8629 -0.9587 -2.3047
13836TIP3    H263000   6.271   4.491  15.569  2.5299  0.2679 -0.5855
13837TIP3   OH263001   4.519   1.289  15.856 -0.2030  0.3539 -0.4923
13837TIP3    H163002   4.488   1.218  15.912  1.2568  0.3838  0.4296
13837TIP3    H263003   4.589   1.249  15.804 -0.4672  0.7306 -1.1522
13838TIP3   OH263004   4.077   5.242  15.972 -0.7858  0.9305  0.2416
13838TIP3    H163005   4.076   5.334  15.998  2.6651  1.3151 -0.5173
13838TIP3    H263006   4.095   5.243  15.878  0.6802 -0.4752  0.4638
13839TIP3   OH263007   5.977   2.138  13.288  0.1422 -0.2682 -0.2579
13839TIP3    H163008   6.046   2.192  13.249 -0.5779  1.3864  0.6304
13839TIP3    H263009   5.904   2.145  13.227  0.0995 -0.3433 -0.2142
13840TIP3   OH263010   5.070   4.395  11.857 -0.5978 -0.2617 -0.1948
13840TIP3    H163011   5.074   4.313  11.907  0.5265 -0.8704 -1.2509
13840TIP3    H263012   5.158   4.432  11.864 -1.0462  0.7759  0.1129
13841TIP3   OH263013   1.978   6.464  12.114  0.0719  0.0903 -0.3285
13841TIP3    H163014   2.070   6.475  12.090  0.3647  0.6598  0.9460
13841TIP3    H263015   1.979   6.460  12.210 -1.0045 -2.1036 -0.3580
13842TIP3   OH263016   1.017   2.906   2.215  0.6542  0.3187 -0.4210
13842TIP3    H163017   0.980   2.914   2.127 -0.5305  0.9428  0.1026
13842TIP3    H263018   1.045   2.994   2.238  0.6858  0.2195 -0.0712
13843TIP3   OH263019   6.751   5.812   3.560  0.1481  0.1984 -0.4312
13843TIP3    H163020   6.702   5.750   3.614  3.3721 -0.4839  2.0241
13843TIP3    H263021   6.764   5.766   3.477 -0.7128 -0.8648  0.0003
13844TIP3   OH263022   5.773   2.530  14.956  0.5374 -0.1424 -0.3172
13844TIP3    H163023   5.845   2.533  14.893  2.7671  1.0883  2.0897
13844TIP3    H263024   5.708   2.592  14.922  3.1116  3.0238  0.0540
13845TIP3   OH263025   3.730   1.521   0.577  0.0006  0.3698 -0.2339
13845TIP3    H163026   3.710   1.609   0.543 -1.7356  0.4054  0.7870
13845TIP3    H263027   3.800   1.536   0.641 -0.8493  1.1441  0.5316
13846TIP3   OH263028   5.776   6.356   4.802 -0.0734  0.1577  0.0365
13846TIP3    H163029   5.735   6.284   4.850  1.0234  0.2219  1.1210
13846TIP3    H263030   5.814   6.412   4.870 -1.4079  2.1230 -0.7333
13847TIP3   OH263031   4.955   5.910   0.288  0.0547 -0.4205  0.2807
13847TIP3    H163032   5.028   5.969   0.307  0.0757  0.0106 -1.0723
13847TIP3    H263033   4.927   5.879   0.375  1.2022  0.1608  0.8874
13848TIP3   OH263034   2.441   1.432  11.824 -0.9340 -0.0810  0.4099
13848TIP3    H163035   2.505   1.499  11.799  0.0146 -0.1812  2.3963
13848TIP3    H263036   2.486   1.349  11.810 -1.1943 -0.2069  0.3197
13849TIP3   OH263037   5.645   5.348   4.515 -0.1023 -0.2641  0.2110
13849TIP3    H163038   5.662   5.341   4.609  1.8232  0.1578 -0.0557
13849TIP3    H263039   5.730   5.375   4.478 -1.1388  0.7978 -1.5023
13850TIP3   OH263040   2.770   6.683   0.889  0.3225 -0.6317 -0.1331
13850TIP3    H163041   2.751   6.726   0.806  0.8365 -1.5944 -0.7627
13850TIP3    H263042   2.836   6.740   0.930 -0.3294  0.1331 -0.1274
13851TIP3   OH263043   6.637   2.990  14.387 -0.3049 -0.5818 -0.1299
13851TIP3    H163044   6.548   2.960  14.370  1.1727 -3.8190 -3.7743
13851TIP3    H263045   6.657   3.048  14.313  0.0755  1.9104  1.7877
13852TIP3   OH263046   2.969   0.577   3.625 -0.5197 -0.3627 -0.3186
13852TIP3    H163047   3.019   0.507   3.666  0.6539  0.4614 -0.2590
13852TIP3    H263048   2.895   0.534   3.584 -0.7514 -1.4233  1.1448
13853TIP3   OH263049   6.095   3.283  12.115  0.0947 -0.6263  0.1682
13853TIP3    H163050   6.026   3.307  12.053  1.2509 -0.1457 -0.9925
13853TIP3    H263051   6.075   3.193  12.140  0.0339 -1.1399 -1.5719
13854TIP3   OH263052   3.032   1.455   0.611 -0.6033  0.3300  0.0804
13854TIP3    H163053   3.078   1.448   0.695 -1.4431 -1.0716  0.4540
13854TIP3    H263054   3.093   1.417   0.547 -1.8958 -3.5123  0.8792
13855TIP3   OH263055   3.563   2.029  11.434  0.2763 -0.0347 -0.7003
13855TIP3    H163056   3.487   1.997  11.385  1.6143 -2.1504 -1.4971
13855TIP3    H263057   3.532   2.111  11.474 -2.3842 -0.7727 -1.0455
13856TIP3   OH263058   4.288   5.660   4.155  0.5861  0.1387 -0.4637
13856TIP3    H163059   4.222   5.607   4.201  2.5223 -2.4250 -0.4146
13856TIP3    H263060   4.271   5.644   4.062  1.4728 -1.0820 -0.4447
13857TIP3   OH263061   4.730   5.690  12.540 -0.6705 -0.0341 -0.3194
13857TIP3    H163062   4.747   5.690  12.635  1.1272  0.0413 -0.6192
13857TIP3    H263063   4.647   5.736  12.531 -0.5985  0.4403  1.1863
13858TIP3   OH263064   3.463   4.744   1.464  0.5216 -0.3297  0.4527
13858TIP3    H163065   3.558   4.747   1.451  0.2426 -0.5417 -2.3389
13858TIP3    H263066   3.432   4.832   1.442 -0.1900 -1.1641 -2.2141
13859TIP3   OH263067   3.902   4.870  15.225 -0.0789  0.4415 -0.3914
13859TIP3    H163068   3.937   4.791  15.266  0.0654 -0.0315 -1.4017
13859TIP3    H263069   3.972   4.935  15.235  0.8540 -0.3057 -1.8141
13860TIP3   OH263070   2.413   2.387  12.479 -0.2878 -0.4072  0.2520
13860TIP3    H163071   2.345   2.363  12.542 -1.6405  0.4696 -0.8034
13860TIP3    H263072   2.406   2.321  12.409  0.3878 -0.6749  0.4260
13861TIP3   OH263073   6.402   5.905   0.277  0.6634  0.1328 -0.7223
13861TIP3    H163074   6.453   5.824   0.273  0.9017  0.2186  0.3378
13861TIP3    H263075   6.427   5.953   0.197  0.7963 -0.6678 -1.1691
13862TIP3   OH263076   5.288   3.727  13.945 -0.2047 -0.3153 -0.1666
13862TIP3    H163077   5.241   3.800  13.985 -1.1585 -1.0037  0.0137
13862TIP3    H263078   5.380   3.743  13.965 -0.4966  0.2941  0.7510
13863TIP3   OH263079   0.459   1.089   0.993  0.3213 -0.6347 -0.4720
13863TIP3    H163080   0.488   1.124   1.077  1.1180 -0.5659 -0.7634
13863TIP3    H263081   0.470   1.161   0.931 -0.1979 -0.7028 -0.6522
13864TIP3   OH263082   5.393   2.654  11.607  0.3019  0.5797 -0.1323
13864TIP3    H163083   5.341   2.650  11.527  0.6835 -0.5363 -0.3390
13864TIP3    H263084   5.465   2.593  11.592  1.2417  1.4899  0.4679
13865TIP3   OH263085   2.965   3.363   1.053  0.4723 -0.0284 -0.3768
13865TIP3    H163086   2.966   3.278   1.009 -0.0392  0.2040 -0.8660
13865TIP3    H263087   2.882   3.403   1.025  1.2839  1.1658 -1.2096
13866TIP3   OH263088   3.496   4.810   4.552  0.1801 -0.5634 -0.0562
13866TIP3    H163089   3.430   4.744   4.530  0.1030 -0.2536 -0.7976
13866TIP3    H263090   3.579   4.762   4.554 -0.0026 -0.8655  0.4040
13867TIP3   OH263091   1.201   1.473   2.068 -0.4170 -0.1746 -0.1877
13867TIP3    H163092   1.168   1.534   2.002 -0.8933  0.3390  0.5131
13867TIP3    H263093   1.129   1.463   2.130 -0.1981 -1.1448 -0.0723
13868TIP3   OH263094   6.098   4.661  14.312  0.4437  0.4955  0.2526
13868TIP3    H163095   6.102   4.608  14.392 -2.0418  0.7048  0.5806
13868TIP3    H263096   6.018   4.713  14.321 -0.6048 -0.3549 -2.9113
13869TIP3   OH263097   2.983   2.126  15.955  0.8942  0.2717 -0.1444
13869TIP3    H163098   2.924   2.100  16.025  2.6608  0.6427  1.5834
13869TIP3    H263099   2.929   2.181  15.898 -1.4467 -2.6365 -0.9310
13870TIP3   OH263100   0.241   5.972   2.364  0.2936 -0.2804  0.4017
13870TIP3    H163101   0.318   5.974   2.307 -0.9458 -1.2386 -1.4327
13870TIP3    H263102   0.182   6.037   2.326 -0.4394 -0.7029  0.7959
13871TIP3   OH263103   1.120   3.543  13.176 -0.9050  0.6213  0.0939
13871TIP3    H163104   1.121   3.447  13.184 -0.9807  0.6124 -0.0050
13871TIP3    H263105   1.101   3.559  13.083  1.1951  0.7038 -0.3918
13872TIP3   OH263106   3.402   0.370   5.756  0.3913 -0.2863 -0.2372
13872TIP3    H163107   3.396   0.369   5.851 -0.5668 -1.2139 -0.2838
13872TIP3    H263108   3.491   0.340   5.737 -0.1209 -2.3649  0.3673
13873TIP3   OH263109   1.853   4.313   0.215  0.8744 -0.3769  0.2250
13873TIP3    H163110   1.939   4.355   0.224  0.3968  0.6865  0.0196
13873TIP3    H263111   1.793   4.374   0.258  0.0035 -0.3095 -1.0555
13874TIP3   OH263112   2.342   3.739  14.112 -0.0359  0.1448  0.0583
13874TIP3    H163113   2.379   3.820  14.147  0.9163 -0.2621  0.0254
13874TIP3    H263114   2.254   3.734  14.150  0.0358  1.0000  0.3523
13875TIP3   OH263115   4.676   5.071  15.059  0.1274 -0.8794  0.3611
13875TIP3    H163116   4.658   5.151  15.108  0.4169 -0.9493  0.5809
13875TIP3    H263117   4.662   5.095  14.967  0.2695 -0.5617  0.4226
13876TIP3   OH263118   0.569   4.557  13.324  0.2186  0.1391  0.7102
13876TIP3    H163119   0.620   4.495  13.376  0.4124  1.5321  2.2702
13876TIP3    H263120   0.603   4.643  13.349  0.3952  0.9021 -1.8454
13877TIP3   OH263121   3.887   6.820  11.881 -0.4044 -0.5042  0.4249
13877TIP3    H163122   3.909   6.908  11.910  1.2383  1.2431 -4.9645
13877TIP3    H263123   3.797   6.807  11.910 -0.2168  2.2219  2.7130
13878TIP3   OH263124   0.252   0.560  12.724  0.1288 -0.4023 -0.0290
13878TIP3    H163125   0.212   0.624  12.783  1.6747  1.5799 -0.9988
13878TIP3    H263126   0.187   0.491  12.716 -2.4355  1.8707 -0.2835
13879TIP3   OH263127   2.547   3.178   4.427  0.0511  0.0098  0.3409
13879TIP3    H163128   2.467   3.190   4.375 -0.5554 -1.9597  0.7333
13879TIP3    H263129   2.525   3.108   4.489  1.5118  0.6860  1.6852
13880TIP3   OH263130   1.850   6.549  13.327 -0.5839  0.7879  0.1353
13880TIP3    H163131   1.778   6.495  13.361 -0.4904  0.6979  0.1901
13880TIP3    H263132   1.832   6.637  13.361 -0.0708  0.5438  1.0677
13881TIP3   OH263133   4.143   6.364   1.042 -0.0929 -0.1474 -0.2815
13881TIP3    H163134   4.106   6.452   1.039  0.6964  0.2046  0.1041
13881TIP3    H263135   4.223   6.368   0.990  0.5432 -0.3261  0.6394
13882TIP3   OH263136   1.684   4.558  14.585 -0.1752 -0.4280 -0.6666
13882TIP3    H163137   1.634   4.480  14.559  2.4655 -1.6821 -2.4822
13882TIP3    H263138   1.692   4.551  14.680 -2.2509 -0.8712 -0.4779
13883TIP3   OH263139   0.911   0.701  12.078 -0.1884  0.5396  0.0990
13883TIP3    H163140   1.005   0.715  12.071 -0.0776 -0.3766 -0.3204
13883TIP3    H263141   0.885   0.667  11.992 -0.8671  0.5798  0.2773
13884TIP3   OH263142   4.844   1.551   4.735  0.3372  0.3544  0.3686
13884TIP3    H163143   4.771   1.494   4.710  1.2921 -1.3440  1.2536
13884TIP3    H263144   4.802   1.627   4.775 -0.9766 -1.0188  1.7206
13885TIP3   OH263145   2.439   3.222  11.065 -0.3054 -0.2343  0.3115
13885TIP3    H163146   2.533   3.223  11.048 -0.3393  0.3906  0.1213
13885TIP3    H263147   2.429   3.269  11.147 -0.4783 -0.0467  0.1841
13886TIP3   OH263148   6.531   0.630  15.695 -0.5302  0.0359  0.0519
13886TIP3    H163149   6.564   0.719  15.685 -1.6185  0.2479 -2.1668
13886TIP3    H263150   6.441   0.640  15.724 -0.5924 -0.3537  0.0060
13887TIP3   OH263151   5.555   3.214  14.321  0.0548 -0.1147  0.6555
13887TIP3    H163152   5.647   3.186  14.328  0.3199  0.5400 -0.0615
13887TIP3    H263153   5.516   3.189  14.405  0.5762 -1.5068  0.5107
13888TIP3   OH263154   4.793   2.001   3.122 -0.1607  0.3917 -0.1603
13888TIP3    H163155   4.720   1.999   3.184  0.1742  1.0536  0.2621
13888TIP3    H263156   4.797   2.092   3.093 -2.1466 -0.3545 -3.3807
13889TIP3   OH263157   4.731   0.121   1.335 -0.2479  0.2750 -0.0808
13889TIP3    H163158   4.698   0.068   1.263  1.0596 -1.9031  0.8344
13889TIP3    H263159   4.792   0.064   1.381 -0.6329  1.7624  2.4524
13890TIP3   OH263160   1.078   6.124   6.620 -0.2986  1.0119  0.6972
13890TIP3    H163161   1.069   6.029   6.618  0.3022  0.9401 -1.8706
13890TIP3    H263162   0.991   6.156   6.646 -1.2316 -0.1996 -0.7734
13891TIP3   OH263163   4.656   5.506  16.369  0.1121 -0.1865  0.4740
13891TIP3    H163164   4.741   5.523  16.328 -0.5659  0.9419 -0.5562
13891TIP3    H263165   4.618   5.435  16.317  0.6790 -1.1672  1.3598
13892TIP3   OH263166   3.451   4.994   0.819  0.2279 -0.6015  0.3439
13892TIP3    H163167   3.522   4.931   0.832  0.4780 -0.9718 -2.2560
13892TIP3    H263168   3.455   5.051   0.896  3.1383 -0.8337  0.4958
13893TIP3   OH263169   3.318   5.829  12.898  0.1841  0.2381 -0.3877
13893TIP3    H163170   3.335   5.854  12.989 -0.9425  0.7009 -0.2814
13893TIP3    H263171   3.247   5.887  12.870  0.3219 -0.0917 -1.4771
13894TIP3   OH263172   6.477   4.423  14.580  0.3122 -0.2155 -0.4391
13894TIP3    H163173   6.551   4.480  14.560 -0.8302  0.4849 -3.1911
13894TIP3    H263174   6.420   4.476  14.636  0.0039  0.8227 -1.6842
13895TIP3   OH263175   5.287   3.581   5.873 -0.0132  0.0720  0.0448
13895TIP3    H163176   5.272   3.497   5.916 -0.8730 -0.1645 -0.6949
13895TIP3    H263177   5.217   3.637   5.906  1.2628  0.8932  1.4813
13896TIP3   OH263178   2.202   5.832  15.960 -0.1753 -0.2676  0.7195
13896TIP3    H163179   2.269   5.853  15.895 -0.4592  1.2051  0.8757
13896TIP3    H263180   2.250   5.827  16.043  0.1542 -1.9514  0.4690
13897TIP3   OH263181   4.868   5.658   1.891 -0.7190 -0.2072 -0.2285
13897TIP3    H163182   4.927   5.719   1.935 -1.9589  0.6281  0.3359
13897TIP3    H263183   4.837   5.600   1.961 -1.3893  0.0483 -0.3040
13898TIP3   OH263184   0.772   6.617   4.828 -0.7108  0.0909  0.3678
13898TIP3    H163185   0.703   6.643   4.766 -0.2669  1.1696  0.3029
13898TIP3    H263186   0.852   6.656   4.792 -0.5868  1.5033  2.0420
13899TIP3   OH263187   6.005   1.434  13.217  0.6870  0.1419  0.2344
13899TIP3    H163188   6.081   1.414  13.271  0.1412  0.6328  1.2005
13899TIP3    H263189   6.041   1.475  13.139  1.3465  1.6044  1.2676
13900TIP3   OH263190   1.023   6.280  12.038 -0.3527 -0.7835  0.4658
13900TIP3    H163191   1.056   6.325  12.116  0.5899 -2.1374  0.8796
13900TIP3    H263192   1.093   6.291  11.973 -1.0574  0.1835 -0.1662
13901TIP3   OH263193   1.684   4.732   4.656 -0.4432 -0.2273 -0.3958
13901TIP3    H163194   1.610   4.742   4.717  0.4986 -1.0084  0.9268
13901TIP3    H263195   1.662   4.789   4.583 -1.5560  0.8686  0.7366
13902TIP3   OH263196   5.166   2.915  16.328 -0.0370  0.3121  0.0384
13902TIP3    H163197   5.247   2.872  16.300 -0.0962  1.4681 -2.1003
13902TIP3    H263198   5.193   2.975  16.397  0.0172 -3.1007  3.3348
13903TIP3   OH263199   6.584   4.251   2.289 -0.1340 -0.0385 -0.0023
13903TIP3    H163200   6.542   4.331   2.319  0.3605  0.3312 -0.2770
13903TIP3    H263201   6.568   4.249   2.195  1.1450  0.5453 -0.2572
13904TIP3   OH263202   5.984   0.811  14.731 -0.2239  0.1924  0.5357
13904TIP3    H163203   5.953   0.724  14.707  1.1412  0.0429 -0.8364
13904TIP3    H263204   6.014   0.850  14.648  1.5664  0.9648  1.4876
13905TIP3   OH263205   6.316   3.728   0.465 -0.2054 -0.0726  0.0187
13905TIP3    H163206   6.262   3.713   0.542 -0.3391  2.4343  0.4917
13905TIP3    H263207   6.382   3.659   0.467  0.2297  0.3359  2.7730
13906TIP3   OH263208   1.514   5.514   0.525  0.0555  0.1021 -0.0085
13906TIP3    H163209   1.470   5.459   0.590  2.4752 -1.4794  0.4247
13906TIP3    H263210   1.505   5.603   0.558 -1.3381 -0.3391  0.8887
13907TIP3   OH263211   2.309   2.721  13.647 -0.1073 -0.2387  0.1134
13907TIP3    H163212   2.251   2.657  13.606  0.8921 -0.7718 -0.5144
13907TIP3    H263213   2.347   2.674  13.722 -1.3614  0.4927  1.2562
13908TIP3   OH263214   4.909   3.201   3.000  0.6027 -0.1590 -0.0555
13908TIP3    H163215   4.997   3.181   2.969  1.0814  0.3281  0.9135
13908TIP3    H263216   4.852   3.178   2.928  1.5360 -0.4065 -0.7373
13909TIP3   OH263217   4.830   4.775   3.640  0.1517  0.1138  0.5094
13909TIP3    H163218   4.887   4.776   3.564 -0.1310  0.3843  0.2979
13909TIP3    H263219   4.827   4.683   3.666  1.5869  0.2431  1.2192
13910TIP3   OH263220   6.161   2.883  16.299 -0.3333  0.0547  0.0236
13910TIP3    H163221   6.219   2.935  16.356  0.3318  0.4431 -0.9684
13910TIP3    H263222   6.073   2.916  16.317 -0.0323  0.7735  0.2037
13911TIP3   OH263223   5.773   2.116  11.817  0.0161  0.2560  0.1198
13911TIP3    H163224   5.685   2.095  11.846  0.3580  0.0092  1.0045
13911TIP3    H263225   5.774   2.092  11.724 -1.2267  1.4851 -0.2321
13912TIP3   OH263226   0.849   4.760  12.681  0.3627  0.2728  0.3751
13912TIP3    H163227   0.905   4.686  12.656 -1.4598 -0.5088 -1.6570
13912TIP3    H263228   0.761   4.724  12.684 -0.3131  1.9046  1.5496
13913TIP3   OH263229   1.210   3.095   6.089 -0.3260 -0.7539  0.5518
13913TIP3    H163230   1.140   3.055   6.037 -0.0813  1.4023 -1.6085
13913TIP3    H263231   1.285   3.098   6.031  0.0480  1.5493  1.0450
13914TIP3   OH263232   6.733   0.889  16.378  0.3909  0.8214  0.5120
13914TIP3    H163233   6.673   0.931  16.439 -0.8190 -0.2726  0.1363
13914TIP3    H263234   6.753   0.805  16.419  1.0242  0.8454  0.2542
13915TIP3   OH263235   6.621   3.581   4.639 -0.2242  0.0321 -0.5262
13915TIP3    H163236   6.651   3.491   4.634 -2.8345 -1.0486  1.1578
13915TIP3    H263237   6.687   3.626   4.693  0.9184 -0.9182 -1.0970
13916TIP3   OH263238   2.212   2.670   1.562  0.1712  0.5297  0.1851
13916TIP3    H163239   2.182   2.608   1.497  2.2293  0.7747 -1.0936
13916TIP3    H263240   2.154   2.746   1.552 -1.1806 -0.4363  0.4942
13917TIP3   OH263241   5.530   3.830  16.555  0.0386 -0.1978  0.3635
13917TIP3    H163242   5.522   3.804  16.646  1.2712  0.7031  0.7604
13917TIP3    H263243   5.502   3.921  16.553  1.6174  0.3080  0.1867
13918TIP3   OH263244   3.316   4.972  13.008  0.0124 -0.4131 -0.7865
13918TIP3    H163245   3.275   4.893  13.043  1.8179 -1.1949 -0.3111
13918TIP3    H263246   3.357   5.013  13.085 -3.0468  2.4987 -0.4527
13919TIP3   OH263247   6.379   0.291   1.616  0.5602 -0.1917  0.5179
13919TIP3    H163248   6.447   0.318   1.678  1.4154 -1.1238  0.0102
13919TIP3    H263249   6.407   0.330   1.533 -0.2683  0.5651  0.5848
13920TIP3   OH263250   5.508   4.883   3.444  0.5510  0.1697 -0.7563
13920TIP3    H163251   5.506   4.787   3.446 -0.3829  0.1753 -0.8557
13920TIP3    H263252   5.584   4.904   3.390  1.2202 -0.4955 -0.0977
13921TIP3   OH263253   3.510   4.345  16.781 -0.3297 -0.0887 -0.2907
13921TIP3    H163254   3.589   4.361  16.728 -0.1186 -1.6784 -0.5007
13921TIP3    H263255   3.538   4.361  16.871  0.2538 -0.6532 -0.3616
13922TIP3   OH263256   1.426   2.959   0.086 -0.1816 -0.2689 -0.6470
13922TIP3    H163257   1.359   2.961   0.155 -0.4388  0.6985 -0.9098
13922TIP3    H263258   1.503   2.999   0.127 -0.6131  1.1537 -1.1896
13923TIP3   OH263259   0.756   1.137  13.200 -0.2554 -0.8074  0.1789
13923TIP3    H163260   0.846   1.126  13.168  0.4497 -0.6772  2.0052
13923TIP3    H263261   0.720   1.048  13.199 -0.0428 -0.8901 -0.3945
13924TIP3   OH263262   5.028   3.319   2.722  0.3489 -0.6803 -0.1843
13924TIP3    H163263   5.102   3.288   2.774  0.5147 -1.3010 -0.7754
13924TIP3    H263264   4.970   3.362   2.786  1.7552  0.8670  0.1134
13925TIP3   OH263265   0.211   1.397   0.444  1.0030 -0.1141 -0.2953
13925TIP3    H163266   0.169   1.463   0.390  0.3403 -0.2216  0.0717
13925TIP3    H263267   0.183   1.313   0.406 -1.6127 -0.2553  1.7080
13926TIP3   OH263268   1.848   2.038   4.323  0.1417  0.3246  0.4026
13926TIP3    H163269   1.840   1.944   4.334  0.8719  0.0593 -1.0748
13926TIP3    H263270   1.760   2.068   4.301  0.0503 -0.1255  0.1563
13927TIP3   OH263271   1.091   2.719   5.616 -0.2092  0.4994  0.5229
13927TIP3    H163272   1.102   2.803   5.662  0.6873  0.2351  0.8069
13927TIP3    H263273   1.014   2.680   5.656 -1.0179  1.4596 -0.0382
13928TIP3   OH263274   0.234   2.594   1.108  0.4008  0.0547 -0.0071
13928TIP3    H163275   0.252   2.678   1.150  1.6235  0.1607 -0.6809
13928TIP3    H263276   0.289   2.531   1.155  1.1919  0.0400 -0.9060
13929TIP3   OH263277   4.568   4.945   1.261 -0.2424 -0.5237  0.1072
13929TIP3    H163278   4.483   4.982   1.283  0.0355  1.1044 -1.3749
13929TIP3    H263279   4.613   4.938   1.346 -0.7407  1.5289  0.6013
13930TIP3   OH263280   4.962   2.202  10.770 -0.2824  0.2112 -0.1906
13930TIP3    H163281   4.925   2.187  10.683 -1.2577 -0.2661  0.2866
13930TIP3    H263282   4.940   2.122  10.819 -2.0604  1.5117  1.2641
13931TIP3   OH263283   2.807   0.657   1.065 -0.0943 -0.0550 -0.1306
13931TIP3    H163284   2.804   0.614   0.979  1.1973  1.9553 -1.2564
13931TIP3    H263285   2.880   0.616   1.110 -0.2310 -0.5241 -0.3287
13932TIP3   OH263286   0.591   0.677   0.422  0.1214 -0.0083 -0.4919
13932TIP3    H163287   0.619   0.700   0.511 -1.0063  0.6552 -0.2797
13932TIP3    H263288   0.644   0.732   0.365  0.0896  0.3665 -0.1678
13933TIP3   OH263289   2.574   5.762  15.071 -0.2769 -0.9444  0.1524
13933TIP3    H163290   2.486   5.739  15.100 -0.7644 -0.1232 -0.6125
13933TIP3    H263291   2.567   5.765  14.975  0.4713 -0.4530  0.1044
13934TIP3   OH263292   1.109   4.041   3.461  0.1703  0.3266  0.1803
13934TIP3    H163293   1.037   4.045   3.524  0.6289  0.6776  0.7009
13934TIP3    H263294   1.153   4.126   3.470  1.3266 -0.3035  0.7002
13935TIP3   OH263295   5.018   5.971  16.766 -0.2619 -0.2143 -0.0060
13935TIP3    H163296   5.068   5.892  16.787 -1.3941 -1.5615 -2.0260
13935TIP3    H263297   5.082   6.031  16.728  0.4769 -0.4085  0.8973
13936TIP3   OH263298   0.538   1.474  15.637  0.4894 -0.8442 -0.1314
13936TIP3    H163299   0.616   1.518  15.671 -1.3189  4.0449 -1.5020
13936TIP3    H263300   0.552   1.382  15.658  4.7844  0.2165  3.1157
13937TIP3   OH263301   3.940   0.810  11.482  0.2343 -0.4796  0.1381
13937TIP3    H163302   3.916   0.780  11.395  0.0849 -0.8789  0.3144
13937TIP3    H263303   3.999   0.742  11.516  0.8545  0.0222  0.0760
13938TIP3   OH263304   0.154   1.278   0.150 -0.5418 -0.0368  0.5609
13938TIP3    H163305   0.226   1.320   0.103 -0.2442 -1.0766  0.0616
13938TIP3    H263306   0.082   1.276   0.086 -0.1360 -1.4560  0.1122
13939TIP3   OH263307   6.588   4.797  12.099 -0.6416  0.0228 -0.0932
13939TIP3    H163308   6.552   4.708  12.103  0.3732 -0.4409 -0.8682
13939TIP3    H263309   6.613   4.809  12.008  0.4453  0.6055  0.2602
13940TIP3   OH263310   6.150   5.435  11.159  0.3641  0.1070  0.8356
13940TIP3    H163311   6.127   5.383  11.081 -0.5192  0.9430  0.5234
13940TIP3    H263312   6.220   5.493  11.128  0.6373 -0.1849  0.9063
13941TIP3   OH263313   1.926   0.733  12.451  0.2174 -0.1844  0.0665
13941TIP3    H163314   1.872   0.657  12.427  0.4429 -0.2643 -0.1887
13941TIP3    H263315   1.991   0.739  12.382  1.5233 -1.0474  1.1598
13942TIP3   OH263316   4.073   3.848   5.602 -0.0256  0.4015 -0.2244
13942TIP3    H163317   4.021   3.925   5.580  1.3075  0.8075 -2.2859
13942TIP3    H263318   4.034   3.777   5.551 -0.0165  0.1662  0.0945
13943TIP3   OH263319   1.820   5.491  14.074 -0.2527  0.2528 -0.7293
13943TIP3    H163320   1.873   5.509  13.997  0.9707  1.3096  0.3211
13943TIP3    H263321   1.768   5.415  14.050 -0.6773  1.1761 -2.9574
13944TIP3   OH263322   0.569   6.457  14.056 -0.7180  0.5333  0.5824
13944TIP3    H163323   0.514   6.378  14.048 -0.8983  0.8024 -1.6736
13944TIP3    H263324   0.653   6.424  14.086 -0.2814 -0.8387 -1.8635
13945TIP3   OH263325   4.083   1.707  16.928 -0.2261  0.0401 -0.0457
13945TIP3    H163326   4.156   1.731  16.871  0.8315  0.5619  1.4401
13945TIP3    H263327   4.015   1.676  16.869  2.4005 -3.9287 -1.3973
13946TIP3   OH263328   6.224   2.487  11.764 -0.2104  0.2763  0.0961
13946TIP3    H163329   6.268   2.402  11.764  0.0387  0.3872 -1.2958
13946TIP3    H263330   6.153   2.477  11.701 -1.0080  0.7100  0.8979
13947TIP3   OH263331   0.635   4.352  11.340 -0.1879  0.0153  0.7114
13947TIP3    H163332   0.593   4.321  11.420  0.9258 -1.2105  0.8556
13947TIP3    H263333   0.710   4.294  11.328  0.6070  1.1956 -0.3375
13948TIP3   OH263334   0.649   3.307   4.244 -0.8632  0.2981  0.0722
13948TIP3    H163335   0.730   3.333   4.290  0.2060  0.7390 -1.9413
13948TIP3    H263336   0.648   3.212   4.249 -0.2465  0.2915  0.2005
13949TIP3   OH263337   2.480   3.425   6.855 -0.4791 -0.6346  0.7133
13949TIP3    H163338   2.468   3.503   6.800  2.1831 -0.1122  0.7552
13949TIP3    H263339   2.449   3.452   6.942 -3.1828 -0.9494 -0.0527
13950TIP3   OH263340   3.611   6.415   1.073  0.3091 -0.1992 -0.2021
13950TIP3    H163341   3.524   6.449   1.096  0.1733  0.8581 -2.0662
13950TIP3    H263342   3.593   6.333   1.028  0.4165 -0.8931  0.9762
13951TIP3   OH263343   0.679   5.734   4.000 -0.2551  0.0400 -0.1577
13951TIP3    H163344   0.720   5.764   3.918  1.4523 -0.6512  0.3961
13951TIP3    H263345   0.718   5.791   4.067  1.8764 -2.2796  0.7145
13952TIP3   OH263346   5.316   1.140  14.966 -0.1615 -0.2676  0.3097
13952TIP3    H163347   5.268   1.205  15.019 -1.3656 -0.1349 -0.8923
13952TIP3    H263348   5.371   1.094  15.030 -0.4132  0.9160  1.4318
13953TIP3   OH263349   6.008   2.111  10.656 -0.0510 -0.1693  0.5014
13953TIP3    H163350   6.055   2.106  10.573 -2.4176 -2.3441 -0.8641
13953TIP3    H263351   5.924   2.151  10.634 -0.2251  0.4306  2.1237
13954TIP3   OH263352   4.051   4.183   3.544  0.5053 -0.2848  0.2211
13954TIP3    H163353   3.996   4.247   3.498 -0.7798  0.3490  2.4847
13954TIP3    H263354   4.138   4.221   3.543  0.2848  0.2299 -0.7111
13955TIP3   OH263355   3.201   0.106  15.567  0.1837  0.2935 -0.0278
13955TIP3    H163356   3.148   0.026  15.566 -0.1257  0.5010 -0.5372
13955TIP3    H263357   3.284   0.080  15.526 -0.2624  0.4607 -1.0652
13956TIP3   OH263358   5.899   4.117  11.632 -0.2904  0.1424  0.3898
13956TIP3    H163359   5.989   4.144  11.615 -0.3094  1.1463  1.7437
13956TIP3    H263360   5.858   4.118  11.545  1.2636 -1.5061 -0.4296
13957TIP3   OH263361   3.612   0.948  12.385 -0.0108 -0.1780 -0.2571
13957TIP3    H163362   3.681   0.928  12.321 -0.4112  0.0692 -0.7702
13957TIP3    H263363   3.563   0.866  12.392  0.5991 -0.4988  0.4565
13958TIP3   OH263364   1.891   0.504   3.184  0.1286  0.1106 -0.0151
13958TIP3    H163365   1.888   0.551   3.267 -0.8864  0.5702 -0.2956
13958TIP3    H263366   1.863   0.568   3.119  1.2621 -0.1352 -0.7740
13959TIP3   OH263367   4.720   3.243   2.796  0.0435 -0.0751 -0.1507
13959TIP3    H163368   4.677   3.165   2.763 -0.2063 -0.6368  1.3883
13959TIP3    H263369   4.650   3.309   2.800  0.2551  0.2379 -1.4509
13960TIP3   OH263370   3.872   5.793  14.026  0.4595  0.9119 -0.4499
13960TIP3    H163371   3.891   5.794  13.932 -3.0337  0.2116 -1.3122
13960TIP3    H263372   3.930   5.726  14.062 -0.2257 -1.0413 -2.7237
13961TIP3   OH263373   3.743   4.600  13.500  0.5355  0.7940 -0.1401
13961TIP3    H163374   3.814   4.651  13.463  0.0555  2.1257  0.6950
13961TIP3    H263375   3.665   4.654  13.486  0.2152  1.0120  2.0260
13962TIP3   OH263376   6.219   0.557   1.587 -0.0803 -0.4358  0.1832
13962TIP3    H163377   6.260   0.507   1.657  1.5232  1.0374  0.3652
13962TIP3    H263378   6.147   0.605   1.631  0.0646 -0.5448  0.5439
13963TIP3   OH263379   5.671   4.372   5.281 -0.4920  0.1651 -0.1624
13963TIP3    H163380   5.678   4.437   5.212 -0.8589 -0.8225 -1.1554
13963TIP3    H263381   5.599   4.404   5.337  0.2821  1.3368  0.1993
13964TIP3   OH263382   3.200   2.393  10.501 -0.8318  0.4581  0.0284
13964TIP3    H163383   3.179   2.301  10.490  0.3036  0.1399  0.3952
13964TIP3    H263384   3.295   2.398  10.488 -0.7377  1.4258  0.9434
13965TIP3   OH263385   6.539   6.387  17.092  0.1618 -0.3394  0.2752
13965TIP3    H163386   6.575   6.476  17.096 -3.6888  1.5726 -1.7028
13965TIP3    H263387   6.590   6.343  17.024  1.7156  0.5046  0.8357
13966TIP3   OH263388   1.715   4.564  16.697  0.3755  0.5542  0.1698
13966TIP3    H163389   1.678   4.523  16.619  0.7524  0.7784 -0.1337
13966TIP3    H263390   1.805   4.532  16.700  0.0935 -0.2294  1.0695
13967TIP3   OH263391   4.599   3.702   0.505 -0.2272  0.2538  0.9245
13967TIP3    H163392   4.690   3.687   0.480 -0.2845 -0.6849  1.2197
13967TIP3    H263393   4.553   3.716   0.422 -0.1793 -1.4388  0.5848
13968TIP3   OH263394   6.482   6.577   2.111 -0.3326  0.2974  0.4634
13968TIP3    H163395   6.443   6.510   2.167  0.8376 -0.1180  0.8106
13968TIP3    H263396   6.512   6.644   2.173  1.7475 -0.5653  0.4568
13969TIP3   OH263397   6.074   0.222  16.070 -0.1955 -0.0020  0.3664
13969TIP3    H163398   5.989   0.266  16.071 -0.3078 -0.1601 -0.6613
13969TIP3    H263399   6.131   0.279  16.121 -1.5271 -1.2606  3.4713
13970TIP3   OH263400   5.024   1.068   0.099 -0.2998 -0.1208 -0.1209
13970TIP3    H163401   4.976   0.988   0.120 -0.4485 -0.1779 -0.6562
13970TIP3    H263402   5.016   1.122   0.177  0.5070 -0.9541  0.5700
13971TIP3   OH263403   4.009   1.146   0.981  0.5100 -0.1208  0.1015
13971TIP3    H163404   3.958   1.099   0.915 -0.5030  1.8753 -0.6124
13971TIP3    H263405   3.971   1.119   1.065  0.3514 -1.0045 -0.2421
13972TIP3   OH263406   1.911   2.247   2.250 -0.4050 -0.6504 -0.9819
13972TIP3    H163407   1.850   2.284   2.314  0.4026 -0.3394 -0.3746
13972TIP3    H263408   1.946   2.323   2.204  0.4419 -0.7241 -0.4780
13973TIP3   OH263409   5.248   5.764  12.860  0.1439 -0.3236  0.4030
13973TIP3    H163410   5.167   5.778  12.811  0.0770 -0.5585  0.4430
13973TIP3    H263411   5.230   5.685  12.912  0.4073 -0.3911  0.3911
13974TIP3   OH263412   4.938   1.016  15.530  0.1348  0.3451 -0.6725
13974TIP3    H163413   4.919   0.954  15.459  0.9812 -1.2735  0.4636
13974TIP3    H263414   4.962   0.962  15.604  0.0263  2.0325  0.6599
13975TIP3   OH263415   1.715   0.374  14.816  0.4852 -0.2652  0.0149
13975TIP3    H163416   1.688   0.437  14.883 -2.3553 -1.6259  0.2987
13975TIP3    H263417   1.735   0.294  14.864  1.1923 -0.4421 -0.5620
13976TIP3   OH263418   0.080   2.867  17.025 -0.1574 -0.2514  0.0637
13976TIP3    H163419   0.029   2.799  16.981 -2.9086  1.6561  0.0554
13976TIP3    H263420   0.135   2.819  17.087 -3.2570 -2.4852  1.3581
13977TIP3   OH263421   3.568   0.531  15.339  0.3193  0.2586  0.3723
13977TIP3    H163422   3.609   0.588  15.403  0.6133  0.0098  0.4113
13977TIP3    H263423   3.571   0.444  15.379  1.2011 -0.0348 -0.2906
13978TIP3   OH263424   1.531   1.031  15.580  0.2096  0.1046 -0.1015
13978TIP3    H163425   1.605   0.994  15.628  2.4505  1.7063 -2.0615
13978TIP3    H263426   1.454   1.003  15.629  2.1640 -0.1601  3.1208
13979TIP3   OH263427   5.617   0.543   2.307  0.6036 -0.3908 -0.2694
13979TIP3    H163428   5.643   0.611   2.369  1.5847  1.3587 -2.4527
13979TIP3    H263429   5.696   0.524   2.256 -0.2456 -1.4358 -1.2621
13980TIP3   OH263430   5.522   4.695   2.199  0.0691  0.0873  1.1151
13980TIP3    H163431   5.430   4.699   2.171  0.7093  1.1105 -1.1056
13980TIP3    H263432   5.551   4.607   2.175 -0.0776  0.1112  0.8378
13981TIP3   OH263433   1.911   3.664  14.013  0.0609 -0.6954 -0.1081
13981TIP3    H163434   1.931   3.730  14.079 -0.4062 -0.1768 -0.4689
13981TIP3    H263435   1.820   3.640  14.031 -0.8272  1.0527 -1.8621
13982TIP3   OH263436   2.091   2.381  15.092  0.0454 -0.0428  0.1283
13982TIP3    H163437   2.131   2.349  15.011 -2.6057 -0.6874 -1.0174
13982TIP3    H263438   2.145   2.343  15.161 -0.5669 -3.8637 -1.2239
13983TIP3   OH263439   1.118   3.514   6.526  0.5477 -0.4110  0.2401
13983TIP3    H163440   1.143   3.469   6.606 -0.2337  0.4661  0.9963
13983TIP3    H263441   1.119   3.607   6.548  2.0537 -0.0172 -1.2740
13984TIP3   OH263442   6.464   6.178  12.180  0.7646  0.1148  1.0716
13984TIP3    H163443   6.457   6.263  12.224  0.3005  0.0134  1.1997
13984TIP3    H263444   6.375   6.157  12.155  1.2155  1.1408 -1.7996
13985TIP3   OH263445   5.387   3.164   6.590  0.4373 -0.4246 -0.5172
13985TIP3    H163446   5.361   3.253   6.615  1.9062  0.0479 -0.6217
13985TIP3    H263447   5.481   3.162   6.602  0.4360 -1.9604 -0.6052
13986TIP3   OH263448   5.010   0.762  13.369  0.1764  0.8295 -0.3475
13986TIP3    H163449   5.062   0.840  13.388  1.4798  0.0209 -0.4636
13986TIP3    H263450   4.937   0.766  13.431  0.4452  1.9261 -0.0855
13987TIP3   OH263451   5.279   0.498   4.330  0.1502 -0.0005 -0.2705
13987TIP3    H163452   5.310   0.408   4.332  1.3877  0.4122  0.7917
13987TIP3    H263453   5.187   0.493   4.356 -0.0127 -1.0247 -1.0219
13988TIP3   OH263454   5.180   6.394   1.973  0.4896  0.1127 -0.4189
13988TIP3    H163455   5.165   6.414   2.066 -2.5047 -2.1244 -0.2656
13988TIP3    H263456   5.187   6.299   1.970  0.7389  0.1520 -2.4828
13989TIP3   OH263457   4.016   5.618  13.458 -0.0955 -0.1852  0.6024
13989TIP3    H163458   3.931   5.604  13.499  0.0255  1.3275  1.4324
13989TIP3    H263459   4.017   5.711  13.435  1.2111 -0.2462  0.3257
13990TIP3   OH263460   0.623   1.225   2.920  0.4373 -0.4750 -0.3560
13990TIP3    H163461   0.689   1.169   2.878  0.4494  0.6231 -1.8984
13990TIP3    H263462   0.674   1.289   2.969  0.4507 -0.9918  0.3179
13991TIP3   OH263463   3.521   2.743  14.634 -0.2237 -0.5996  0.1795
13991TIP3    H163464   3.554   2.653  14.640 -1.9307 -1.2790 -0.1158
13991TIP3    H263465   3.582   2.787  14.574  0.8692 -1.4221  0.6509
13992TIP3   OH263466   5.011   5.901  15.186  0.0920 -0.7037  0.4534
13992TIP3    H163467   4.960   5.953  15.249 -1.5316 -1.0128 -0.5717
13992TIP3    H263468   5.092   5.881  15.233  0.0215  1.2390  1.5213
13993TIP3   OH263469   3.745   3.345  12.539 -0.8443  0.0540  0.6968
13993TIP3    H163470   3.766   3.367  12.448 -1.7132 -1.0945  0.1909
13993TIP3    H263471   3.828   3.354  12.585  0.4147 -2.3681 -0.8305
13994TIP3   OH263472   5.310   5.841  15.181 -0.1677 -0.3239  0.4053
13994TIP3    H163473   5.350   5.928  15.180  1.4225 -1.0296  0.0413
13994TIP3    H263474   5.343   5.801  15.261 -1.4806 -0.3564  0.9536
13995TIP3   OH263475   4.632   6.240  15.935 -0.1055 -0.0409 -0.2070
13995TIP3    H163476   4.642   6.148  15.959  0.7357  0.2894  0.7770
13995TIP3    H263477   4.546   6.265  15.969 -0.7216 -0.6689 -1.2400
13996TIP3   OH263478   6.809   1.435  15.206  0.1533  0.2271  0.0020
13996TIP3    H163479   6.783   1.412  15.295  2.5627  2.5755  1.4721
13996TIP3    H263480   6.902   1.413  15.201  0.5099  1.7799 -1.2455
13997TIP3   OH263481   6.061   1.108  14.971 -0.6262  0.8017  0.0647
13997TIP3    H163482   6.056   1.050  15.047 -1.0665  1.6038  0.6630
13997TIP3    H263483   5.969   1.129  14.951 -0.5379  0.3184 -0.9195
13998TIP3   OH263484   1.361   4.272  11.922 -0.1195 -0.2926 -0.3690
13998TIP3    H163485   1.412   4.337  11.970  0.0641 -0.3748 -0.4512
13998TIP3    H263486   1.283   4.258  11.975  0.6633 -1.3080  0.5589
13999TIP3   OH263487   0.112   2.908  11.558  0.0945 -0.2952 -0.6520
13999TIP3    H163488   0.102   2.898  11.464 -0.0089  2.1406 -0.9690
13999TIP3    H263489   0.076   2.995  11.577  1.5853 -0.0412  1.3616
14000TIP3   OH263490   3.213   0.843   0.270  0.1090  0.2392 -0.2060
14000TIP3    H163491   3.192   0.751   0.255  2.2521 -0.0721 -1.7514
14000TIP3    H263492   3.274   0.843   0.343  0.0477  0.4593 -0.1516
14001TIP3   OH263493   0.084   5.380  16.762 -0.8368  0.0075  0.2533
14001TIP3    H163494   0.117   5.463  16.797  1.4330 -0.2165 -1.1583
14001TIP3    H263495  -0.008   5.398  16.741 -1.5919  0.9064  3.7062
14002TIP3   OH263496   6.418   6.502   5.405 -0.0341 -0.1497 -0.2717
14002TIP3    H163497   6.468   6.466   5.332 -0.5411  0.2997 -0.8510
14002TIP3    H263498   6.404   6.594   5.381 -1.0132 -0.2369 -0.0539
14003TIP3   OH263499   2.672   2.288   5.385 -0.3307 -0.3294 -0.0066
14003TIP3    H163500   2.700   2.197   5.384 -0.1520 -0.3111  1.3892
14003TIP3    H263501   2.590   2.289   5.337 -0.2484 -1.1948 -0.1770
14004TIP3   OH263502   6.673   2.907   0.235  0.3866  0.0748  0.0864
14004TIP3    H163503   6.636   2.819   0.228 -1.3841  0.7982 -0.2201
14004TIP3    H263504   6.768   2.893   0.241  0.1492 -1.8338  0.0150
14005TIP3   OH263505   4.334   4.077  12.341  0.9870  0.0555 -0.4972
14005TIP3    H163506   4.406   4.090  12.278  1.3761 -0.1951 -0.1145
14005TIP3    H263507   4.313   4.165  12.372  1.7864  0.0474  0.1011
14006TIP3   OH263508   4.906   1.529  16.929 -0.2574  0.4052  0.0734
14006TIP3    H163509   4.826   1.557  16.884 -1.2297 -0.4940  1.1930
14006TIP3    H263510   4.966   1.505  16.858 -1.3273  0.1521 -0.7621
14007TIP3   OH263511   5.437   0.086  12.111 -0.5974 -0.0334  0.3100
14007TIP3    H163512   5.384   0.064  12.188  0.8595  0.1368  1.4123
14007TIP3    H263513   5.523   0.108  12.147  0.9121 -2.3815 -1.5216
14008TIP3   OH263514   0.817   4.926  13.017 -0.1259  0.3128  0.0163
14008TIP3    H163515   0.730   4.917  12.978  0.0957 -0.2189 -0.3555
14008TIP3    H263516   0.799   4.949  13.109 -0.6811 -0.8368  0.2084
14009TIP3   OH263517   4.886   3.834   0.748 -0.1996 -0.2060 -0.1641
14009TIP3    H163518   4.891   3.749   0.706 -0.6261  0.3650 -1.4391
14009TIP3    H263519   4.932   3.893   0.689 -0.8316  0.6332  0.1461
14010TIP3   OH263520   2.004   0.728  14.264 -0.0162 -0.7269  0.5491
14010TIP3    H163521   1.921   0.683  14.276 -1.6578  1.5994 -1.1935
14010TIP3    H263522   2.018   0.777  14.345 -2.3871  1.7895 -0.4101
14011TIP3   OH263523   3.308   6.495   2.949  0.6656 -0.1167  0.2990
14011TIP3    H163524   3.276   6.451   2.870  0.4544  0.2110  0.2024
14011TIP3    H263525   3.394   6.528   2.924 -0.5840  2.5949 -0.7814
14012TIP3   OH263526   5.829   4.156   0.348  0.4544 -0.1985  0.4157
14012TIP3    H163527   5.755   4.197   0.303  0.6831 -0.8871 -0.6078
14012TIP3    H263528   5.853   4.219   0.416 -0.2287  0.6282 -0.0889
14013TIP3   OH263529   1.034   0.974  10.915  0.1712  0.1278 -0.6455
14013TIP3    H163530   1.078   1.056  10.937 -0.6118  0.3787  0.0677
14013TIP3    H263531   0.951   1.001  10.876  0.6490 -0.3362 -2.0542
14014TIP3   OH263532   1.162   1.261   0.898 -0.0124 -0.3019 -0.2393
14014TIP3    H163533   1.256   1.278   0.898 -0.2423  1.1239  0.0918
14014TIP3    H263534   1.154   1.167   0.914  1.3232 -0.1852  1.2709
14015TIP3   OH263535   4.957   5.358   6.054  0.6441 -0.0313 -0.4874
14015TIP3    H163536   4.893   5.311   6.000 -1.0592  2.3690 -0.7018
14015TIP3    H263537   4.985   5.293   6.119 -3.5652 -0.7854  0.9455
14016TIP3   OH263538   1.749   1.794   1.625  0.2328  0.0422 -0.0584
14016TIP3    H163539   1.761   1.712   1.578  2.3905  1.2061 -1.7065
14016TIP3    H263540   1.801   1.784   1.705  0.5417 -0.1732 -0.2862
14017TIP3   OH263541   4.572   4.439  14.266  0.5604 -0.1404 -0.0702
14017TIP3    H163542   4.490   4.444  14.316 -0.8471 -0.5697 -2.1870
14017TIP3    H263543   4.635   4.489  14.318 -0.9011 -0.1753  1.8652
14018TIP3   OH263544   1.074   0.922   2.089 -0.1904  0.1976  0.3835
14018TIP3    H163545   1.138   0.966   2.033 -1.2488  1.1395 -0.1496
14018TIP3    H263546   1.088   0.960   2.176 -1.1870  1.7966 -0.1007
14019TIP3   OH263547   2.950   5.405   4.708  0.2199 -0.4011 -0.9021
14019TIP3    H163548   3.015   5.471   4.731  0.4254 -0.6949 -0.6383
14019TIP3    H263549   3.000   5.334   4.668  0.3522 -1.5572  1.1851
14020TIP3   OH263550   4.167   2.257   0.219  0.1916  0.3626 -1.1355
14020TIP3    H163551   4.220   2.224   0.291 -1.5356 -0.0233  0.0237
14020TIP3    H263552   4.228   2.264   0.146  1.9527  0.5580  0.2851
14021TIP3   OH263553   5.029   2.141   4.139 -0.4651  0.5104 -0.2906
14021TIP3    H163554   5.064   2.174   4.057 -0.2305 -0.5476 -0.6208
14021TIP3    H263555   5.101   2.093   4.180 -0.5903  0.9800  0.5203
14022TIP3   OH263556   2.169   3.899  11.414  0.5222 -0.1252  0.4934
14022TIP3    H163557   2.241   3.883  11.476  2.0148 -1.4020 -1.4348
14022TIP3    H263558   2.192   3.846  11.337 -2.2902 -0.2134 -0.3830
14023TIP3   OH263559   4.490   4.485   0.714  0.0991 -0.4254 -0.2076
14023TIP3    H163560   4.478   4.417   0.780 -1.0567 -0.5453 -0.5154
14023TIP3    H263561   4.584   4.487   0.699  0.4326 -0.1042  1.7233
14024TIP3   OH263562   5.406   1.166  11.099  0.1450 -0.1091 -0.4106
14024TIP3    H163563   5.475   1.231  11.088  1.0443 -0.8521  0.6116
14024TIP3    H263564   5.327   1.218  11.115  0.8991  0.7420  0.7160
14025TIP3   OH263565   0.254   6.420   6.165 -0.0015 -0.3785  0.2952
14025TIP3    H163566   0.243   6.488   6.098  1.1641 -2.0042 -1.6392
14025TIP3    H263567   0.335   6.443   6.210  0.8392 -0.9186 -0.9200
14026TIP3   OH263568   0.211   5.465  13.491  0.2686 -0.2580  0.3024
14026TIP3    H163569   0.234   5.524  13.563  2.8926  1.7998 -1.9897
14026TIP3    H263570   0.138   5.509  13.447 -2.5939 -2.4134  2.5263
14027TIP3   OH263571   0.318   3.205   1.564 -0.1352  0.0045 -0.0392
14027TIP3    H163572   0.315   3.290   1.521  0.4092  0.5216  0.8937
14027TIP3    H263573   0.273   3.219   1.647 -0.1819 -0.6641  0.0533
14028TIP3   OH263574   1.988   4.209  15.203 -0.4364  0.9064 -0.3388
14028TIP3    H163575   2.041   4.228  15.126  3.2455 -1.7610  1.2692
14028TIP3    H263576   1.955   4.121  15.188 -0.0838  0.5429  0.8843
14029TIP3   OH263577   6.369   4.663   4.163 -0.4738  0.1923 -0.0725
14029TIP3    H163578   6.331   4.699   4.243 -1.7064 -1.9159  0.3708
14029TIP3    H263579   6.393   4.573   4.187  0.9033  0.1216 -1.5620
14030TIP3   OH263580   6.495   4.938  13.472  0.4860  0.3696 -0.7156
14030TIP3    H163581   6.543   5.021  13.476 -0.5326  0.9664 -0.5837
14030TIP3    H263582   6.435   4.948  13.398  1.6644 -1.0032 -1.9315
14031TIP3   OH263583   5.467   4.568  13.624 -0.2111 -0.5740  0.1186
14031TIP3    H163584   5.461   4.516  13.544  1.0428  0.2231 -0.5254
14031TIP3    H263585   5.457   4.505  13.695 -0.4546 -1.4281 -0.6646
14032TIP3   OH263586   2.034   5.243  14.503  0.1350  0.1166 -0.2121
14032TIP3    H163587   2.011   5.321  14.453 -0.6229  0.2091  0.2754
14032TIP3    H263588   1.952   5.215  14.545  0.3560 -1.0245 -0.4976
14033TIP3   OH263589   1.036   0.610   2.404 -0.3323 -0.4539  0.1261
14033TIP3    H163590   1.122   0.625   2.364 -0.7651  0.9388 -0.3383
14033TIP3    H263591   1.024   0.515   2.401  0.6904 -0.5713 -0.8659
14034TIP3   OH263592   1.489   2.440   4.641  0.1973  0.5514  0.2649
14034TIP3    H163593   1.471   2.356   4.683  0.5743  0.3616  0.0582
14034TIP3    H263594   1.580   2.460   4.666  1.5730 -1.0350 -2.8201
14035TIP3   OH263595   6.627   6.537  15.028 -0.1567  0.0061  0.0482
14035TIP3    H163596   6.663   6.589  15.099 -1.0731  0.3833  0.2458
14035TIP3    H263597   6.589   6.601  14.967 -0.9491 -0.3996  0.1038
14036TIP3   OH263598   4.773   0.518  16.274 -0.2718 -0.1182  0.1398
14036TIP3    H163599   4.693   0.509  16.326 -0.5462 -2.1963 -0.5506
14036TIP3    H263600   4.757   0.463  16.197  1.9241 -0.8230  0.1294
14037TIP3   OH263601   5.861   1.016   0.968 -0.2230 -0.1869  0.4144
14037TIP3    H163602   5.898   1.103   0.955 -1.0267  0.2699  1.0497
14037TIP3    H263603   5.902   0.961   0.901  0.7036  0.5538  0.3657
14038TIP3   OH263604   0.353   4.387   5.401 -0.6274  0.5474 -0.0009
14038TIP3    H163605   0.282   4.377   5.338 -0.9779 -0.1442  0.4908
14038TIP3    H263606   0.394   4.470   5.378 -1.6104  0.9686 -0.2830
14039TIP3   OH263607   1.009   0.891  12.816  0.8001  0.0112 -0.4344
14039TIP3    H163608   0.964   0.957  12.868  0.5257  0.0908 -0.7657
14039TIP3    H263609   0.964   0.893  12.731  1.4688  0.1470 -0.7931
14040TIP3   OH263610   2.499   4.880   4.555 -0.1031  0.1338  0.0868
14040TIP3    H163611   2.516   4.821   4.629 -0.0639 -1.1932 -0.9352
14040TIP3    H263612   2.405   4.898   4.561 -0.2193 -0.4495  0.1316
14041TIP3   OH263613   2.887   6.148  12.757 -0.0298  0.7506  0.5957
14041TIP3    H163614   2.817   6.141  12.692  0.5898 -1.4649  0.1068
14041TIP3    H263615   2.931   6.230  12.735 -1.6206  1.5102  0.0823
14042TIP3   OH263616   4.712   6.334  12.842 -0.0817 -0.3089  0.1889
14042TIP3    H163617   4.750   6.422  12.842 -1.5346  0.3876  1.9318
14042TIP3    H263618   4.715   6.306  12.933  0.4140 -2.1199 -0.3474
14043TIP3   OH263619   4.885   2.473   3.280 -0.0594  0.2467 -0.2753
14043TIP3    H163620   4.919   2.466   3.191 -0.6537  1.3534 -0.6135
14043TIP3    H263621   4.947   2.531   3.324 -0.0414  0.1059 -0.1167
14044TIP3   OH263622   4.199   6.063  11.866  0.3482 -0.3969  0.5290
14044TIP3    H163623   4.243   6.148  11.856  0.2325 -0.3836  0.1432
14044TIP3    H263624   4.169   6.041  11.778 -1.0117 -0.0850  0.8971
14045TIP3   OH263625   3.334   3.191  12.048 -0.1623 -0.3738 -0.3325
14045TIP3    H163626   3.397   3.174  11.978 -0.3822 -0.5856 -0.4827
14045TIP3    H263627   3.249   3.191  12.003 -0.1621  1.6006 -0.4418
14046TIP3   OH263628   0.905   3.264  16.991 -0.0269 -0.7429 -0.0336
14046TIP3    H163629   0.814   3.289  16.979 -0.3139 -1.4921  0.5004
14046TIP3    H263630   0.954   3.346  16.986 -0.4737 -0.5380 -2.4836
14047TIP3   OH263631   4.103   5.021  16.148  0.2457  0.7417 -0.1324
14047TIP3    H163632   4.071   5.045  16.234  1.1452  0.3566  0.3231
14047TIP3    H263633   4.090   5.100  16.094 -0.2379  1.0079  0.3688
14048TIP3   OH263634   0.901   0.328   2.469 -0.5369  0.0427  0.3042
14048TIP3    H163635   0.976   0.335   2.529 -0.3961  1.9181 -0.0152
14048TIP3    H263636   0.825   0.351   2.522 -0.6600 -0.1516  0.2134
14049TIP3   OH263637   2.143   0.627   2.530 -0.3312 -0.1982  0.0999
14049TIP3    H163638   2.230   0.611   2.566  0.1370 -1.9117 -1.6518
14049TIP3    H263639   2.155   0.702   2.471  0.2432 -1.1194 -0.9885
14050TIP3   OH263640   2.741   2.603  16.471  0.8477 -0.0644 -0.3902
14050TIP3    H163641   2.772   2.631  16.385  0.0327  1.9703 -0.0806
14050TIP3    H263642   2.783   2.663  16.533  1.1811 -1.3044  0.6243
14051TIP3   OH263643   2.301   6.188   0.874  0.3514  0.1667 -0.1827
14051TIP3    H163644   2.248   6.267   0.862 -1.1279 -0.7681  0.0408
14051TIP3    H263645   2.285   6.136   0.795  1.1926  0.0102 -0.2575
14052TIP3   OH263646   5.793   2.991   2.507 -0.1540  0.2579  0.5685
14052TIP3    H163647   5.824   3.078   2.529  0.3830  0.6627 -1.5478
14052TIP3    H263648   5.814   2.938   2.584 -0.2512  1.9096  1.7870
14053TIP3   OH263649   3.154   2.985   5.564  0.4991 -0.0970 -0.4002
14053TIP3    H163650   3.074   3.024   5.601  0.2842  0.6969 -1.6396
14053TIP3    H263651   3.130   2.895   5.544 -0.0551  0.0988 -0.6423
14054TIP3   OH263652   0.113   3.499   4.225  0.0099 -0.1975 -0.5761
14054TIP3    H163653   0.098   3.593   4.217 -1.6256 -0.4267 -0.7333
14054TIP3    H263654   0.122   3.484   4.319 -0.6744  0.0194 -0.4643
14055TIP3   OH263655   1.117   4.284   3.584  0.7309  0.1132  0.1796
14055TIP3    H163656   1.026   4.314   3.579 -0.0057 -1.8754  0.6031
14055TIP3    H263657   1.168   4.356   3.547 -0.9747  1.4248  0.2421
14056TIP3   OH263658   6.221   4.155  14.700 -0.4967  0.0652  0.2236
14056TIP3    H163659   6.274   4.168  14.622 -2.4062 -0.6191 -1.2648
14056TIP3    H263660   6.162   4.083  14.677 -0.8142 -0.4755  2.4780
14057TIP3   OH263661   1.000   2.642  12.746  0.4141  0.7126  0.1738
14057TIP3    H163662   1.076   2.682  12.704 -0.2768  0.6188 -1.2151
14057TIP3    H263663   1.029   2.622  12.835  2.5091 -0.6957 -0.7467
14058TIP3   OH263664   2.712   1.791  17.111 -0.3626 -0.4830 -0.2350
14058TIP3    H163665   2.793   1.758  17.151 -0.7286  1.3687  2.2598
14058TIP3    H263666   2.741   1.830  17.028  1.2875 -0.1073  0.4741
14059TIP3   OH263667   1.024   4.382  15.661 -0.3275  0.1636  0.1096
14059TIP3    H163668   0.963   4.336  15.720 -0.4992 -0.9816 -0.9238
14059TIP3    H263669   0.980   4.384  15.577 -0.7517  3.1795  0.3087
14060TIP3   OH263670   2.971   2.035  13.099  0.2907 -0.0380 -0.4341
14060TIP3    H163671   2.998   2.120  13.134 -0.3332  0.9020 -2.1260
14060TIP3    H263672   2.886   2.052  13.058 -0.0341 -1.5748 -0.4409
14061TIP3   OH263673   3.439   0.963  15.794  0.4504  0.6480 -0.1350
14061TIP3    H163674   3.479   0.955  15.880  0.1867 -1.6502 -0.1557
14061TIP3    H263675   3.507   1.003  15.739  1.6684 -0.4802  0.5044
14062TIP3   OH263676   2.412   0.411   4.765 -0.1052  0.3998 -0.9292
14062TIP3    H163677   2.484   0.348   4.756 -0.0773  0.3040 -0.0984
14062TIP3    H263678   2.395   0.440   4.676  0.0757 -0.5770 -1.2914
14063TIP3   OH263679   6.244   0.785  10.192 -0.3645 -0.4447  0.3722
14063TIP3    H163680   6.236   0.757  10.283 -1.1485 -0.8571  0.1868
14063TIP3    H263681   6.207   0.712  10.141 -3.1838  1.1731 -0.0877
14064TIP3   OH263682   1.193   2.200  11.410  0.1691  0.4194 -0.0832
14064TIP3    H163683   1.259   2.210  11.342  0.8268  0.4487  0.5438
14064TIP3    H263684   1.179   2.106  11.417 -0.5231  0.4597 -0.8356
14065TIP3   OH263685   3.475   3.426   0.940  0.3389  0.3278 -0.4547
14065TIP3    H163686   3.379   3.429   0.947  0.3789 -0.3971  0.8618
14065TIP3    H263687   3.497   3.335   0.958  1.4000  0.9464  1.7157
14066TIP3   OH263688   4.338   5.829  13.258  0.0484 -0.4808 -0.2592
14066TIP3    H163689   4.417   5.779  13.278  1.0449 -0.7320 -4.0099
14066TIP3    H263690   4.275   5.764  13.227 -0.7729 -0.0082  0.3827
14067TIP3   OH263691   1.119   6.754  16.622 -0.4063 -0.6401 -0.0919
14067TIP3    H163692   1.137   6.695  16.549  1.5571 -1.0022  0.6383
14067TIP3    H263693   1.205   6.782  16.653 -1.0499 -1.7320  3.0939
14068TIP3   OH263694   3.579   0.797   1.057 -0.2825 -0.0272  0.2234
14068TIP3    H163695   3.531   0.716   1.036  0.9012 -0.7707  0.2681
14068TIP3    H263696   3.670   0.768   1.066  0.1320  1.3011  0.4010
14069TIP3   OH263697   0.866   1.795  10.982  0.0581  0.7453  0.5218
14069TIP3    H163698   0.911   1.723  11.026  0.8705 -0.4147 -2.0269
14069TIP3    H263699   0.776   1.789  11.012  0.2569 -0.9160  0.8766
14070TIP3   OH263700   3.558   5.394  14.268 -0.0847  0.6504  0.2906
14070TIP3    H163701   3.507   5.335  14.324 -0.1623  0.4940  0.0568
14070TIP3    H263702   3.504   5.405  14.190 -0.5033  1.7926  0.7254
14071TIP3   OH263703   4.057   3.442  15.951 -0.2412 -0.3570 -0.1341
14071TIP3    H163704   4.044   3.437  16.046  0.5614 -1.3233 -0.0685
14071TIP3    H263705   4.129   3.503  15.940  0.0644 -0.7082 -0.0869
14072TIP3   OH263706   2.621   5.879  14.661 -0.0867 -0.5029 -0.3402
14072TIP3    H163707   2.529   5.890  14.637 -0.4883 -2.7409 -0.0448
14072TIP3    H263708   2.630   5.786  14.683  2.2890 -0.3879 -0.4953
14073TIP3   OH263709   5.421   6.075  14.419  0.0414 -0.3146 -0.1859
14073TIP3    H163710   5.435   6.165  14.389 -0.1379 -0.9094 -2.2632
14073TIP3    H263711   5.485   6.023  14.370 -0.9970 -1.5059 -0.3445
14074TIP3   OH263712   3.723   6.524  16.027  0.2120  0.4697 -0.1642
14074TIP3    H163713   3.680   6.599  15.985 -0.2263  1.0372  1.2307
14074TIP3    H263714   3.671   6.448  16.001  0.0682  0.7714 -0.7811
14075TIP3   OH263715   5.549   0.052  10.025 -0.3839  0.1864  0.9263
14075TIP3    H163716   5.460   0.030  10.055  0.3472 -0.0135  3.1505
14075TIP3    H263717   5.537   0.129   9.969 -2.0832 -0.6516  0.0586
14076TIP3   OH263718   0.928   4.167   5.545 -0.3415 -0.2737 -0.0494
14076TIP3    H163719   0.928   4.072   5.554 -0.7292 -0.2447  0.2730
14076TIP3    H263720   1.001   4.196   5.600 -0.3136 -0.3751 -0.0328
14077TIP3   OH263721   0.876   0.367   0.594  0.1424 -0.6954  0.2661
14077TIP3    H163722   0.864   0.321   0.677 -0.6294  0.5980  0.8995
14077TIP3    H263723   0.957   0.416   0.605  0.5580 -1.2834 -0.1221
14078TIP3   OH263724   3.894   2.582  16.062  0.1191 -0.6687  0.0900
14078TIP3    H163725   3.814   2.538  16.091 -0.3700 -1.0548 -1.7119
14078TIP3    H263726   3.865   2.643  15.995  1.0795  0.8661  1.0044
14079TIP3   OH263727   2.819   0.468   1.690  0.1489  0.0873  0.3213
14079TIP3    H163728   2.876   0.391   1.681 -1.2048 -1.0295  0.9639
14079TIP3    H263729   2.730   0.433   1.686 -0.5089  1.5587  1.1392
14080TIP3   OH263730   1.131   6.421   5.140 -0.2332  0.1867 -0.0537
14080TIP3    H163731   1.165   6.507   5.162  1.3012 -0.8110  1.7728
14080TIP3    H263732   1.050   6.413   5.190  1.2484 -0.5717  2.3783
14081TIP3   OH263733   0.180   4.379  13.988  0.4246  0.1573 -0.1359
14081TIP3    H163734   0.099   4.429  13.981 -0.1264 -0.9630 -3.3923
14081TIP3    H263735   0.232   4.407  13.912  1.5683 -1.6465 -0.0715
14082TIP3   OH263736   6.241   6.494  15.204  0.0549 -0.0335  0.4099
14082TIP3    H163737   6.201   6.407  15.201 -1.7971  0.7780 -0.2239
14082TIP3    H263738   6.228   6.529  15.116 -0.6678  1.4554  1.0646
14083TIP3   OH263739   0.163   0.143   5.935  0.4913 -0.5566 -0.0508
14083TIP3    H163740   0.155   0.238   5.934  3.5564 -0.1961 -0.2522
14083TIP3    H263741   0.073   0.111   5.945 -0.4872  2.3510  1.4899
14084TIP3   OH263742   3.548   6.097   2.109  0.0574  0.2885  0.2584
14084TIP3    H163743   3.502   6.029   2.059  3.0261 -2.1676  0.5493
14084TIP3    H263744   3.565   6.056   2.194  1.8221  1.4391  0.5036
14085TIP3   OH263745   0.940   3.385   5.219 -0.2692  0.1347  0.1074
14085TIP3    H163746   1.029   3.360   5.193  0.3488  0.6783  1.5629
14085TIP3    H263747   0.883   3.325   5.170  1.0027 -1.6815  0.7294
14086TIP3   OH263748   6.664   0.281  10.750  0.0648 -0.6050  0.1678
14086TIP3    H163749   6.732   0.348  10.745 -0.4202 -0.0250  1.0893
14086TIP3    H263750   6.583   0.329  10.766 -0.4084 -1.3616  0.1197
14087TIP3   OH263751   6.207   3.377  14.660  0.0544  0.3576  0.5206
14087TIP3    H163752   6.252   3.319  14.600  1.6231  2.6049 -0.6312
14087TIP3    H263753   6.212   3.334  14.745  0.5315 -1.4491 -0.3836
14088TIP3   OH263754   1.870   3.612   4.560  0.6784  0.2735  0.5467
14088TIP3    H163755   1.959   3.578   4.546  0.7097  0.3727  0.5030
14088TIP3    H263756   1.820   3.537   4.591  0.7718  0.2108  0.5459
14089TIP3   OH263757   1.654   1.764  14.352 -0.0823 -0.1900  0.3859
14089TIP3    H163758   1.639   1.687  14.297  0.9742 -0.5402  0.5654
14089TIP3    H263759   1.684   1.831  14.290  0.8593 -0.5083  0.4786
14090TIP3   OH263760   0.388   0.401   4.432  0.0132 -0.2334  0.3107
14090TIP3    H163761   0.369   0.495   4.430  1.9700  0.2022  0.6807
14090TIP3    H263762   0.341   0.369   4.509 -2.5631 -0.0577 -1.0713
14091TIP3   OH263763   2.817   1.169  10.824  0.2625 -0.3692  0.7232
14091TIP3    H163764   2.902   1.206  10.799 -0.5889  1.2767  0.1527
14091TIP3    H263765   2.816   1.173  10.919  0.1388  1.3232  0.6880
14092TIP3   OH263766   5.167   3.403  11.858  0.1615  0.0224 -0.9136
14092TIP3    H163767   5.114   3.443  11.790 -0.0715 -1.1861 -1.4755
14092TIP3    H263768   5.224   3.342  11.811 -0.1157 -0.9475 -0.0265
14093TIP3   OH263769   3.351   5.082   2.457  0.0786 -0.8910 -0.8313
14093TIP3    H163770   3.405   5.026   2.512 -0.9138 -1.2539 -0.2002
14093TIP3    H263771   3.264   5.080   2.497 -0.2276  0.3081 -1.3609
14094TIP3   OH263772   3.443   1.421   5.816 -0.0789 -0.2383  0.1388
14094TIP3    H163773   3.535   1.399   5.833  0.0942  1.2639  1.3132
14094TIP3    H263774   3.397   1.337   5.820  1.4422 -1.3166 -2.3311
14095TIP3   OH263775   5.229   4.182  12.386 -0.7246 -0.2812 -0.0307
14095TIP3    H163776   5.186   4.189  12.470 -1.2300 -1.0293 -0.2192
14095TIP3    H263777   5.165   4.216  12.323 -0.1022  0.9059 -0.0627
14096TIP3   OH263778   2.311   6.369  16.064  0.5909  0.3688  0.1031
14096TIP3    H163779   2.286   6.279  16.042  0.8837 -0.5089  2.9353
14096TIP3    H263780   2.390   6.385  16.012  0.8889 -1.2401  0.0025
14097TIP3   OH263781   4.663   4.149   1.107 -0.6265 -0.1217  0.1827
14097TIP3    H163782   4.721   4.124   1.179 -0.2341 -1.1419 -0.4642
14097TIP3    H263783   4.619   4.067   1.082 -1.4216  0.3979 -0.1469
14098TIP3   OH263784   1.913   5.580  14.787  0.3723  0.4008  0.4399
14098TIP3    H163785   1.840   5.614  14.734  0.7192  0.9103  0.2721
14098TIP3    H263786   1.935   5.497  14.746 -1.5813 -0.8996  1.8647
14099TIP3   OH263787   0.287   6.376  11.298 -0.2149  0.2889 -0.5364
14099TIP3    H163788   0.350   6.423  11.353  0.2184 -0.1614 -0.6371
14099TIP3    H263789   0.285   6.426  11.216 -0.7584  0.8807 -0.1653
14100TIP3   OH263790   4.038   2.207   3.070 -0.1934 -0.5026  0.0462
14100TIP3    H163791   4.116   2.263   3.073 -0.9282  0.5361  0.2159
14100TIP3    H263792   4.039   2.170   2.982  1.0519 -1.3515  0.3828
14101TIP3   OH263793   5.292   1.782   5.327 -0.3442  0.5028 -0.9317
14101TIP3    H163794   5.331   1.752   5.409  0.1935  0.9222 -1.0313
14101TIP3    H263795   5.206   1.740   5.325  0.4173 -1.1256 -1.1269
14102TIP3   OH263796   6.751   3.583   2.926  0.3535  0.0123  0.5140
14102TIP3    H163797   6.832   3.542   2.893  1.6453  3.6954 -1.4398
14102TIP3    H263798   6.775   3.616   3.012 -0.3148 -1.9998  1.5442
14103TIP3   OH263799   4.435   1.868  15.638 -0.2622 -0.7545  0.6982
14103TIP3    H163800   4.511   1.814  15.656  1.1207  0.4673 -1.1719
14103TIP3    H263801   4.364   1.806  15.624  0.6882 -1.9647  1.0757
14104TIP3   OH263802   5.733   5.271  16.297 -0.0579 -0.2135 -0.4174
14104TIP3    H163803   5.812   5.222  16.276 -0.4391 -1.0488  0.0496
14104TIP3    H263804   5.702   5.232  16.379 -0.9074  0.1544 -0.5567
14105TIP3   OH263805   2.217   0.746  12.332 -0.4669  0.5076  0.5973
14105TIP3    H163806   2.206   0.718  12.241  0.6266  1.5887  0.1045
14105TIP3    H263807   2.233   0.666  12.381  1.3102  0.1271 -0.5578
14106TIP3   OH263808   3.634   1.741  13.909  0.1553  0.0427  0.1004
14106TIP3    H163809   3.725   1.744  13.939  0.2648 -2.2380  0.1646
14106TIP3    H263810   3.601   1.658  13.941 -2.1143  1.0046  0.4186
14107TIP3   OH263811   4.754   1.143   2.045 -0.1268 -0.1247  0.0756
14107TIP3    H163812   4.712   1.196   1.978 -0.6470  1.9427  1.9362
14107TIP3    H263813   4.806   1.080   1.996 -2.1038 -0.0949 -2.2784
14108TIP3   OH263814   0.522   1.956   3.357 -0.1285 -0.3160  0.5629
14108TIP3    H163815   0.442   1.905   3.342 -1.6758  1.7289  1.4458
14108TIP3    H263816   0.523   2.020   3.286  1.1056 -0.7043  0.1991
14109TIP3   OH263817   5.330   2.029  16.815 -0.2466  0.2058 -0.1350
14109TIP3    H163818   5.317   1.947  16.863 -1.3388  1.1918  1.3257
14109TIP3    H263819   5.380   2.084  16.875  0.2628  0.7119 -1.0067
14110TIP3   OH263820   4.931   2.528   1.694  0.6990  0.0959 -0.0013
14110TIP3    H163821   4.892   2.460   1.638  1.4004  0.5678 -1.0915
14110TIP3    H263822   5.021   2.537   1.662  1.1310  0.3579  1.2418
14111TIP3   OH263823   1.484   1.409  16.200  0.9694  0.6438 -0.4316
14111TIP3    H163824   1.449   1.446  16.119  2.3878  0.6979 -1.0537
14111TIP3    H263825   1.420   1.432  16.267  0.0394  1.0680 -1.4429
14112TIP3   OH263826   6.746   6.019  13.244  0.6512 -0.3650  0.2598
14112TIP3    H163827   6.767   5.998  13.335 -0.5137 -1.8440  0.2203
14112TIP3    H263828   6.799   5.959  13.192 -0.0230 -0.7663  0.0235
14113TIP3   OH263829   5.131   1.055   1.594  0.0051  0.3005 -0.1684
14113TIP3    H163830   5.220   1.090   1.588  0.0696  0.0549 -0.6576
14113TIP3    H263831   5.132   0.976   1.540 -1.3064  1.9077 -2.8001
14114TIP3   OH263832   4.051   2.672  12.575 -0.1704 -0.2127 -0.1201
14114TIP3    H163833   4.014   2.759  12.563 -0.4090 -0.3776 -0.6202
14114TIP3    H263834   4.146   2.685  12.567 -0.2599 -0.1406 -1.1756
14115TIP3   OH263835   6.184   0.834   3.980 -0.1660  0.1014 -0.1465
14115TIP3    H163836   6.221   0.920   3.956 -0.2403 -0.0710 -0.9086
14115TIP3    H263837   6.200   0.779   3.903 -1.0433 -0.2826 -0.0648
14116TIP3   OH263838   1.571   6.265  11.981 -0.3583  0.7150 -0.5713
14116TIP3    H163839   1.534   6.277  11.894  0.9190  1.6436 -1.0058
14116TIP3    H263840   1.662   6.293  11.973 -0.1559  0.5995  1.0058
14117TIP3   OH263841   6.346   1.833  16.941 -0.1889 -0.9189  0.0249
14117TIP3    H163842   6.320   1.868  16.856 -1.8278 -3.3681 -0.5859
14117TIP3    H263843   6.403   1.759  16.920  0.8159 -0.5052  1.1516
14118TIP3   OH263844   3.848   3.039   0.086 -0.0697  0.4382 -0.3699
14118TIP3    H163845   3.757   3.009   0.096 -0.3775  1.3698 -0.2161
14118TIP3    H263846   3.900   2.977   0.137 -0.2244 -1.9485 -2.9008
14119TIP3   OH263847   4.725   5.321  14.147 -0.4398  0.0667 -0.8155
14119TIP3    H163848   4.668   5.284  14.080 -0.4439  1.4263 -1.6116
14119TIP3    H263849   4.788   5.374  14.098  0.5988 -0.2192  0.1535
14120TIP3   OH263850   1.274   4.489  15.608 -0.0186 -0.5257  0.3286
14120TIP3    H163851   1.196   4.456  15.654 -0.0918  0.6629  1.1098
14120TIP3    H263852   1.345   4.480  15.672  0.5444 -1.7902 -0.4519
14121TIP3   OH263853   3.316   4.486  10.739 -0.1264 -0.0176  0.0506
14121TIP3    H163854   3.233   4.454  10.773  0.5538 -2.6177 -0.5069
14121TIP3    H263855   3.303   4.491  10.644 -0.1094  1.1192  0.0964
14122TIP3   OH263856   4.592   4.385  13.850 -0.4820 -0.3917  0.2290
14122TIP3    H163857   4.532   4.348  13.786 -0.2773 -0.5684  0.1354
14122TIP3    H263858   4.556   4.360  13.935  0.0786 -1.5167  0.1656
14123TIP3   OH263859   6.581   5.400   0.289 -0.0986  0.2870  0.2825
14123TIP3    H163860   6.647   5.413   0.221 -1.7933  2.6818 -1.0553
14123TIP3    H263861   6.509   5.355   0.244  0.2078 -1.5552  1.5148
14124TIP3   OH263862   5.134   3.043   0.880  0.2943 -0.0818  0.9544
14124TIP3    H163863   5.180   2.970   0.921 -0.1419 -0.3258  1.0229
14124TIP3    H263864   5.058   3.059   0.937 -1.2418 -1.5012 -0.5602
14125TIP3   OH263865   6.039   1.382   3.306  0.5317 -0.2191  0.0749
14125TIP3    H163866   6.050   1.343   3.393 -1.1343 -1.0746 -0.0552
14125TIP3    H263867   5.955   1.429   3.311  0.4895 -0.1488 -1.0305
14126TIP3   OH263868   4.034   1.472   0.565 -0.9432  0.3246 -0.1634
14126TIP3    H163869   3.986   1.402   0.520 -0.8493  0.1105  0.0733
14126TIP3    H263870   4.098   1.502   0.500 -2.0898  1.3352 -0.8703
14127TIP3   OH263871   4.698   6.498   0.961 -0.7482 -0.2363  0.1703
14127TIP3    H163872   4.665   6.516   1.048 -0.2222  0.5446  0.2244
14127TIP3    H263873   4.690   6.582   0.914  1.9542  0.2957  0.4764
14128TIP3   OH263874   6.544   1.630  16.944 -0.4615 -0.5420  0.5731
14128TIP3    H163875   6.555   1.565  17.013  1.4927 -0.4246  0.4293
14128TIP3    H263876   6.624   1.682  16.947 -0.0339 -0.8953 -2.1677
14129TIP3   OH263877   1.233   3.530   1.912 -0.3610 -0.3565 -0.2572
14129TIP3    H163878   1.227   3.603   1.850  0.0528 -0.9738 -1.0244
14129TIP3    H263879   1.300   3.557   1.975 -0.0849 -0.1572 -0.6403
14130TIP3   OH263880   4.366   5.299  13.355  0.6144  0.3150 -0.1126
14130TIP3    H163881   4.420   5.333  13.284  0.7526  0.7851  0.2109
14130TIP3    H263882   4.339   5.377  13.404  0.8247 -0.0264  0.5614
14131TIP3   OH263883   4.758   3.614   2.904  0.1594 -0.0682 -0.2406
14131TIP3    H163884   4.742   3.539   2.962  0.1885 -1.0860 -1.4954
14131TIP3    H263885   4.675   3.627   2.858 -0.4783  1.9663  1.3368
14132TIP3   OH263886   4.197   4.985   2.840 -0.3048  0.3667  0.1639
14132TIP3    H163887   4.254   4.911   2.860  1.4996  1.3604 -1.0217
14132TIP3    H263888   4.148   5.000   2.921 -1.5709 -2.7613  0.1030
14133TIP3   OH263889   6.829   1.059   0.714  0.1441 -0.2587 -0.1838
14133TIP3    H163890   6.893   1.093   0.777 -0.5601 -0.2427  0.5424
14133TIP3    H263891   6.753   1.036   0.767 -0.0976 -1.2019 -0.9128
14134TIP3   OH263892   4.993   5.504  12.858 -0.6595 -0.0225  0.4905
14134TIP3    H163893   5.088   5.492  12.852 -0.8591 -1.2477 -0.5436
14134TIP3    H263894   4.973   5.570  12.792 -0.4005  1.1596  1.5521
14135TIP3   OH263895   3.912   1.922  16.477  0.1880  0.1755  0.9569
14135TIP3    H163896   3.926   1.978  16.401  4.9115  1.3299  2.3299
14135TIP3    H263897   3.898   1.834  16.440  1.9698  0.7419 -1.2859
14136TIP3   OH263898   5.184   3.907  12.278 -0.3807  0.2119 -0.4631
14136TIP3    H163899   5.221   3.866  12.200 -0.6315 -0.9979  0.0295
14136TIP3    H263900   5.259   3.943  12.325 -0.0138 -0.6660 -0.3619
14137TIP3   OH263901   3.749   1.046  13.450 -0.3434  0.2417  0.7759
14137TIP3    H163902   3.838   1.027  13.478 -0.4780 -1.3022  0.2771
14137TIP3    H263903   3.757   1.066  13.356 -0.6030 -0.8374  0.5060
14138TIP3   OH263904   2.294   4.620   4.790 -0.2059 -0.0836 -0.1395
14138TIP3    H163905   2.225   4.598   4.853 -1.0490  1.3901 -0.5040
14138TIP3    H263906   2.355   4.547   4.795 -0.9288 -0.6167  1.4226
14139TIP3   OH263907   4.960   5.794  12.416  0.1281  0.0049 -0.1835
14139TIP3    H163908   4.957   5.889  12.430 -0.7130  0.1444 -1.2024
14139TIP3    H263909   4.873   5.763  12.442 -0.2731 -0.1973 -1.6581
14140TIP3   OH263910   1.747   6.613  12.148 -0.1657  0.1991  0.0292
14140TIP3    H163911   1.767   6.688  12.203 -0.4103  0.4077 -0.1676
14140TIP3    H263912   1.832   6.586  12.112 -0.1743  0.8545 -0.5123
14141TIP3   OH263913   5.418   2.572   1.924  0.0472  0.1202  0.1761
14141TIP3    H163914   5.502   2.526   1.928  0.1668  0.0763 -1.8745
14141TIP3    H263915   5.390   2.563   1.833 -1.0292  2.1922  0.2427
14142TIP3   OH263916   0.091   3.562  15.638  0.3934 -0.0160  0.0521
14142TIP3    H163917   0.171   3.601  15.604  0.5567  0.8121  1.2992
14142TIP3    H263918   0.082   3.480  15.591  0.9337  0.7720 -1.4773
14143TIP3   OH263919   4.001   3.148   6.236  0.1354 -0.3760  0.2885
14143TIP3    H163920   4.023   3.241   6.234  0.9185 -0.5659 -0.7421
14143TIP3    H263921   4.085   3.104   6.247  0.1080 -1.0405 -1.7580
14144TIP3   OH263922   5.218   5.148   3.941  0.1690  0.0855  0.4105
14144TIP3    H163923   5.306   5.178   3.963  0.5067 -0.3059 -0.3852
14144TIP3    H263924   5.165   5.228   3.945  0.2330  0.0807  2.3986
14145TIP3   OH263925   5.457   6.316   4.129  0.4856 -0.6318 -0.3085
14145TIP3    H163926   5.373   6.271   4.132  0.8396 -1.2731  0.5544
14145TIP3    H263927   5.514   6.264   4.187  1.5063 -0.2859 -0.9618
14146TIP3   OH263928   6.033   3.682  11.998  0.3462  0.6422  0.2242
14146TIP3    H163929   5.946   3.713  11.975  0.3249 -0.1389 -0.8692
14146TIP3    H263930   6.086   3.700  11.919 -0.2144 -4.1350 -1.5504
14147TIP3   OH263931   4.123   4.741   6.003 -0.0303  0.3020 -0.3351
14147TIP3    H163932   4.046   4.797   5.993 -0.0240 -0.1047 -3.4072
14147TIP3    H263933   4.098   4.678   6.070 -1.3691  1.7405  0.5950
14148TIP3   OH263934   0.609   0.467   0.239  0.0061  0.4044  0.2408
14148TIP3    H163935   0.615   0.545   0.294  1.1619 -0.6236  1.6610
14148TIP3    H263936   0.609   0.500   0.149 -0.2766  2.0474  0.8187
14149TIP3   OH263937   2.197   1.960  14.725 -0.7726  0.0981  0.1048
14149TIP3    H163938   2.227   2.034  14.673  0.4005 -0.8113 -0.5575
14149TIP3    H263939   2.189   1.994  14.814  0.8695  0.7550  0.0265
14150TIP3   OH263940   0.068   5.133  14.377 -0.3452 -0.2013 -0.2862
14150TIP3    H163941   0.143   5.192  14.375 -0.9896  0.6300 -1.3036
14150TIP3    H263942  -0.005   5.189  14.406 -1.3447  0.0467 -2.9475
14151TIP3   OH263943   0.824   0.823  16.575 -0.5058 -0.9628  0.4455
14151TIP3    H163944   0.883   0.755  16.541 -0.1231 -0.0558 -0.7480
14151TIP3    H263945   0.799   0.874  16.498  0.6434  1.3782  1.5223
14152TIP3   OH263946   1.568   1.064   0.831  0.2840 -0.3573  1.1948
14152TIP3    H163947   1.653   1.096   0.800  0.0631 -0.0054  0.9546
14152TIP3    H263948   1.549   0.988   0.776  1.9134 -2.4307  3.2573
14153TIP3   OH263949   2.121   0.006  16.726 -0.0572  0.6516 -0.4495
14153TIP3    H163950   2.124  -0.035  16.812  0.8913  1.9473  0.1573
14153TIP3    H263951   2.174  -0.051  16.670 -1.5368 -0.7722 -0.4808
14154TIP3   OH263952   0.596   0.930   5.560 -0.1994 -0.0057  0.1741
14154TIP3    H163953   0.565   0.847   5.525 -1.2652  0.6198 -0.4427
14154TIP3    H263954   0.639   0.973   5.486 -1.0948  0.6645  0.0129
14155TIP3   OH263955   3.567   3.713  16.591 -0.1278  0.1253 -0.2499
14155TIP3    H163956   3.489   3.761  16.564 -1.2050 -0.7396  1.1649
14155TIP3    H263957   3.547   3.622  16.570  0.9690  0.0034 -0.8575
14156TIP3   OH263958   6.823   5.354  15.748  0.1885 -0.1009 -0.2742
14156TIP3    H163959   6.911   5.316  15.744 -0.8483 -3.3904  2.7889
14156TIP3    H263960   6.815   5.385  15.838 -1.1446  2.2038 -1.0950
14157TIP3   OH263961   5.491   2.980   0.609 -0.5117  0.7264  0.3044
14157TIP3    H163962   5.406   3.024   0.599 -0.5922  1.0754  2.0584
14157TIP3    H263963   5.553   3.052   0.618 -0.5370  0.5490  2.4237
14158TIP3   OH263964   6.301   1.620   0.887 -0.3628  0.2005  0.1500
14158TIP3    H163965   6.350   1.701   0.871 -1.5072  0.9940  0.5662
14158TIP3    H263966   6.361   1.550   0.860  0.5981  1.1856 -0.3354
14159TIP3   OH263967   6.057   5.887   1.760 -0.1732  0.6849  0.2343
14159TIP3    H163968   6.025   5.850   1.678 -1.4292  0.9757  0.5739
14159TIP3    H263969   6.119   5.954   1.734  1.7162 -1.2122 -0.4071
14160TIP3   OH263970   5.935   3.511   4.937  0.2744 -0.4575  0.6623
14160TIP3    H163971   5.847   3.498   4.901  0.5175 -0.2538 -0.0231
14160TIP3    H263972   5.993   3.473   4.871  0.7499  0.2733  0.6580
14161TIP3   OH263973   1.208   5.746   3.539 -0.1521  0.1895  0.5691
14161TIP3    H163974   1.132   5.803   3.551  0.4694  1.4196 -0.9314
14161TIP3    H263975   1.197   5.676   3.604 -2.0390  0.8680  1.0357
14162TIP3   OH263976   5.546   0.172  10.783  0.1556  0.3274  0.6246
14162TIP3    H163977   5.505   0.090  10.811 -0.5874  0.9988  1.5611
14162TIP3    H263978   5.613   0.188  10.849  0.1446  0.5842  0.5722
14163TIP3   OH263979   4.926   3.350  13.344  0.5853  0.2913 -0.0608
14163TIP3    H163980   4.929   3.394  13.429  2.3263 -1.5931  0.9349
14163TIP3    H263981   4.939   3.421  13.281 -1.3285  1.8299  1.1274
14164TIP3   OH263982   5.941   2.829  16.570 -0.1061 -0.3331 -0.4985
14164TIP3    H163983   5.941   2.860  16.479 -2.0467  0.0788 -0.3967
14164TIP3    H263984   5.966   2.906  16.621  1.7669 -0.7652 -0.6985
14165TIP3   OH263985   6.288   5.291  14.354  0.0906  0.6499  0.3367
14165TIP3    H163986   6.231   5.367  14.348  1.4763  1.6414 -0.9051
14165TIP3    H263987   6.236   5.219  14.319 -0.7116  1.3352  0.0930
14166TIP3   OH263988   6.601   5.726  12.277 -0.7028  0.5093 -0.0783
14166TIP3    H163989   6.605   5.821  12.279 -1.4814  0.5335  0.4960
14166TIP3    H263990   6.656   5.697  12.349  0.4390  0.4773 -0.9264
14167TIP3   OH263991   6.443   5.708  13.862 -0.3966  0.6607 -0.0168
14167TIP3    H163992   6.362   5.683  13.906  0.5627 -1.5450  0.6989
14167TIP3    H263993   6.507   5.714  13.933  1.0608 -2.4135 -0.8712
14168TIP3   OH263994   1.717   2.110  12.407 -0.1051 -0.2274 -0.2193
14168TIP3    H163995   1.651   2.167  12.447  1.3149  1.3072  0.0677
14168TIP3    H263996   1.707   2.026  12.451  0.4480  0.9894  2.3983
14169TIP3   OH263997   3.148   0.520   4.002  0.3472 -0.7524 -0.4273
14169TIP3    H163998   3.092   0.460   4.052 -0.3699  1.1752  1.2385
14169TIP3    H263999   3.219   0.542   4.062  0.4669  0.2412 -0.9244
14170TIP3   OH264000   0.263   3.765  13.740  0.0044  0.1079  0.5663
14170TIP3    H164001   0.196   3.804  13.684  0.2077  0.9266  0.8904
14170TIP3    H264002   0.268   3.822  13.816  2.4714  1.2257 -0.3371
14171TIP3   OH264003   5.140   3.943   5.560  0.1187  0.0035  0.3931
14171TIP3    H164004   5.156   3.852   5.585  1.7927  0.3475  0.7494
14171TIP3    H264005   5.070   3.939   5.495  1.2757 -1.7064 -0.8314
14172TIP3   OH264006   4.230   5.222  14.822  0.3149 -0.2520 -0.2482
14172TIP3    H164007   4.307   5.244  14.874  1.8337 -0.3397 -2.3157
14172TIP3    H264008   4.158   5.267  14.866  1.5478 -0.0526  1.6813
14173TIP3   OH264009   6.599   6.736  16.070 -0.4289 -0.7976  0.0640
14173TIP3    H164010   6.685   6.776  16.057 -0.8120 -0.0482 -0.2277
14173TIP3    H264011   6.614   6.668  16.137  0.1360  0.2152  1.0022
14174TIP3   OH264012   1.927   4.155   0.661 -0.2712  0.2409 -0.2461
14174TIP3    H164013   1.934   4.151   0.757 -2.2108  0.1513 -0.0827
14174TIP3    H264014   1.906   4.246   0.642 -0.3281  0.1614 -0.5693
14175TIP3   OH264015   3.724   5.272   5.852  0.2831 -0.2326  0.0853
14175TIP3    H164016   3.807   5.289   5.807 -0.8941  0.1062 -2.0826
14175TIP3    H264017   3.672   5.351   5.837 -0.6323 -0.6384  0.9893
14176TIP3   OH264018   6.322   5.738  15.195  0.7705  0.1048  0.2195
14176TIP3    H164019   6.273   5.801  15.142 -1.5830 -1.6157  0.1511
14176TIP3    H264020   6.376   5.691  15.132  0.5118  0.2823 -0.1417
14177TIP3   OH264021   3.403   5.459   2.170 -0.0937  0.5497 -0.0631
14177TIP3    H164022   3.449   5.481   2.251 -0.6319  1.6525 -0.0426
14177TIP3    H264023   3.312   5.484   2.187  0.1649  3.0221 -1.7890
14178TIP3   OH264024   5.076   3.108  12.732 -0.9720  0.0530 -0.2076
14178TIP3    H164025   5.046   3.098  12.822 -0.0757 -0.0927  0.0938
14178TIP3    H264026   5.004   3.151  12.686 -2.0976 -1.3209  0.1929
14179TIP3   OH264027   4.394   4.242  14.020  0.3673 -0.9386 -0.3164
14179TIP3    H164028   4.316   4.189  14.000  0.2482 -0.6294 -0.6856
14179TIP3    H264029   4.359   4.318  14.067  0.3527 -0.4236 -1.1436
14180TIP3   OH264030   0.148   3.128  17.046 -0.1586 -0.0064 -0.0342
14180TIP3    H164031   0.093   3.056  17.015  0.2562  0.3166 -1.6622
14180TIP3    H264032   0.093   3.206  17.038  0.2308  0.2005 -0.8458
14181TIP3   OH264033   2.984   1.150  15.488 -0.6914  0.0370  0.5105
14181TIP3    H164034   3.057   1.183  15.539  0.0435 -0.8136  0.0522
14181TIP3    H264035   3.015   1.066  15.453 -1.2593  0.4327 -1.0697
14182TIP3   OH264036   3.239   3.765  15.427  0.4944  0.2000 -0.2068
14182TIP3    H164037   3.249   3.730  15.515  2.5553 -1.0970 -0.9013
14182TIP3    H264038   3.228   3.859  15.440  0.9831  0.0601  1.4213
14183TIP3   OH264039   6.683   5.064   2.005  0.9551  0.9135 -0.5779
14183TIP3    H164040   6.614   5.129   2.019  0.3341  0.4706 -1.4805
14183TIP3    H264041   6.742   5.074   2.080 -0.6836  0.5452  0.8209
14184TIP3   OH264042   2.779   2.605   3.527  0.3767  0.2215 -0.0586
14184TIP3    H164043   2.724   2.532   3.556  1.8947 -0.8602  0.2425
14184TIP3    H264044   2.822   2.636   3.606  1.1314  0.2138 -0.4493
14185TIP3   OH264045   5.527   0.295  17.123  0.0327 -0.0371  0.4993
14185TIP3    H164046   5.603   0.304  17.065 -0.1865  1.9740  0.4450
14185TIP3    H264047   5.546   0.355  17.195 -0.5872 -1.0702  1.5432
14186TIP3   OH264048   1.454   6.023   5.876 -0.0232  0.6512 -0.0522
14186TIP3    H164049   1.486   6.012   5.786 -0.2094 -0.6975  0.0222
14186TIP3    H264050   1.377   5.966   5.880  0.1518  0.4805  1.0388
14187TIP3   OH264051   6.261   5.526  16.039 -0.1985  0.3642 -0.2892
14187TIP3    H164052   6.296   5.579  16.111  1.1897 -1.0228  0.1172
14187TIP3    H264053   6.334   5.517  15.978 -0.3136 -1.1917 -0.2512
14188TIP3   OH264054   2.218   4.640  14.343 -0.1360 -0.3143 -0.5573
14188TIP3    H164055   2.266   4.658  14.424  0.6746  0.6447 -1.2325
14188TIP3    H264056   2.198   4.726  14.307 -1.7432 -0.7131 -0.6740
14189TIP3   OH264057   2.037   3.616  13.680 -0.1353  0.5020  0.1768
14189TIP3    H164058   2.026   3.642  13.588  1.3776 -0.6216 -0.3699
14189TIP3    H264059   1.956   3.642  13.722 -0.9831  0.8010 -1.5460
14190TIP3   OH264060   5.750   5.460  11.649  0.2008 -0.0176  0.1994
14190TIP3    H164061   5.760   5.534  11.709  0.9749  1.1634 -1.3205
14190TIP3    H264062   5.827   5.406  11.664 -0.4530 -0.6611  1.4402
14191TIP3   OH264063   1.713   2.732   5.944  0.0804 -0.1656  0.0316
14191TIP3    H164064   1.782   2.761   5.884 -0.2854 -1.5091 -1.0782
14191TIP3    H264065   1.676   2.655   5.903 -0.5987 -0.7846  1.7142
14192TIP3   OH264066   0.259   6.036   4.568  0.1009 -0.0583  0.0704
14192TIP3    H164067   0.248   6.081   4.651 -0.9921 -1.1751  0.5615
14192TIP3    H264068   0.315   5.961   4.589  2.0016  1.0515 -0.7585
14193TIP3   OH264069   1.853   5.353  15.170  0.4292 -0.0145  0.4405
14193TIP3    H164070   1.820   5.277  15.218 -0.8391 -0.1059 -0.5243
14193TIP3    H264071   1.876   5.320  15.084 -0.8601  0.7811 -0.2515
14194TIP3   OH264072   4.515   0.511   4.646 -0.7221 -0.0783  0.2585
14194TIP3    H164073   4.507   0.416   4.649  2.0082 -0.3751  1.4600
14194TIP3    H264074   4.498   0.540   4.736 -1.4846  0.5915 -0.0830
14195TIP3   OH264075   3.384   5.776  15.355 -0.3634 -0.2886  0.0559
14195TIP3    H164076   3.341   5.817  15.280 -0.8909  0.1693  0.5945
14195TIP3    H264077   3.377   5.841  15.425 -2.0478 -1.6204  1.2079
14196TIP3   OH264078   6.185   0.622  12.411 -0.6011  0.1764 -0.0287
14196TIP3    H164079   6.150   0.561  12.476 -2.4280  0.7218 -0.4431
14196TIP3    H264080   6.114   0.633  12.348  1.1136 -0.4029 -2.1991
14197TIP3   OH264081   4.999   3.835  15.287 -0.3119  0.0391  0.2597
14197TIP3    H164082   5.015   3.904  15.223 -1.3674  0.1933  0.1494
14197TIP3    H264083   5.026   3.754  15.243  1.6626  0.4393  0.6678
14198TIP3   OH264084   5.384   1.553   5.776 -0.0670  1.1394 -0.1952
14198TIP3    H164085   5.433   1.484   5.819 -0.6827  1.4234  1.0073
14198TIP3    H264086   5.309   1.569   5.833 -0.9939  1.4528 -1.4378
14199TIP3   OH264087   2.530   4.977   0.545 -0.1731  0.0438 -0.0284
14199TIP3    H164088   2.516   5.057   0.493 -0.0254 -0.8686 -1.5195
14199TIP3    H264089   2.625   4.969   0.552 -0.1926  0.2307  0.5209
14200TIP3   OH264090   3.013   3.822   4.910  0.0876  0.0451  0.5350
14200TIP3    H164091   2.946   3.849   4.973  1.2172  0.3450  1.6568
14200TIP3    H264092   3.077   3.774   4.962  0.5970 -0.5203 -0.5729
14201TIP3   OH264093   4.358   1.700   4.171  0.3658 -0.1098  0.1800
14201TIP3    H164094   4.430   1.715   4.110  0.4804  0.1693  0.3824
14201TIP3    H264095   4.283   1.744   4.130  0.5812  0.6022  0.5232
14202TIP3   OH264096   1.036   2.346   0.690  0.3305 -0.2512 -0.3908
14202TIP3    H164097   0.959   2.305   0.650 -1.2618  1.0216  1.1782
14202TIP3    H264098   0.999   2.413   0.747  2.6204 -0.0843  0.9795
14203TIP3   OH264099   1.787   2.939  16.002  0.7406 -0.0398 -0.4081
14203TIP3    H164100   1.868   2.990  16.008  0.3109  0.7562 -1.2397
14203TIP3    H264101   1.790   2.882  16.079  0.9624  1.6265  0.8818
14204TIP3   OH264102   1.252   6.448  14.000  0.2466 -0.2823  0.3834
14204TIP3    H164103   1.214   6.366  13.970  1.3534  0.6783 -4.3934
14204TIP3    H264104   1.188   6.515  13.975  0.6900  0.5731  1.4614
14205TIP3   OH264105   0.479   1.670   3.567  0.1585  0.3540  0.1287
14205TIP3    H164106   0.396   1.648   3.611 -0.1428 -1.5024 -1.2202
14205TIP3    H264107   0.534   1.706   3.636 -0.9158 -0.7232  1.6191
14206TIP3   OH264108   3.239   1.481  15.324 -0.1208  0.0056  0.1248
14206TIP3    H164109   3.226   1.492  15.418  3.2764 -1.3794  0.8755
14206TIP3    H264110   3.272   1.392  15.314 -0.5457  0.0475 -2.4349
14207TIP3   OH264111   6.522   2.449  15.631 -0.0893 -0.0617 -0.3988
14207TIP3    H164112   6.602   2.446  15.683  0.5017  1.4118 -1.1522
14207TIP3    H264113   6.546   2.409  15.547  0.1524  1.1963 -0.9519
14208TIP3   OH264114   5.558   3.565   0.652 -0.5870 -0.1610  0.1192
14208TIP3    H164115   5.511   3.484   0.635  0.4698 -0.7447 -0.0976
14208TIP3    H264116   5.642   3.555   0.606  0.8470 -0.2585  2.5352
14209TIP3   OH264117   0.896   0.840  13.624  0.1787  0.3524 -0.4463
14209TIP3    H164118   0.950   0.893  13.566  0.0867 -0.2829 -1.1184
14209TIP3    H264119   0.918   0.872  13.712  1.2116  0.4980 -0.7404
14210TIP3   OH264120   6.064   1.754   1.242 -0.1222  0.2119  0.0375
14210TIP3    H164121   5.980   1.795   1.222  0.2245  0.0401 -1.9704
14210TIP3    H264122   6.110   1.818   1.296 -0.8849  1.0464 -0.2802
14211TIP3   OH264123   2.987   6.019  16.923  0.1046 -0.1462 -0.5109
14211TIP3    H164124   2.992   6.036  17.017 -1.6938  2.9036 -0.8190
14211TIP3    H264125   2.921   5.950  16.914 -1.1101  0.8475  0.4268
14212TIP3   OH264126   4.500   6.620  16.709  0.1745  0.5305 -0.5772
14212TIP3    H164127   4.415   6.602  16.749  1.1561 -0.1065  1.3729
14212TIP3    H264128   4.491   6.592  16.618 -0.9006 -2.1231  0.2655
14213TIP3   OH264129   2.483   0.922  10.910 -0.4945  0.2991  0.0428
14213TIP3    H164130   2.479   0.840  10.861 -0.6624 -0.2983  1.0354
14213TIP3    H264131   2.520   0.985  10.848  1.5466 -0.9865 -0.1567
14214TIP3   OH264132   4.189   2.312   3.502 -0.0015 -0.6500  0.5285
14214TIP3    H164133   4.269   2.269   3.534  0.5656 -0.1712 -0.2253
14214TIP3    H264134   4.221   2.382   3.445 -0.9444  0.0571  0.8541
14215TIP3   OH264135   0.006   4.785   4.944  0.0599 -0.3519  0.1863
14215TIP3    H164136  -0.029   4.828   5.022  1.3026  0.5387  0.2888
14215TIP3    H264137   0.081   4.839   4.919  0.5899 -1.4801 -0.7356
14216TIP3   OH264138   2.455   4.108   4.025  0.0477 -0.0557 -1.1510
14216TIP3    H164139   2.412   4.023   4.035  0.1548  0.1231  1.5010
14216TIP3    H264140   2.388   4.163   3.983 -1.2761 -0.5980  0.1331
14217TIP3   OH264141   2.258   4.907  16.996  0.2542  0.0962  0.4473
14217TIP3    H164142   2.331   4.937  16.941 -0.4687  0.0307 -0.5723
14217TIP3    H264143   2.245   4.978  17.059 -0.9816  1.7192 -1.4848
14218TIP3   OH264144   5.175   2.028   5.267  0.1787  0.0417 -0.1657
14218TIP3    H164145   5.247   1.988   5.317 -0.6044  0.1608  1.1208
14218TIP3    H264146   5.199   2.015   5.176  1.9947  0.3593  0.2124
14219TIP3   OH264147   4.882   1.383   5.439  0.0852  0.2668 -0.5694
14219TIP3    H164148   4.903   1.384   5.533  2.4253 -1.3616 -0.9906
14219TIP3    H264149   4.808   1.322   5.432  1.0959 -1.0643  0.0400
14220TIP3   OH264150   3.061   5.840   1.669 -0.3704 -0.0118 -1.0350
14220TIP3    H164151   3.110   5.908   1.621 -1.0935  0.2692 -1.3925
14220TIP3    H264152   3.128   5.792   1.717  0.3167  0.0875 -1.8559
14221TIP3   OH264153   2.585   5.351  12.981  0.3305  0.5087  0.2167
14221TIP3    H164154   2.525   5.425  12.977  1.1667  1.1741 -0.0894
14221TIP3    H264155   2.669   5.386  12.954  0.7109 -0.5857 -0.0688
14222TIP3   OH264156   4.539   2.525   2.672 -0.0260 -0.0209  0.2440
14222TIP3    H164157   4.516   2.521   2.765  0.0571 -1.0708  0.2404
14222TIP3    H264158   4.456   2.507   2.627 -0.5164  2.4334  0.0226
14223TIP3   OH264159   3.738   5.711  12.689  0.3874  0.4148  0.0827
14223TIP3    H164160   3.734   5.625  12.731 -0.4531  1.0935  1.4597
14223TIP3    H264161   3.760   5.692  12.598 -0.2677 -1.3022  0.2376
14224TIP3   OH264162   1.822   2.366  15.384 -0.6486  0.3688  0.2022
14224TIP3    H164163   1.851   2.293  15.328 -1.5848  0.0909  0.0576
14224TIP3    H264164   1.733   2.343  15.409 -0.6991  1.1239  0.7594
14225TIP3   OH264165   5.432   5.652  13.205  0.2706  0.1757  0.6338
14225TIP3    H164166   5.512   5.700  13.227 -0.0608  0.8303  0.4542
14225TIP3    H264167   5.455   5.601  13.127  0.4824  0.4561  0.5108
14226TIP3   OH264168   0.669   2.289   4.738 -0.1612 -0.6036 -0.2860
14226TIP3    H164169   0.665   2.382   4.763 -0.7143 -0.1255 -1.9628
14226TIP3    H264170   0.737   2.286   4.671  1.8743 -1.9834  1.7053
14227TIP3   OH264171   4.684   0.051  11.622  0.0549 -0.6501 -0.6713
14227TIP3    H164172   4.639  -0.015  11.569  0.0418 -1.1763 -0.0164
14227TIP3    H264173   4.624   0.068  11.694  1.3141 -2.1844  0.8425
14228TIP3   OH264174   5.637   1.525  12.310  0.1534  0.2597 -0.3596
14228TIP3    H164175   5.678   1.526  12.396  0.2248  0.2453 -0.3935
14228TIP3    H264176   5.653   1.613  12.275  1.6276 -0.2808 -1.0736
14229TIP3   OH264177   3.458   6.331  15.637 -0.3052  0.5238 -0.1458
14229TIP3    H164178   3.404   6.283  15.575  0.1525 -0.5309  0.2495
14229TIP3    H264179   3.439   6.291  15.722  0.9409  0.2477  0.0209
14230TIP3   OH264180   3.045   5.994  13.964 -0.6540 -0.1109 -0.0239
14230TIP3    H164181   3.071   5.932  14.032  2.3050  2.2953  1.2560
14230TIP3    H264182   2.978   6.048  14.005  0.8994  1.1328  1.0103
14231TIP3   OH264183   2.374   3.044   4.903 -0.1737 -0.0989 -0.0627
14231TIP3    H164184   2.373   3.139   4.893 -1.0572  0.0544  1.2871
14231TIP3    H264185   2.450   3.027   4.960  1.0736 -0.4009 -1.7309
14232TIP3   OH264186   0.902   6.193  17.187 -0.4948 -0.0306  0.4702
14232TIP3    H164187   0.975   6.131  17.188 -1.3450 -1.0637  0.1856
14232TIP3    H264188   0.942   6.278  17.168  0.6630 -0.5317  0.6351
14233TIP3   OH264189   3.058   1.913  13.981 -0.0259 -0.0983 -0.1063
14233TIP3    H164190   3.112   1.845  13.939  0.2551 -0.1109  0.2739
14233TIP3    H264191   3.121   1.969  14.027 -0.3591 -0.3420  0.6686
14234TIP3   OH264192   4.383   0.275   4.781 -0.0077 -0.0984 -0.3042
14234TIP3    H164193   4.441   0.210   4.741  0.2434 -0.4921  0.6600
14234TIP3    H264194   4.411   0.278   4.873 -1.2908 -0.0577  0.1019
14235TIP3   OH264195   2.125   4.931  11.416 -0.3290 -0.2369 -0.0118
14235TIP3    H164196   2.074   4.852  11.398 -0.3137  0.1374 -1.9471
14235TIP3    H264197   2.072   5.002  11.382  1.0321  0.2413 -1.2768
14236TIP3   OH264198   6.741   4.233   1.575  0.1547  0.1634  0.3261
14236TIP3    H164199   6.805   4.190   1.631 -0.5515 -0.2823  0.7976
14236TIP3    H264200   6.786   4.243   1.491  1.5016  1.5387  1.1603
14237TIP3   OH264201   5.215   2.043   5.004  0.5503 -0.4207  0.1108
14237TIP3    H164202   5.304   2.075   4.990  0.7746  1.2577  4.0505
14237TIP3    H264203   5.223   1.948   5.005  1.8005 -0.3869 -1.7455
14238TIP3   OH264204   5.612   1.013   1.136 -0.6397 -0.0944  0.1018
14238TIP3    H164205   5.640   1.049   1.220  1.7141 -0.9689 -0.2376
14238TIP3    H264206   5.691   1.015   1.081 -0.7752 -3.8538 -0.5526
14239TIP3   OH264207   4.658   3.416  11.864  0.0530 -0.2997  0.0249
14239TIP3    H164208   4.652   3.356  11.790  2.1437 -1.5164  0.7468
14239TIP3    H264209   4.631   3.501  11.829  1.5152 -0.7036 -2.3172
14240TIP3   OH264210   2.354   4.576   5.452 -0.4536 -0.5950  0.1790
14240TIP3    H164211   2.331   4.531   5.534 -0.1124 -0.7082  0.2177
14240TIP3    H264212   2.433   4.530   5.422 -0.9397 -0.9750 -0.5496
14241TIP3   OH264213   0.760   0.849   5.746  0.2364  0.4124  0.4391
14241TIP3    H164214   0.842   0.803   5.726 -0.6066 -1.4898  1.0659
14241TIP3    H264215   0.711   0.847   5.664 -0.1044 -0.5411  0.6517
14242TIP3   OH264216   0.354   5.423   0.070 -0.1178  0.0015  0.8398
14242TIP3    H164217   0.340   5.379  -0.013  1.5348  1.2207 -0.1615
14242TIP3    H264218   0.298   5.500   0.067  0.3822  0.3650  0.5587
14243TIP3   OH264219   5.766   6.609   5.296 -0.1668  0.7376  0.4580
14243TIP3    H164220   5.792   6.656   5.375 -0.5780  0.6035  0.6770
14243TIP3    H264221   5.737   6.523   5.328  1.6484 -0.1066 -0.0342
14244TIP3   OH264222   5.838   6.485  16.011  0.4520  0.0890 -0.1293
14244TIP3    H164223   5.816   6.443  16.094  1.3061 -0.5718 -0.2308
14244TIP3    H264224   5.763   6.466  15.954  0.5168 -0.7174  0.0380
14245TIP3   OH264225   5.241   3.890   2.802  0.6938  0.0687  0.1521
14245TIP3    H164226   5.241   3.881   2.897 -0.0240  0.9889  0.2517
14245TIP3    H264227   5.327   3.926   2.782  0.7081  0.2223  0.4825
14246TIP3   OH264228   1.125   0.326   3.296 -0.5018 -0.5511  0.1239
14246TIP3    H164229   1.105   0.413   3.331 -0.0309 -0.3994  0.0130
14246TIP3    H264230   1.186   0.288   3.359 -0.1240 -0.5104 -0.2125
14247TIP3   OH264231   1.378   0.681  13.152  0.8342 -0.5276 -0.0186
14247TIP3    H164232   1.311   0.624  13.192 -0.6646  1.4783  0.4810
14247TIP3    H264233   1.337   0.713  13.072  2.8269 -2.4307 -1.9344
14248TIP3   OH264234   0.997   4.229  11.580  0.5440 -0.0046 -0.1378
14248TIP3    H164235   0.965   4.198  11.665 -1.1062  1.9196  0.0266
14248TIP3    H264236   1.092   4.230  11.589  0.4420 -0.5449  1.4186
14249TIP3   OH264237   5.156   1.760  16.027  0.3686  0.2266 -0.3492
14249TIP3    H164238   5.148   1.853  16.004  0.0490  0.1381 -0.5999
14249TIP3    H264239   5.102   1.715  15.962 -1.7899  0.0866  1.4448
14250TIP3   OH264240   5.805   6.489   2.165  0.1020  0.1126 -0.2208
14250TIP3    H164241   5.835   6.431   2.235 -2.2703 -0.3261  0.5248
14250TIP3    H264242   5.846   6.454   2.086 -0.6775 -2.2341  0.3143
14251TIP3   OH264243   2.649   5.577   1.817  0.1262  0.2995  0.3523
14251TIP3    H164244   2.699   5.657   1.834  0.4393  0.5522 -1.5031
14251TIP3    H264245   2.583   5.575   1.887  1.3718  1.0851  1.6050
14252TIP3   OH264246   4.885   4.579   2.088  0.0050  0.2453 -0.4346
14252TIP3    H164247   4.798   4.576   2.128  0.0659 -2.4550 -0.3460
14252TIP3    H264248   4.934   4.642   2.142 -1.5526  1.0040  0.1655
14253TIP3   OH264249   6.421   3.841  11.903 -0.2638 -0.4591  0.0060
14253TIP3    H164250   6.418   3.932  11.876 -1.1340  0.2814  2.3016
14253TIP3    H264251   6.415   3.844  11.999  0.2565 -2.8990  0.1971
14254TIP3   OH264252   5.614   3.021  12.765 -0.2485  0.1382 -0.1951
14254TIP3    H164253   5.528   3.062  12.764 -0.7946 -0.9320  0.4271
14254TIP3    H264254   5.676   3.093  12.779 -1.2422  0.6266  1.9169
14255TIP3   OH264255   6.735   6.718  16.788 -0.6592 -0.5020  0.3537
14255TIP3    H164256   6.823   6.744  16.815 -0.1025 -0.6765 -1.1956
14255TIP3    H264257   6.677   6.760  16.852  0.4562  0.9260  0.4816
14256TIP3   OH264258   0.996   1.737  13.788  0.1418 -0.3431 -0.2155
14256TIP3    H164259   0.958   1.804  13.845 -0.7327  0.2879 -1.4915
14256TIP3    H264260   1.044   1.787  13.722 -0.0846 -1.0066 -0.8915
14257TIP3   OH264261   2.931   6.814  15.102  0.3286 -0.0881  0.0993
14257TIP3    H164262   2.895   6.738  15.149 -1.9906  0.5968 -0.4140
14257TIP3    H264263   2.901   6.803  15.012 -0.4232  1.5981  0.0971
14258TIP3   OH264264   6.547   1.144   5.050 -0.4836  0.4121 -0.0487
14258TIP3    H164265   6.487   1.157   5.124  0.7326 -0.7930  1.2323
14258TIP3    H264266   6.523   1.212   4.987  0.2792  3.4351  2.6565
14259TIP3   OH264267   4.542   6.658   5.209  0.5668 -0.2510 -0.4341
14259TIP3    H164268   4.455   6.699   5.217 -0.0173 -1.7072  1.3122
14259TIP3    H264269   4.594   6.722   5.160 -1.2615  1.0060 -0.8451
14260TIP3   OH264270   3.162   1.457  16.304 -0.5852  0.0563  0.2228
14260TIP3    H164271   3.167   1.476  16.397 -0.8364 -0.1681  0.2829
14260TIP3    H264272   3.069   1.442  16.287 -0.8814  2.2774 -0.4983
14261TIP3   OH264273   5.876   5.218   5.099 -0.7065 -0.0235  0.2495
14261TIP3    H164274   5.916   5.135   5.074 -0.3232  0.4677 -0.8381
14261TIP3    H264275   5.784   5.210   5.074 -0.1198  0.8691 -2.5648
14262TIP3   OH264276   4.277   6.516  15.770 -0.0309 -0.6835 -0.6496
14262TIP3    H164277   4.274   6.429  15.811  0.7065 -0.2996  0.2662
14262TIP3    H264278   4.242   6.503  15.682  0.0222 -1.8967 -0.5030
14263TIP3   OH264279   4.194   3.436   2.450 -0.6775 -0.0083  0.0508
14263TIP3    H164280   4.180   3.501   2.382  1.3709  2.9291  2.1765
14263TIP3    H264281   4.288   3.440   2.468 -1.1170 -0.6377  2.9576
14264TIP3   OH264282   6.382   1.628   0.483 -0.6771 -0.8034  0.8356
14264TIP3    H164283   6.294   1.602   0.457 -0.3324 -1.1620 -0.0165
14264TIP3    H264284   6.369   1.699   0.545 -1.5373  0.5856 -0.8511
14265TIP3   OH264285   0.942   6.243   3.514 -0.2477  0.1391 -0.0013
14265TIP3    H164286   0.853   6.256   3.479 -0.0893 -2.0439 -1.4197
14265TIP3    H264287   0.931   6.174   3.579  0.6537 -1.7990 -1.7855
14266TIP3   OH264288   4.798   1.560  16.402  0.2143 -0.2638  0.0440
14266TIP3    H164289   4.800   1.471  16.367  1.9036 -0.1632 -0.1804
14266TIP3    H264290   4.764   1.551  16.491 -1.4391 -0.8739 -0.6128
14267TIP3   OH264291   5.018   5.336  12.507  0.1137  0.3566 -0.2305
14267TIP3    H164292   5.064   5.419  12.493  1.2406 -0.1954  0.1018
14267TIP3    H264293   4.939   5.361  12.555  0.9312  1.1395  0.7772
14268TIP3   OH264294   3.559   5.109   5.055  0.4204  0.0604  0.9026
14268TIP3    H164295   3.591   5.041   5.114 -0.2477 -0.1249  1.0603
14268TIP3    H264296   3.616   5.184   5.070 -0.4434  0.4106  2.6219
14269TIP3   OH264297   3.990   0.508  14.716 -0.1548  0.0887 -0.1096
14269TIP3    H164298   4.070   0.456  14.729  0.7205  1.6339  0.9363
14269TIP3    H264299   3.971   0.545  14.802 -1.7409  0.1667 -0.4579
14270TIP3   OH264300   6.618   4.902  16.349  0.1405 -0.3251  0.0955
14270TIP3    H164301   6.629   4.822  16.400  2.2997  1.0477  1.9826
14270TIP3    H264302   6.685   4.897  16.281 -1.9944 -1.6227 -2.0518
14271TIP3   OH264303   3.070   3.967   0.192  0.1292  0.5701 -0.0429
14271TIP3    H164304   3.106   3.896   0.138 -2.0257  0.3881 -1.3544
14271TIP3    H264305   3.103   3.948   0.280  1.8256 -0.4855 -0.8445
14272TIP3   OH264306   6.796   4.526   4.803  0.4327 -0.0674  0.0272
14272TIP3    H164307   6.825   4.615   4.820 -1.8476  0.4437  1.7167
14272TIP3    H264308   6.721   4.536   4.744  0.2487 -0.8427  0.1195
14273TIP3   OH264309   6.693   0.865  11.751 -0.0804  0.5634  0.4190
14273TIP3    H164310   6.605   0.833  11.729  0.4541  0.5873 -1.9832
14273TIP3    H264311   6.749   0.829  11.683  1.8722  0.3023  2.0791
14274TIP3   OH264312   5.656   4.443  14.250 -0.1541 -0.2340  0.0129
14274TIP3    H164313   5.635   4.379  14.319 -1.3926  1.2162  1.0437
14274TIP3    H264314   5.751   4.437  14.240  0.0195 -0.6975  1.6405
14275TIP3   OH264315   4.188   5.403  14.085  0.6939  0.0934  0.0988
14275TIP3    H164316   4.169   5.367  13.999 -0.6685 -0.3912  0.5692
14275TIP3    H264317   4.115   5.461  14.104  1.3153  0.7174  0.6531
14276TIP3   OH264318   3.886   0.075  13.885  0.2289  0.3562  0.4315
14276TIP3    H164319   3.830   0.152  13.883  1.3075  1.1559 -0.5558
14276TIP3    H264320   3.955   0.096  13.948  1.1315  0.6615 -0.6347
14277TIP3   OH264321   1.931   2.136  10.936  0.5595  0.7279  0.2173
14277TIP3    H164322   1.933   2.146  10.841  0.2609  0.8347  0.2228
14277TIP3    H264323   1.999   2.071  10.954  1.1825  1.3146  0.0125
14278TIP3   OH264324   6.423   5.089  16.392 -0.1515  0.4790 -0.5609
14278TIP3    H164325   6.504   5.040  16.409 -0.0937  0.8204  0.1969
14278TIP3    H264326   6.410   5.081  16.297  1.0604  0.8457 -0.7855
14279TIP3   OH264327   2.061   0.246   2.579  0.4335  0.2400 -0.0767
14279TIP3    H164328   2.030   0.295   2.503  1.3207  0.4610 -0.3059
14279TIP3    H264329   2.156   0.250   2.574  0.5129 -0.1139  0.8097
14280TIP3   OH264330   2.985   4.782   1.405  0.0433 -0.4699  0.0294
14280TIP3    H164331   3.049   4.796   1.475  1.9789 -0.4597 -1.6526
14280TIP3    H264332   2.932   4.861   1.405  1.7140  0.7190 -0.1522
14281TIP3   OH264333   3.606   4.176  12.012 -0.1689  0.1768 -0.8334
14281TIP3    H164334   3.522   4.133  12.027 -0.0991  0.4367  0.4283
14281TIP3    H264335   3.668   4.128  12.068  0.1709  1.0533 -0.4282
14282TIP3   OH264336   5.770   6.765   3.317  0.4270 -0.9868  0.1067
14282TIP3    H164337   5.851   6.797   3.275  0.8182 -2.7478 -0.5462
14282TIP3    H264338   5.727   6.713   3.249 -0.5902 -1.1852  0.8886
14283TIP3   OH264339   0.499   6.618   2.854 -0.4660  0.3536 -0.0149
14283TIP3    H164340   0.532   6.529   2.864  1.1488  0.8612 -0.4380
14283TIP3    H264341   0.535   6.666   2.929  0.1810  1.0257 -0.7282
14284TIP3   OH264342   2.995   5.662   4.377 -0.0140  0.1209 -0.3811
14284TIP3    H164343   2.987   5.638   4.285 -2.1069  0.0530 -0.2303
14284TIP3    H264344   2.983   5.579   4.424 -1.0105  0.4665 -0.0126
14285TIP3   OH264345   1.534   0.543   2.856 -0.3624 -0.0535 -0.1209
14285TIP3    H164346   1.538   0.524   2.950 -2.4496  0.4126  0.1030
14285TIP3    H264347   1.602   0.487   2.818  0.4303 -0.3631  1.6314
14286TIP3   OH264348   5.754   4.898   3.191 -0.5864  0.4164  0.6056
14286TIP3    H164349   5.809   4.935   3.123 -0.7693 -0.9301 -0.3126
14286TIP3    H264350   5.790   4.933   3.273 -0.7647  2.5854 -0.1647
14287TIP3   OH264351   2.594   2.597  13.570  0.4442 -0.5958 -0.1696
14287TIP3    H164352   2.624   2.541  13.642  0.2420  0.1004  0.4769
14287TIP3    H264353   2.670   2.607  13.514  0.9732 -0.1321  0.6131
14288TIP3   OH264354   2.242   1.457   4.663  0.0625 -0.1393  0.6149
14288TIP3    H164355   2.168   1.500   4.621  0.1957 -0.5429 -0.0483
14288TIP3    H264356   2.232   1.477   4.756 -0.1868  0.8473  0.3829
14289TIP3   OH264357   0.936   0.711  11.586  0.8922  0.2727 -0.3377
14289TIP3    H164358   0.934   0.625  11.543 -2.2136 -0.8358  1.6597
14289TIP3    H264359   0.870   0.762  11.540  0.5222  0.5090  0.4367
14290TIP3   OH264360   6.638   1.492   5.588  0.5907  0.6544  0.5539
14290TIP3    H164361   6.682   1.575   5.605  1.8486  0.4903 -1.4765
14290TIP3    H264362   6.708   1.432   5.562 -0.6007 -0.1448 -1.0272
14291TIP3   OH264363   1.756   1.839   4.778  0.2496  0.6177 -0.5861
14291TIP3    H164364   1.716   1.755   4.800  0.2591  0.4737 -1.1222
14291TIP3    H264365   1.752   1.889   4.860  3.2723 -1.0584  0.7458
14292TIP3   OH264366   6.616   4.331   5.419  0.3863 -0.2687 -0.3346
14292TIP3    H164367   6.681   4.388   5.460  0.1427  0.6429 -1.1731
14292TIP3    H264368   6.646   4.242   5.437 -0.4574 -0.0050  3.0454
14293TIP3   OH264369   6.007   1.269   0.928 -0.8365  0.3665  0.1146
14293TIP3    H164370   6.007   1.300   1.018 -1.5141  0.0243  0.2330
14293TIP3    H264371   5.973   1.343   0.877  0.5270  0.9365 -0.0018
14294TIP3   OH264372   6.050   4.249  17.007 -0.2411 -0.2097  0.2899
14294TIP3    H164373   6.043   4.324  17.066  0.7271  0.8785 -0.9215
14294TIP3    H264374   6.007   4.277  16.927 -1.4576 -1.6358  0.3926
14295TIP3   OH264375   0.055   3.112  10.710 -0.0670 -0.3407  0.4716
14295TIP3    H164376   0.137   3.149  10.744  1.3570 -2.6355 -0.1734
14295TIP3    H264377   0.052   3.141  10.619  0.9564 -1.5558  0.0140
14296TIP3   OH264378   2.708   5.900   0.082 -0.6103 -0.1419 -0.3582
14296TIP3    H164379   2.711   5.861   0.169 -1.6316  3.0371  1.2620
14296TIP3    H264380   2.615   5.898   0.058 -0.4194 -0.4135 -1.0871
14297TIP3   OH264381   0.149   0.380   1.600  0.0361 -0.0041 -0.3058
14297TIP3    H164382   0.239   0.354   1.581  0.6686  2.0386 -0.3877
14297TIP3    H264383   0.123   0.431   1.523 -0.8503  0.1978  0.1243
14298TIP3   OH264384   2.539   2.418  16.917 -0.1822 -0.3470  0.0963
14298TIP3    H164385   2.476   2.468  16.969 -0.3733  0.0414 -0.5020
14298TIP3    H264386   2.505   2.329  16.918 -0.3318 -0.2885  0.4143
14299TIP3   OH264387   4.548   3.729   4.722 -0.1375  0.0052 -0.1103
14299TIP3    H164388   4.578   3.794   4.785 -0.0435 -0.0920 -0.0547
14299TIP3    H264389   4.502   3.780   4.655  0.5112  0.2061 -0.4159
14300TIP3   OH264390   5.303   0.644  12.729 -0.4357  0.3012 -0.3411
14300TIP3    H164391   5.210   0.659  12.741 -0.3994  0.6661 -0.5151
14300TIP3    H264392   5.346   0.705  12.790 -0.3108  0.0758 -0.1983
14301TIP3   OH264393   3.954   0.219  12.018  0.0064  0.5636  0.0998
14301TIP3    H164394   4.038   0.262  12.003  0.4024 -0.5711 -1.1344
14301TIP3    H264395   3.957   0.192  12.109  1.7427 -0.9821 -0.3696
14302TIP3   OH264396   4.141   0.609  13.272  0.0996 -0.0895  0.5731
14302TIP3    H164397   4.095   0.580  13.351  0.0858 -0.5524  0.4007
14302TIP3    H264398   4.072   0.633  13.211 -0.1220 -3.5659 -0.7723
14303TIP3   OH264399   1.295   1.416   2.737  0.5547  0.6503  0.2603
14303TIP3    H164400   1.343   1.461   2.806  0.3439 -0.1656  0.9529
14303TIP3    H264401   1.360   1.359   2.696  0.3773  0.1865  0.6270
14304TIP3   OH264402   6.563   5.183   1.458 -0.0011  0.2396  0.4093
14304TIP3    H164403   6.592   5.272   1.437  0.2994  0.3582  1.2617
14304TIP3    H264404   6.567   5.179   1.554 -3.5624  0.5141  0.7130
14305TIP3   OH264405   4.850   2.242   1.202  0.0178 -0.1421 -0.3060
14305TIP3    H164406   4.932   2.220   1.245  0.6541  1.4252 -0.6695
14305TIP3    H264407   4.820   2.322   1.247 -0.6842 -0.0148 -0.9842
14306TIP3   OH264408   3.554   0.183   3.210  0.5593 -0.0721  0.0040
14306TIP3    H164409   3.547   0.231   3.293  0.4124  2.2224 -1.2635
14306TIP3    H264410   3.647   0.161   3.203  0.8903  1.2783 -0.0211
14307TIP3   OH264411   3.623   4.313  17.032  0.1551 -0.0244  0.7280
14307TIP3    H164412   3.624   4.219  17.052  1.6819 -0.1600  0.1007
14307TIP3    H264413   3.682   4.352  17.095 -0.1776  0.4781  0.7345
14308TIP3   OH264414   0.029   5.866   4.218 -0.1957 -0.2894 -0.2451
14308TIP3    H164415   0.119   5.839   4.238  0.2478  0.7225 -0.8076
14308TIP3    H264416   0.039   5.949   4.172 -1.3916 -0.5198 -0.9473
14309TIP3   OH264417   6.630   0.001  11.069 -0.0517  0.5159  0.1934
14309TIP3    H164418   6.535  -0.006  11.056  0.0363  1.0743 -0.8016
14309TIP3    H264419   6.667  -0.052  10.999  0.3904  0.9617  0.0904
14310TIP3   OH264420   0.287   5.073  14.857  0.5296 -0.3975  0.4292
14310TIP3    H164421   0.361   5.013  14.871 -0.6776 -1.6883  1.6581
14310TIP3    H264422   0.272   5.071  14.762  1.4407 -0.8962  0.2848
14311TIP3   OH264423   4.483   3.531   3.929 -0.1783 -0.0152  0.0813
14311TIP3    H164424   4.464   3.526   4.023 -0.5462 -0.8456 -0.0331
14311TIP3    H264425   4.578   3.546   3.926 -0.0837 -0.4423  0.5864
14312TIP3   OH264426   5.612   4.297  12.979  0.4172 -0.5678  0.3562
14312TIP3    H164427   5.540   4.332  13.030 -0.7263 -1.8222 -0.3101
14312TIP3    H264428   5.609   4.345  12.896  2.1298  1.3087  1.2989
14313TIP3   OH264429   1.207   1.209   2.900  0.3927  0.0635 -0.0472
14313TIP3    H164430   1.276   1.260   2.944 -0.3919 -0.8910  2.4514
14313TIP3    H264431   1.180   1.264   2.827  1.6731  1.8458  0.7418
14314TIP3   OH264432   6.592   4.182   5.656  0.0281 -0.6795 -0.0549
14314TIP3    H164433   6.550   4.181   5.742 -0.4825 -0.4897 -0.2957
14314TIP3    H264434   6.535   4.128   5.601  0.6558 -1.2708 -0.1387
14315TIP3   OH264435   6.721   4.961  14.490 -0.0205 -0.0839  0.0785
14315TIP3    H164436   6.792   5.008  14.445 -0.3155  0.2967  0.0026
14315TIP3    H264437   6.741   4.970  14.583 -0.8442  1.4696  0.1420
14316TIP3   OH264438   0.168   2.013  15.126 -0.0400  0.3024 -0.4707
14316TIP3    H164439   0.201   1.936  15.080  1.1486  0.7979 -0.4917
14316TIP3    H264440   0.117   2.060  15.060  0.8827  0.5304 -1.0431
14317TIP3   OH264441   2.902   0.929   3.410  0.1505 -0.3912 -0.7048
14317TIP3    H164442   2.948   1.013   3.401 -0.2681 -0.0244  0.4804
14317TIP3    H264443   2.971   0.866   3.428  0.2429  0.1527  1.0368
14318TIP3   OH264444   4.645   3.009   1.303  0.1320  0.0955 -0.3902
14318TIP3    H164445   4.552   2.991   1.315  0.2856 -0.2044  0.4155
14318TIP3    H264446   4.648   3.069   1.229 -0.6588 -0.3713 -0.8171
14319TIP3   OH264447   4.027   0.142   1.510 -0.4665  0.8686  0.5306
14319TIP3    H164448   3.947   0.121   1.558 -1.6139  3.4112 -0.1077
14319TIP3    H264449   4.069   0.209   1.564  0.4337  0.6903  0.0639
14320TIP3   OH264450   6.346   2.102   2.241  0.7258 -0.7856 -0.5513
14320TIP3    H164451   6.305   2.110   2.327  0.5366  0.1479 -0.7190
14320TIP3    H264452   6.286   2.147   2.181  1.1092 -0.9803 -1.0922
14321TIP3   OH264453   3.412   2.673   2.347 -0.1351  0.3735 -0.1540
14321TIP3    H164454   3.465   2.726   2.406 -0.6572  0.6027  0.1131
14321TIP3    H264455   3.364   2.613   2.405 -0.0023  0.0190 -0.4095
14322TIP3   OH264456   4.491   3.034   1.909  0.1584 -0.0082 -0.0595
14322TIP3    H164457   4.578   3.018   1.873  0.4605  1.3973  0.0103
14322TIP3    H264458   4.460   3.113   1.865 -0.7943 -0.0887  0.4303
14323TIP3   OH264459   2.176   5.717   2.945 -0.2345  0.1408  0.5663
14323TIP3    H164460   2.148   5.627   2.958 -0.0522 -0.3053 -1.6987
14323TIP3    H264461   2.096   5.767   2.931 -0.2572  0.0572  0.3989
14324TIP3   OH264462   0.324   1.421  16.895 -0.3743 -0.4616 -0.6055
14324TIP3    H164463   0.344   1.340  16.942 -0.4553 -0.1210  0.0336
14324TIP3    H264464   0.357   1.407  16.807  0.2164 -0.9397 -0.3140
14325TIP3   OH264465   6.373   3.966  16.305  0.1733  0.1410  0.0564
14325TIP3    H164466   6.403   3.876  16.317  1.5380  0.4223 -1.0260
14325TIP3    H264467   6.278   3.961  16.316  0.1819 -1.4968 -0.3703
14326TIP3   OH264468   4.736   3.393   3.121 -0.0763 -0.4016 -0.0660
14326TIP3    H164469   4.773   3.318   3.074  0.3234  0.4943 -1.2350
14326TIP3    H264470   4.665   3.357   3.174  0.3294 -1.6462 -0.3532
14327TIP3   OH264471   2.717   4.884  10.889  0.4912 -0.4586 -0.1193
14327TIP3    H164472   2.807   4.891  10.858  1.3107 -0.7658  2.0492
14327TIP3    H264473   2.666   4.934  10.825  2.1579 -0.4294 -1.4872
14328TIP3   OH264474   1.857   1.702  15.651 -0.2203 -0.6045  0.5425
14328TIP3    H164475   1.855   1.611  15.620 -1.1176 -0.4090 -0.0313
14328TIP3    H264476   1.901   1.749  15.581 -2.2615 -0.1585 -0.5327
14329TIP3   OH264477   4.799   3.920  13.480 -0.8273 -0.0802  0.4129
14329TIP3    H164478   4.739   3.875  13.421 -0.6380  0.6702 -0.3641
14329TIP3    H264479   4.745   3.988  13.521 -0.8151 -0.2210  0.6628
14330TIP3   OH264480   1.291   0.969  15.693  0.3323  0.4752 -0.4380
14330TIP3    H164481   1.267   0.883  15.726  0.0190  0.6230 -0.2810
14330TIP3    H264482   1.211   1.003  15.652  0.9110 -0.0356 -2.0657
14331TIP3   OH264483   3.666   5.053   1.618  0.8749 -0.1937  0.2241
14331TIP3    H164484   3.592   5.023   1.670 -0.1972 -0.0425 -1.1708
14331TIP3    H264485   3.628   5.084   1.536  2.5687 -1.3089 -1.0619
14332TIP3   OH264486   4.886   2.924  13.291 -0.2155 -0.4519  0.1451
14332TIP3    H164487   4.833   3.002  13.270 -0.5878 -0.8507 -0.4075
14332TIP3    H264488   4.975   2.958  13.301 -0.5704  0.2448  1.1773
14333TIP3   OH264489   4.236   1.175  11.772 -0.2693 -0.4166  0.1192
14333TIP3    H164490   4.276   1.227  11.842  0.6839 -1.1109  0.1112
14333TIP3    H264491   4.142   1.195  11.778  0.0122  0.9219  0.4180
14334TIP3   OH264492   0.882   3.549  14.403 -0.1224 -0.0378 -0.6759
14334TIP3    H164493   0.812   3.611  14.425  0.5267  0.3166  0.5197
14334TIP3    H264494   0.952   3.570  14.465  0.6378 -1.0792 -1.1576
14335TIP3   OH264495   5.093   0.098  16.260 -0.3165  0.4134  0.3589
14335TIP3    H164496   5.179   0.100  16.220 -0.4920  0.6531 -0.0160
14335TIP3    H264497   5.037   0.055  16.196 -0.6019  0.8040  0.3425
14336TIP3   OH264498   1.262   3.228  15.338 -0.1144 -0.2551 -0.2284
14336TIP3    H164499   1.322   3.235  15.264  0.1998 -1.0729 -0.0710
14336TIP3    H264500   1.197   3.163  15.310 -0.1130 -0.4142  0.1313
14337TIP3   OH264501   2.177   2.948   3.553 -0.3389 -0.0715  0.4209
14337TIP3    H164502   2.213   2.908   3.474  0.3806 -0.5905  0.9916
14337TIP3    H264503   2.123   3.019   3.521 -0.4857 -0.6009 -0.5657
14338TIP3   OH264504   6.822   5.538   2.824  0.4504 -0.0584  0.2066
14338TIP3    H164505   6.893   5.552   2.761 -0.2096 -0.2554 -0.5899
14338TIP3    H264506   6.770   5.618   2.819  0.7177  0.1763  0.9496
14339TIP3   OH264507   4.145   6.281   0.504  0.3516  0.8496  0.3102
14339TIP3    H164508   4.053   6.302   0.516  0.5155  2.4303 -0.8868
14339TIP3    H264509   4.184   6.295   0.591 -0.3414  1.1839  0.5717
14340TIP3   OH264510   6.663   0.854  15.822  0.3002  0.4508 -0.2101
14340TIP3    H164511   6.752   0.880  15.801  0.2034  0.0682 -1.1370
14340TIP3    H264512   6.673   0.777  15.878  0.5670  1.8244  1.7457
14341TIP3   OH264513   2.063   1.500   4.296 -0.3787 -0.1833 -0.4741
14341TIP3    H164514   1.981   1.476   4.253 -0.5882  1.1198 -0.8310
14341TIP3    H264515   2.125   1.430   4.272 -1.0364 -0.5079 -1.2326
14342TIP3   OH264516   6.551   2.639   0.186  0.3248  0.2861 -0.5523
14342TIP3    H164517   6.498   2.624   0.108 -0.7583  0.1886  0.1776
14342TIP3    H264518   6.622   2.575   0.181 -0.7159 -0.8838 -0.5834
14343TIP3   OH264519   3.989   1.039  13.544 -0.4125  0.8310  0.1860
14343TIP3    H164520   4.004   1.133  13.556 -0.0833  0.6767  1.0490
14343TIP3    H264521   4.076   1.001  13.534 -0.3898  0.3922  1.7100
14344TIP3   OH264522   5.359   0.549   5.445 -0.6029  0.6926  0.1968
14344TIP3    H164523   5.316   0.568   5.361  1.1396 -2.1800 -1.5208
14344TIP3    H264524   5.307   0.477   5.482 -0.4256  0.8737  0.8036
14345TIP3   OH264525   6.054   2.865   3.021 -0.1716 -0.4566 -0.2585
14345TIP3    H164526   6.144   2.863   2.987 -0.9826  0.2127 -2.6668
14345TIP3    H264527   6.039   2.777   3.054  1.5709 -0.3900  0.8449
14346TIP3   OH264528   3.436   1.458  11.251  0.2814  0.1622 -0.1124
14346TIP3    H164529   3.362   1.461  11.191 -0.8978  0.8638  1.3223
14346TIP3    H264530   3.508   1.501  11.204 -0.7944  1.2552 -0.7927
14347TIP3   OH264531   3.957   1.916   2.955  0.0346 -0.2179 -0.2259
14347TIP3    H164532   3.934   2.002   2.990  0.4934  0.1819 -0.8850
14347TIP3    H264533   3.906   1.854   3.008 -3.0326  0.6185 -1.9340
14348TIP3   OH264534   3.321   4.525   1.531  0.6259 -0.3661 -0.0228
14348TIP3    H164535   3.368   4.608   1.538  2.5475 -1.3664 -0.4877
14348TIP3    H264536   3.277   4.515   1.616 -0.0084  1.2960 -0.1078
14349TIP3   OH264537   3.024   1.337   0.236 -0.7574  0.4296 -0.1864
14349TIP3    H164538   3.065   1.328   0.322 -1.7093 -0.1699  0.2235
14349TIP3    H264539   3.041   1.428   0.211  0.9973  0.1475 -0.1534
14350TIP3   OH264540   4.413   6.508  16.466 -0.3801 -0.3533  1.0761
14350TIP3    H164541   4.451   6.423  16.490  0.5939 -0.8297 -1.7533
14350TIP3    H264542   4.338   6.486  16.411  0.0707  0.5915  0.0482
14351TIP3   OH264543   0.250   2.116  13.590  0.0899  0.2153 -0.6218
14351TIP3    H164544   0.281   2.048  13.650  0.8886  0.8075 -0.3452
14351TIP3    H264545   0.180   2.074  13.540 -0.1832 -0.4732  0.3110
14352TIP3   OH264546   6.485   4.131   5.904  0.2086 -0.7442 -0.6900
14352TIP3    H164547   6.391   4.118   5.917  0.0811  0.2879 -0.4567
14352TIP3    H264548   6.526   4.058   5.950 -0.4536 -0.7285 -0.0538
14353TIP3   OH264549   0.343   1.828  12.838  0.3571 -0.7853  0.2502
14353TIP3    H164550   0.437   1.829  12.819  0.5924  2.9176  0.7909
14353TIP3    H264551   0.308   1.904  12.791 -2.0811 -1.1321  1.3383
14354TIP3   OH264552   5.834   5.395  11.242 -0.1832  0.8300  0.5121
14354TIP3    H164553   5.746   5.431  11.253 -0.0497  1.2850  0.1437
14354TIP3    H264554   5.887   5.442  11.306 -0.2018  0.5802  0.7103
14355TIP3   OH264555   1.919   5.840   0.889 -0.1636 -0.2856 -0.1427
14355TIP3    H164556   1.836   5.798   0.866 -0.0563  0.1021 -1.3291
14355TIP3    H264557   1.949   5.879   0.807  1.1065 -0.2726  0.3070
14356TIP3   OH264558   4.464   5.289   2.158 -0.0863  0.1647  0.1080
14356TIP3    H164559   4.559   5.289   2.144  0.0825 -0.5296  1.1302
14356TIP3    H264560   4.452   5.247   2.244 -1.4825 -2.3718 -1.1856
14357TIP3   OH264561   5.915   2.229  12.599  0.2544 -0.9991  0.2211
14357TIP3    H164562   6.006   2.228  12.570  0.0578 -1.2114 -0.4175
14357TIP3    H264563   5.914   2.288  12.674  0.5720  0.6092 -0.9832
14358TIP3   OH264564   6.446   6.772  15.562 -0.1563  0.5694  0.0479
14358TIP3    H164565   6.460   6.722  15.482  1.2767  1.3589 -0.2343
14358TIP3    H264566   6.352   6.764  15.580 -0.3838 -0.1425 -1.3445
14359TIP3   OH264567   4.665   2.146   5.760  0.6224 -0.1124  0.6386
14359TIP3    H164568   4.607   2.134   5.836  0.3681  0.4094  0.5299
14359TIP3    H264569   4.685   2.240   5.759 -0.0400  0.0300 -0.4172
14360TIP3   OH264570   4.526   2.256   0.828  0.0221  0.0274  0.2865
14360TIP3    H164571   4.622   2.259   0.833  0.0745 -1.7692  1.6360
14360TIP3    H264572   4.502   2.187   0.891 -2.1741  0.6235  0.1556
14361TIP3   OH264573   3.438   4.102  16.687  0.4781  0.2695  0.3629
14361TIP3    H164574   3.485   4.175  16.728  0.4704  0.3597  0.2097
14361TIP3    H264575   3.359   4.142  16.650 -0.3152 -0.0663  1.6260
14362TIP3   OH264576   5.064   1.581   3.488  0.4040 -0.3309  0.0858
14362TIP3    H164577   5.031   1.545   3.571 -2.7254 -1.4194 -1.4788
14362TIP3    H264578   5.089   1.504   3.437 -1.0800 -0.0065 -1.2299
14363TIP3   OH264579   5.773   3.401  14.096 -0.3404 -0.4257  0.4861
14363TIP3    H164580   5.852   3.429  14.050 -0.2832 -1.1768  0.1095
14363TIP3    H264581   5.722   3.481  14.108 -0.8158 -0.3276 -1.7581
14364TIP3   OH264582   1.565   2.265  13.872 -0.4200 -0.7009 -0.2786
14364TIP3    H164583   1.567   2.196  13.806  3.4326 -0.7449 -0.3776
14364TIP3    H264584   1.524   2.225  13.949  0.0947 -2.5329 -0.9154
14365TIP3   OH264585   5.708   0.150   2.884 -0.1026 -0.1338 -0.0409
14365TIP3    H164586   5.799   0.126   2.904  0.4655 -0.7899 -2.9957
14365TIP3    H264587   5.713   0.241   2.856 -0.6627  0.3359  1.2878
14366TIP3   OH264588   3.772   1.388  14.759 -0.3069  0.0824  0.0279
14366TIP3    H164589   3.826   1.333  14.815 -0.9426 -0.7714 -0.1871
14366TIP3    H264590   3.768   1.472  14.805  0.1148 -0.2497  0.6899
14367TIP3   OH264591   2.861   0.796   5.367 -0.0605  0.8211  0.5357
14367TIP3    H164592   2.788   0.740   5.338  0.0466  0.9090  0.0868
14367TIP3    H264593   2.922   0.795   5.293 -0.0176  1.4623  0.5636
14368TIP3   OH264594   6.613   4.979  15.639  0.3609  0.2551 -0.3048
14368TIP3    H164595   6.573   4.988  15.553  1.8813 -2.4114 -1.4187
14368TIP3    H264596   6.707   4.968  15.621  0.8854  0.7620  1.7923
14369TIP3   OH264597   4.032   4.862   0.307  0.2497 -0.3571 -0.0024
14369TIP3    H164598   4.124   4.883   0.292  0.1943 -1.0126 -1.4114
14369TIP3    H264599   3.998   4.842   0.220 -1.0459 -0.8558  0.6019
14370TIP3   OH264600   1.199   0.246  12.235  0.0397 -0.5703 -0.0114
14370TIP3    H164601   1.274   0.269  12.290  0.3415 -0.1649 -0.5843
14370TIP3    H264602   1.124   0.288  12.278  0.3214  0.0196 -0.0888
14371TIP3   OH264603   0.394   5.580  13.219  0.2448 -0.1095 -0.4079
14371TIP3    H164604   0.449   5.556  13.144  2.5912  2.1497  0.4458
14371TIP3    H264605   0.408   5.674  13.229 -1.4071 -0.0365  1.8047
14372TIP3   OH264606   1.411   4.398  13.533  0.0092 -0.1153  0.2647
14372TIP3    H164607   1.458   4.330  13.483  0.1230 -0.1146  0.3721
14372TIP3    H264608   1.334   4.353  13.567 -0.2014 -0.0527 -0.1236
14373TIP3   OH264609   5.019   3.164   1.466 -0.0402 -0.5209  0.0335
14373TIP3    H164610   4.933   3.206   1.473 -0.3194 -0.8746 -1.0924
14373TIP3    H264611   5.023   3.106   1.542 -1.8144 -2.2682 -1.0970
14374TIP3   OH264612   5.867   2.295   4.324  0.0409  0.0149  0.2411
14374TIP3    H164613   5.781   2.256   4.312 -0.6822  1.4043  0.6676
14374TIP3    H264614   5.921   2.225   4.361 -1.1345 -0.6201  0.7869
14375TIP3   OH264615   3.480   5.269  13.895  0.4240  0.3521 -0.8040
14375TIP3    H164616   3.431   5.192  13.922 -0.7041  0.0467 -3.4535
14375TIP3    H264617   3.544   5.237  13.831  0.2164  1.5366 -1.6447
14376TIP3   OH264618   4.110   5.061   3.496 -0.2520 -0.3681 -0.0017
14376TIP3    H164619   4.203   5.042   3.482 -0.0428  1.6035 -1.6667
14376TIP3    H264620   4.110   5.132   3.560 -0.5465  0.3086 -0.7384
14377TIP3   OH264621   1.465   2.918  14.529  0.5605  0.2978 -0.2594
14377TIP3    H164622   1.468   2.888  14.619 -0.8925 -0.3414 -0.3974
14377TIP3    H264623   1.497   2.844  14.478  0.6656  0.3834 -0.3172
14378TIP3   OH264624   1.527   2.696   4.044 -0.3152 -0.1403  0.3670
14378TIP3    H164625   1.503   2.669   4.133 -0.4308 -0.8119  0.1358
14378TIP3    H264626   1.444   2.725   4.005 -0.4564 -0.8488  0.1313
14379TIP3   OH264627   3.891   2.735  14.710 -0.0028  0.3060  0.4605
14379TIP3    H164628   3.842   2.778  14.639 -0.5399  1.2479  1.3706
14379TIP3    H264629   3.959   2.798  14.733 -0.6463  0.6014  1.6498
14380TIP3   OH264630   3.590   1.089  15.377  0.1627 -0.2799  0.1043
14380TIP3    H164631   3.624   1.063  15.462  0.6990 -0.4992 -0.1677
14380TIP3    H264632   3.657   1.060  15.315  0.2449  0.7493 -0.3110
14381TIP3   OH264633   5.187   1.634   1.923  0.2955 -0.2850  0.2564
14381TIP3    H164634   5.222   1.651   2.011  0.5895 -0.3303  0.1472
14381TIP3    H264635   5.105   1.588   1.939 -0.6362  1.3744  0.5848
14382TIP3   OH264636   2.898   0.163  13.762 -0.2921  0.0100 -0.3319
14382TIP3    H164637   2.938   0.205  13.686 -2.7489  0.1575 -1.6604
14382TIP3    H264638   2.856   0.234  13.810  0.0808 -0.2606  0.4069
14383TIP3   OH264639   5.964   1.191   2.771  0.2035  0.7838 -0.4725
14383TIP3    H164640   5.903   1.118   2.758 -1.0689  1.7997 -0.3641
14383TIP3    H264641   5.973   1.231   2.685  1.0689  0.3851 -0.5750
14384TIP3   OH264642   2.117   1.565   2.421  0.3010  0.1600 -0.6271
14384TIP3    H164643   2.098   1.520   2.504  0.4781 -0.5485 -0.9670
14384TIP3    H264644   2.206   1.598   2.431  0.7666 -0.9623 -0.9833
14385TIP3   OH264645   2.785   6.807  13.459 -0.6492 -0.1899 -0.6502
14385TIP3    H164646   2.714   6.869  13.441 -1.2828 -1.4169 -2.7142
14385TIP3    H264647   2.865   6.855  13.438 -1.0282  0.4390 -0.6834
14386TIP3   OH264648   4.454   5.561  15.188 -1.0106 -0.6642  0.1515
14386TIP3    H164649   4.367   5.579  15.151 -0.8584  0.6939  0.4055
14386TIP3    H264650   4.456   5.613  15.269 -0.2412 -1.2874  0.5353
14387TIP3   OH264651   0.951   0.646  15.374  0.3615  0.5002  0.2153
14387TIP3    H164652   1.037   0.680  15.352  1.1235 -1.8187 -0.7178
14387TIP3    H264653   0.962   0.605  15.460  1.0437 -2.2405 -1.0620
14388TIP3   OH264654   2.826   4.254  12.508  0.2888 -0.0021 -0.5525
14388TIP3    H164655   2.908   4.219  12.544 -0.4034 -1.7771 -0.6064
14388TIP3    H264656   2.759   4.191  12.534 -1.3965  2.2398  0.9037
14389TIP3   OH264657   1.595   5.189   4.601 -0.2476 -0.1287  0.5348
14389TIP3    H164658   1.630   5.223   4.683 -0.2469 -0.1060  0.5252
14389TIP3    H264659   1.500   5.200   4.609 -0.2944 -0.7089  0.7888
14390TIP3   OH264660   1.100   3.481   5.787 -0.9073  0.3638  0.2882
14390TIP3    H164661   1.163   3.547   5.816 -1.2728  0.5874  0.5719
14390TIP3    H264662   1.086   3.425   5.863  0.5143 -0.9451 -0.3497
14391TIP3   OH264663   5.993   2.306  15.490  0.1343  0.2368 -0.1104
14391TIP3    H164664   6.040   2.262  15.419  0.4193  0.1271  0.1423
14391TIP3    H264665   5.917   2.345  15.448  0.8582  1.0769 -0.6752
14392TIP3   OH264666   1.151   0.168   3.736 -0.1760  0.1403 -0.3960
14392TIP3    H164667   1.166   0.234   3.803  0.5852  0.2920 -0.7001
14392TIP3    H264668   1.215   0.189   3.667 -1.9342  0.9294 -1.8812
14393TIP3   OH264669   0.150   1.131  10.211  0.6629 -0.9288  0.0721
14393TIP3    H164670   0.177   1.045  10.177  2.9885 -0.6279  0.9435
14393TIP3    H264671   0.193   1.137  10.296  1.0198  1.3220 -0.2148
14394TIP3   OH264672   3.538   1.689  16.597  0.3676 -0.4579 -0.1077
14394TIP3    H164673   3.583   1.739  16.665 -1.1745  1.5377 -0.4517
14394TIP3    H264674   3.591   1.701  16.519  1.6492 -1.9986  0.4572
14395TIP3   OH264675   5.387   3.168  12.726  0.6440  0.2642 -0.5815
14395TIP3    H164676   5.307   3.133  12.687  0.1775 -0.6839  1.1027
14395TIP3    H264677   5.374   3.263  12.727  0.7455  0.3459 -2.7643
14396TIP3   OH264678   2.281   1.463  16.085  0.7175 -0.0669 -0.1466
14396TIP3    H164679   2.267   1.377  16.044  0.7476 -0.3215  0.3745
14396TIP3    H264680   2.221   1.521  16.038 -2.4297 -1.1700  2.1594
14397TIP3   OH264681   5.401   4.990   1.843  0.5981  0.4661  1.3501
14397TIP3    H164682   5.489   4.967   1.815  0.5921  1.0443  0.8191
14397TIP3    H264683   5.408   5.009   1.936  0.8844 -0.2032  1.4710
14398TIP3   OH264684   3.772   1.074   3.912  0.0858 -0.1382 -0.1663
14398TIP3    H164685   3.802   1.165   3.916 -1.4360  0.5682 -2.6854
14398TIP3    H264686   3.842   1.023   3.953  1.5877  2.0263  0.0926
14399TIP3   OH264687   1.373   4.130  13.699  0.2486 -0.2286  0.3158
14399TIP3    H164688   1.279   4.137  13.713  0.1530 -0.2465 -0.2815
14399TIP3    H264689   1.381   4.065  13.628  0.6534  0.5449 -0.3540
14400TIP3   OH264690   0.858   1.913   1.404  0.2224 -0.1307 -0.1415
14400TIP3    H164691   0.895   1.918   1.492 -0.9847 -0.1982  0.3909
14400TIP3    H264692   0.775   1.961   1.410  0.2503  0.1012 -1.3129
14401TIP3   OH264693   5.997   2.461   1.336  0.1670  0.1304 -0.4344
14401TIP3    H164694   5.953   2.423   1.412 -0.4327  0.2189 -0.7299
14401TIP3    H264695   5.926   2.501   1.285  0.6168  0.4399 -0.8247
14402TIP3   OH264696   4.965   3.312   0.108  0.1983 -0.7489  0.3543
14402TIP3    H164697   5.043   3.284   0.156  0.7558  1.1337  0.6017
14402TIP3    H264698   4.999   3.358   0.032 -0.6716  0.0004  0.4044
14403TIP3   OH264699   2.079   5.767   1.436 -0.1252  0.0680  0.2551
14403TIP3    H164700   2.058   5.773   1.343  0.0526  1.1358  0.2708
14403TIP3    H264701   1.994   5.770   1.480 -0.1515  0.9655  0.1716
14404TIP3   OH264702   5.779   0.638   1.605  0.0090 -0.8261 -0.2675
14404TIP3    H164703   5.766   0.624   1.699 -0.4439 -1.1342 -0.3735
14404TIP3    H264704   5.708   0.697   1.579  0.8928  0.3146 -0.1685
14405TIP3   OH264705   1.459   3.143  15.670  0.1204 -0.1280  0.3418
14405TIP3    H164706   1.528   3.103  15.724  0.8288  0.6299  0.0046
14405TIP3    H264707   1.502   3.162  15.587 -0.4777  0.4320  0.1615
14406TIP3   OH264708   4.006   6.470   0.231 -0.0236  0.2199 -0.2533
14406TIP3    H164709   3.916   6.481   0.199 -0.0114  0.6163 -0.1623
14406TIP3    H264710   3.995   6.447   0.323 -0.0098  1.7260  0.1420
14407TIP3   OH264711   6.042   5.471   2.021 -0.0475  0.3098 -0.4551
14407TIP3    H164712   6.136   5.453   2.014 -0.2095 -0.1831 -1.4120
14407TIP3    H264713   6.011   5.411   2.088  0.2826  0.3401 -0.2727
14408TIP3   OH264714   1.838   2.364  14.327  0.4184  0.5026  0.1149
14408TIP3    H164715   1.833   2.330  14.238 -0.6630  0.5609  0.1325
14408TIP3    H264716   1.875   2.452  14.317  0.8358  0.2909 -0.2091
14409TIP3   OH264717   1.808   3.355   2.119 -0.2638  0.2587  0.2528
14409TIP3    H164718   1.837   3.293   2.185  0.3985  1.3955  1.0814
14409TIP3    H264719   1.838   3.318   2.036 -0.4869 -0.8486  0.6595
14410TIP3   OH264720   2.993   0.229   5.844  0.2283  0.3514  0.1732
14410TIP3    H164721   2.998   0.324   5.852 -2.6654  0.7793 -1.7826
14410TIP3    H264722   2.940   0.201   5.919  0.2462  0.4058  0.2061
14411TIP3   OH264723   1.160   0.199  16.318  0.6257 -0.0514  0.4351
14411TIP3    H164724   1.092   0.176  16.381  0.6512 -4.8190 -0.9408
14411TIP3    H264725   1.239   0.210  16.371  0.1076 -1.2192  1.5019
14412TIP3   OH264726   3.082   3.527  12.318 -0.6776 -0.1681 -0.0851
14412TIP3    H164727   3.067   3.621  12.334 -0.3421 -0.1458  0.1204
14412TIP3    H264728   3.065   3.485  12.402  0.6728 -0.1018  0.2546
14413TIP3   OH264729   4.030   4.319   5.379  0.5583  0.0937  0.0513
14413TIP3    H164730   3.995   4.391   5.431  0.4456 -0.3882  0.6544
14413TIP3    H264731   4.060   4.360   5.298 -0.1550  0.7118  0.0911
14414TIP3   OH264732   6.419   6.453   1.447 -0.1900  0.5849 -0.3273
14414TIP3    H164733   6.372   6.389   1.501 -1.3466 -0.6132 -2.6053
14414TIP3    H264734   6.452   6.402   1.373  1.5593  2.1072 -0.6857
14415TIP3   OH264735   3.514   6.260   2.956 -0.0228 -0.0768  0.4172
14415TIP3    H164736   3.549   6.239   2.870  0.2866  0.8868  0.2937
14415TIP3    H264737   3.424   6.229   2.954 -0.0773  0.1138 -0.3206
14416TIP3   OH264738   0.988   3.044   4.492 -0.0286 -0.7868 -0.0142
14416TIP3    H164739   1.044   2.988   4.548  1.2283  0.9511  0.5574
14416TIP3    H264740   0.924   3.081   4.552 -1.3305 -2.0941 -0.5228
14417TIP3   OH264741   1.321   0.841   2.561  0.0122  0.5702 -0.3504
14417TIP3    H164742   1.240   0.883   2.589 -0.3807 -0.9460  0.9176
14417TIP3    H264743   1.301   0.806   2.474  0.1586  2.4031 -1.1604
14418TIP3   OH264744   1.032   6.471  11.291 -0.6473 -0.4109  0.3449
14418TIP3    H164745   1.058   6.548  11.241 -2.6677  0.1242  0.0140
14418TIP3    H264746   0.951   6.442  11.249 -0.2697 -2.3479  0.8633
14419TIP3   OH264747   1.357   1.687  13.892 -0.3633 -1.4478 -0.2424
14419TIP3    H164748   1.317   1.668  13.807 -1.4460 -0.3662  0.0024
14419TIP3    H264749   1.294   1.654  13.956  0.5732 -2.5157  0.1713
14420TIP3   OH264750   6.210   3.515   2.962  0.2108  0.3431  0.5565
14420TIP3    H164751   6.209   3.603   2.999 -0.5712  0.5559  0.0413
14420TIP3    H264752   6.124   3.504   2.923  0.6432 -0.2829 -0.2510
14421TIP3   OH264753   3.257   3.150   1.015  0.0602  0.7054  0.3907
14421TIP3    H164754   3.278   3.059   0.992  0.6674  0.2235  2.6161
14421TIP3    H264755   3.277   3.200   0.936  2.0433 -0.8073 -0.1388
14422TIP3   OH264756   2.456   6.372  13.985 -0.7694  0.0423  0.0797
14422TIP3    H164757   2.493   6.311  13.921 -1.8270 -1.8763  1.1823
14422TIP3    H264758   2.500   6.455  13.968  2.3048 -1.4851 -0.2165
14423TIP3   OH264759   0.304   1.907  13.801  0.4881  0.4340  0.0355
14423TIP3    H164760   0.268   1.821  13.778  0.2069  0.6358 -0.2804
14423TIP3    H264761   0.371   1.888  13.866 -0.9531  0.1438  1.4956
14424TIP3   OH264762   0.678   6.534  12.597  0.4109 -0.3473 -0.1267
14424TIP3    H164763   0.755   6.584  12.627 -0.0467  0.3763 -0.1310
14424TIP3    H264764   0.635   6.593  12.535  0.9917 -1.5627 -1.7550
14425TIP3   OH264765   6.340   0.307  17.001 -0.3093 -0.0100  0.0149
14425TIP3    H164766   6.358   0.296  16.907  1.8924  0.1565  0.3546
14425TIP3    H264767   6.321   0.400  17.011 -0.9664 -0.1023 -0.3069
14426TIP3   OH264768   1.877   3.874   4.483 -0.1215  0.0236  0.4334
14426TIP3    H164769   1.972   3.885   4.474  0.0606 -1.2200  0.7535
14426TIP3    H264770   1.866   3.788   4.524 -1.3959  0.1096  0.3093
14427TIP3   OH264771   0.592   4.795   4.731  0.2167 -0.3390 -0.3855
14427TIP3    H164772   0.582   4.891   4.735 -0.3029 -0.4227  0.5020
14427TIP3    H264773   0.515   4.765   4.684  0.6669 -0.2891 -1.1809
14428TIP3   OH264774   5.922   3.045   1.105  0.2360  0.2356 -0.5750
14428TIP3    H164775   5.933   2.979   1.036  2.7739 -0.6604  0.5666
14428TIP3    H264776   5.902   3.126   1.057 -0.3081 -0.7865 -2.1778
14429TIP3   OH264777   1.772   5.206   1.008 -0.2701  0.4655  0.1029
14429TIP3    H164778   1.859   5.243   1.022  0.6923 -1.5464 -0.1716
14429TIP3    H264779   1.711   5.276   1.032  1.4110  1.5114  1.4910
14430TIP3   OH264780   3.862   3.614  14.982  0.0854 -0.2491  0.2209
14430TIP3    H164781   3.767   3.613  14.966 -0.3960 -2.9446  2.5304
14430TIP3    H264782   3.870   3.601  15.076  2.7974  1.9115  0.3924
14431TIP3   OH264783   0.006   5.924  14.184  0.5286 -0.0451 -0.0810
14431TIP3    H164784   0.081   5.981  14.198  0.6462 -0.2704  0.2230
14431TIP3    H264785  -0.064   5.982  14.155  1.0444  0.0568 -1.1422
14432TIP3   OH264786   3.713   6.452  12.658  0.5241 -0.0936 -0.8806
14432TIP3    H164787   3.711   6.381  12.723  1.2858 -0.4213 -1.1984
14432TIP3    H264788   3.632   6.501  12.673  0.8615  0.0757  0.5894
14433TIP3   OH264789   5.204   1.904  10.833  0.0678 -0.1617  0.3309
14433TIP3    H164790   5.279   1.848  10.855  1.3750  1.1557 -0.5569
14433TIP3    H264791   5.226   1.939  10.746 -1.5584  0.3310  0.0956
14434TIP3   OH264792   1.398   2.542   5.694 -0.4863 -0.1796 -0.0806
14434TIP3    H164793   1.306   2.520   5.711  0.0485 -1.3021  1.5920
14434TIP3    H264794   1.432   2.465   5.648 -0.5736  0.6127 -1.5272
14435TIP3   OH264795   5.843   6.430  12.861 -0.3472 -0.4157  0.0386
14435TIP3    H164796   5.911   6.391  12.806 -0.9626  0.9095 -1.7579
14435TIP3    H264797   5.763   6.383  12.837 -0.0616 -2.3886  2.5811
14436TIP3   OH264798   4.591   5.771  16.328  0.1771  0.0969 -0.4748
14436TIP3    H164799   4.597   5.681  16.360  1.7764 -0.1135 -1.2858
14436TIP3    H264800   4.682   5.796  16.311 -0.3031  1.6588 -0.8243
14437TIP3   OH264801   6.295   0.944   5.198 -1.0634  0.4035  0.0030
14437TIP3    H164802   6.294   0.869   5.139  2.5624 -1.6425  2.1205
14437TIP3    H264803   6.240   0.917   5.272 -0.4300  0.1267  0.3853
14438TIP3   OH264804   1.169   5.856  13.127 -0.0990  0.3037  0.1136
14438TIP3    H164805   1.249   5.906  13.143 -0.3664  0.3722  1.3078
14438TIP3    H264806   1.200   5.767  13.106  0.2821  0.2247  0.9764
14439TIP3   OH264807   5.321   1.505  17.034  0.0364 -0.3270 -0.1322
14439TIP3    H164808   5.392   1.441  17.035  1.1023  0.8341  0.2122
14439TIP3    H264809   5.275   1.492  17.117  0.8322 -0.0217  0.3671
14440TIP3   OH264810   2.071   0.057   0.889  0.2316  0.2890  0.2627
14440TIP3    H164811   2.056   0.089   0.800  0.9511 -0.9605 -0.3383
14440TIP3    H264812   1.984   0.040   0.924 -0.0252 -1.1611 -0.9712
14441TIP3   OH264813   4.683   0.792   5.398 -0.0224  0.0359 -0.4514
14441TIP3    H164814   4.596   0.796   5.358 -1.3952  0.4620  2.3645
14441TIP3    H264815   4.703   0.883   5.418  0.0880 -0.2600  0.8410
14442TIP3   OH264816   6.269   5.351   2.925  0.2189 -0.3558 -0.0003
14442TIP3    H164817   6.346   5.378   2.975 -0.2209 -1.4233  1.3248
14442TIP3    H264818   6.291   5.262   2.896 -0.7065 -0.9024  0.8949
14443TIP3   OH264819   3.406   2.087  12.638 -0.3294  0.5437  0.3593
14443TIP3    H164820   3.425   1.997  12.612 -0.4203  0.6558 -0.0971
14443TIP3    H264821   3.437   2.092  12.729  0.2073  0.2188  0.2015
14444TIP3   OH264822   6.028   2.620  16.159  0.0249 -0.3133  0.2768
14444TIP3    H164823   6.076   2.620  16.242  1.9076  0.8160 -0.7604
14444TIP3    H264824   5.981   2.536  16.159  0.8486 -0.8216  1.9887
14445TIP3   OH264825   4.636   4.239   0.496  0.1432 -0.6171  0.0607
14445TIP3    H164826   4.624   4.334   0.502  1.5077 -0.4587  0.6619
14445TIP3    H264827   4.730   4.226   0.511  0.4391 -1.8722 -2.3698
14446TIP3   OH264828   3.999   3.482  16.214 -0.3181 -0.7577 -0.5131
14446TIP3    H164829   4.063   3.460  16.282  0.9375  0.6666 -1.1801
14446TIP3    H264830   3.934   3.536  16.259  2.0153  2.6383 -0.9035
14447TIP3   OH264831   2.959   6.264   4.672  0.5290  0.0909 -0.3292
14447TIP3    H164832   2.973   6.173   4.644  0.2303  0.0328 -0.2951
14447TIP3    H264833   3.000   6.269   4.758  0.1183 -0.1506 -0.1137
14448TIP3   OH264834   1.414   3.103   3.973  0.2018  0.4067  0.4280
14448TIP3    H164835   1.492   3.090   4.027 -0.2893 -0.6416  0.9216
14448TIP3    H264836   1.343   3.066   4.024 -0.2329 -0.9508 -1.0752
14449TIP3   OH264837   4.811   6.664   6.118  0.0774 -0.1140 -0.1861
14449TIP3    H164838   4.724   6.678   6.081 -0.0088 -0.0183  0.0478
14449TIP3    H264839   4.864   6.736   6.085  0.2902 -0.6453 -1.0167
14450TIP3   OH264840   0.117   3.641   2.299 -0.7077  0.2420 -0.4793
14450TIP3    H164841   0.122   3.577   2.370  0.6493  0.6562 -0.1894
14450TIP3    H264842   0.042   3.611   2.246 -0.8424 -0.8890  0.3117
14451TIP3   OH264843   2.812   5.691  14.158 -0.0329 -0.1583  0.1950
14451TIP3    H164844   2.893   5.718  14.114 -0.5416  1.3223  0.1094
14451TIP3    H264845   2.746   5.751  14.125 -0.9970 -0.7797  0.9441
14452TIP3   OH264846   2.617   5.609   2.916  0.2496  0.2380  0.3196
14452TIP3    H164847   2.689   5.647   2.967  0.6768 -0.3516  0.1683
14452TIP3    H264848   2.582   5.682   2.866  0.4749  0.6200  0.7148
14453TIP3   OH264849   0.061   1.194  12.685 -0.3119 -0.3384  0.2263
14453TIP3    H164850   0.085   1.220  12.596 -1.5748 -0.1404 -0.0863
14453TIP3    H264851   0.098   1.262  12.741 -0.4170  0.1194 -0.2522
14454TIP3   OH264852   6.657   5.579   1.439 -0.2181  0.4716  0.3674
14454TIP3    H164853   6.641   5.549   1.528  0.3424  1.7396  0.9253
14454TIP3    H264854   6.718   5.653   1.449  1.2076 -0.4233 -1.1935
14455TIP3   OH264855   2.982   1.801   4.055 -0.1068  0.4858  0.1440
14455TIP3    H164856   3.077   1.794   4.060 -0.0999  1.3323  2.0351
14455TIP3    H264857   2.950   1.719   4.093 -0.1493  0.1956 -0.5030
14456TIP3   OH264858   2.774   1.327  13.288 -0.3078 -0.2435  0.0657
14456TIP3    H164859   2.701   1.350  13.345 -1.3317 -0.2469 -1.1867
14456TIP3    H264860   2.780   1.232  13.293  0.8991 -0.1343  1.6421
14457TIP3   OH264861   4.815   2.827  10.779 -0.3870 -0.0855 -0.1973
14457TIP3    H164862   4.853   2.914  10.792 -0.6387 -0.2463  1.9785
14457TIP3    H264863   4.887   2.775  10.742  0.6143  0.3991  0.9822
14458TIP3   OH264864   1.028   6.414   3.137  0.3957  0.4740 -0.1364
14458TIP3    H164865   0.936   6.390   3.147  0.0442  0.8653 -2.1047
14458TIP3    H264866   1.075   6.331   3.139 -0.0412  0.2333  0.3420
14459TIP3   OH264867   1.670   2.070  12.116  0.0547  0.0524  0.2776
14459TIP3    H164868   1.648   1.977  12.112  0.6408 -0.1968  2.1099
14459TIP3    H264869   1.710   2.082  12.202  1.4410  1.7041 -0.5365
14460TIP3   OH264870   4.896   6.476  14.897 -0.2528 -0.4876 -0.1063
14460TIP3    H164871   4.907   6.511  14.985 -1.4145  1.6592 -0.7504
14460TIP3    H264872   4.960   6.523  14.844 -0.5502 -0.7136 -0.6735
14461TIP3   OH264873   5.477   1.550   2.845 -0.0517  0.0860 -0.3722
14461TIP3    H164874   5.458   1.626   2.791 -0.5245  0.3329  0.1330
14461TIP3    H264875   5.493   1.479   2.783 -2.0721  0.0007 -0.8528
14462TIP3   OH264876   6.117   2.980   2.695  0.6409  0.2243 -0.0470
14462TIP3    H164877   6.101   2.894   2.655  1.6486  0.0438 -0.1088
14462TIP3    H264878   6.059   2.982   2.770  1.2919 -0.9405  0.5259
14463TIP3   OH264879   0.169   1.792  11.035  0.5018  0.0354 -0.2884
14463TIP3    H164880   0.252   1.746  11.026  1.2489  1.2361  0.2534
14463TIP3    H264881   0.180   1.871  10.982 -0.5316 -0.0889 -0.7137
14464TIP3   OH264882   2.560   5.884  11.758 -0.0657  0.5143 -0.0591
14464TIP3    H164883   2.568   5.980  11.751  1.2487  0.3807 -0.8781
14464TIP3    H264884   2.642   5.857  11.800 -0.6924 -0.2121  0.7195
14465TIP3   OH264885   2.060   6.342   3.500 -0.2052 -0.1991  0.4676
14465TIP3    H164886   2.048   6.398   3.424 -0.3329 -0.2344  0.4625
14465TIP3    H264887   1.974   6.336   3.540  0.0041  0.4124  1.0339
14466TIP3   OH264888   6.395   1.557  10.310  0.3043 -0.8446  0.2929
14466TIP3    H164889   6.321   1.618  10.318  0.6515 -0.2728 -0.6771
14466TIP3    H264890   6.444   1.568  10.391 -0.6100 -1.1533  0.9023
14467TIP3   OH264891   5.421   1.481  15.966  0.2668  0.0618 -0.1116
14467TIP3    H164892   5.367   1.514  16.038  0.7069  0.4000  0.0671
14467TIP3    H264893   5.384   1.523  15.888 -0.8186 -1.0375 -0.2251
14468TIP3   OH264894   2.332   6.675   4.236 -0.3167 -0.2102  0.5810
14468TIP3    H164895   2.363   6.707   4.320 -1.5154  0.0514  0.9503
14468TIP3    H264896   2.375   6.731   4.171 -0.6938  0.7078  1.1157
14469TIP3   OH264897   5.255   4.390  16.999 -0.1545  0.8311 -0.0739
14469TIP3    H164898   5.283   4.473  17.037 -1.5775  1.5388 -0.4833
14469TIP3    H264899   5.290   4.324  17.058 -1.5432  1.8518  2.0363
14470TIP3   OH264900   3.002   4.215  14.035 -0.5730 -0.2711 -0.4723
14470TIP3    H164901   2.922   4.268  14.036 -0.9039 -0.7645 -0.4672
14470TIP3    H264902   2.982   4.140  14.092  0.0285 -0.1985 -0.1588
14471TIP3   OH264903   1.271   2.739  13.216  1.0122 -0.3695 -0.6394
14471TIP3    H164904   1.223   2.794  13.154 -2.7110 -1.2981  1.1453
14471TIP3    H264905   1.234   2.652  13.204  1.3180 -0.8898  1.7271
14472TIP3   OH264906   5.693   0.707  10.696 -0.2795  0.0932  0.3819
14472TIP3    H164907   5.627   0.776  10.690 -1.3740 -0.9419  0.1245
14472TIP3    H264908   5.716   0.688  10.605  0.5717  0.6122  0.4779
14473TIP3   OH264909   2.478   2.661   2.582 -0.1064  0.3206  0.3565
14473TIP3    H164910   2.455   2.754   2.584 -0.0775  0.3202  0.6723
14473TIP3    H264911   2.405   2.620   2.535  0.5848  0.7025 -1.1412
14474TIP3   OH264912   6.635   0.413  13.575  0.1431  0.1059 -0.1596
14474TIP3    H164913   6.552   0.372  13.550 -0.4945  0.9659  0.4674
14474TIP3    H264914   6.699   0.380  13.512 -1.1799  1.4303 -2.3503
14475TIP3   OH264915   5.273   4.518  12.460 -0.3048 -0.4995  0.0744
14475TIP3    H164916   5.353   4.512  12.409  0.2273 -2.3734  1.0525
14475TIP3    H264917   5.299   4.494  12.549 -1.7106  0.1295  0.6923
14476TIP3   OH264918   2.277   1.021  12.193  0.1686 -0.3926 -0.3253
14476TIP3    H164919   2.280   0.951  12.129  0.7995 -0.2260 -0.4783
14476TIP3    H264920   2.192   1.011  12.236 -0.9686  0.4406 -2.2470
14477TIP3   OH264921   6.669   2.514  10.955 -0.2079 -0.2003  0.0909
14477TIP3    H164922   6.584   2.510  10.909  0.3034 -2.0975 -0.8043
14477TIP3    H264923   6.734   2.500  10.886  0.8445  0.8604  0.8276
14478TIP3   OH264924   4.682   4.220   1.815 -0.8033 -0.7160  0.2855
14478TIP3    H164925   4.730   4.302   1.811  0.2377 -1.3616 -1.8602
14478TIP3    H264926   4.593   4.242   1.787 -0.9006 -0.1011  1.0509
14479TIP3   OH264927   6.518   0.843   2.272 -0.1328 -1.0853 -0.1162
14479TIP3    H164928   6.536   0.874   2.360  0.1240 -0.5931 -0.3405
14479TIP3    H264929   6.430   0.806   2.277 -0.9831  0.8311 -0.1355
14480TIP3   OH264930   6.076   1.946   0.223  0.1305 -0.0234  0.4175
14480TIP3    H164931   6.004   1.934   0.284  0.9514  0.8975  1.6209
14480TIP3    H264932   6.119   1.860   0.219 -0.7966 -0.4732 -0.0169
14481TIP3   OH264933   5.266   4.578  14.909 -0.8135  0.6263 -0.6662
14481TIP3    H164934   5.254   4.523  14.986 -0.3978 -0.0610 -1.0857
14481TIP3    H264935   5.237   4.524  14.835 -0.9163  1.1664 -1.0329
14482TIP3   OH264936   1.428   0.928   0.208  0.0099  0.8861 -0.2232
14482TIP3    H164937   1.366   0.919   0.281 -0.4436  0.1186 -0.6897
14482TIP3    H264938   1.373   0.939   0.131  0.3891 -1.2048 -0.8431
14483TIP3   OH264939   3.364   5.397   5.914 -0.6323  0.1962  0.0049
14483TIP3    H164940   3.366   5.414   6.008 -0.8004 -0.5512  0.1437
14483TIP3    H264941   3.271   5.398   5.891 -0.5817  0.5946 -0.1978
14484TIP3   OH264942   0.452   1.212  14.833  0.3567  0.4534 -0.7612
14484TIP3    H164943   0.525   1.174  14.785  0.8497 -0.2409  0.5046
14484TIP3    H264944   0.461   1.179  14.922 -1.2314  0.7361 -0.4569
14485TIP3   OH264945   2.909   1.755   3.486  0.5865 -0.1296  0.0525
14485TIP3    H164946   2.949   1.728   3.403  0.1996  0.3424 -0.2935
14485TIP3    H264947   2.845   1.822   3.461  0.1679 -0.2852  0.6901
14486TIP3   OH264948   1.047   0.085   0.230 -0.0304  0.4768  0.3301
14486TIP3    H164949   0.981   0.110   0.165 -0.1552 -0.2521  0.1699
14486TIP3    H264950   1.005   0.104   0.314 -0.5707 -0.2644  0.2394
14487TIP3   OH264951   2.866   0.809   1.312 -0.2812  0.1077 -0.5806
14487TIP3    H164952   2.772   0.823   1.306 -0.1875  0.6395 -0.8775
14487TIP3    H264953   2.895   0.797   1.222  0.2958  2.4950 -0.7799
14488TIP3   OH264954   4.909   4.220   3.591 -0.2855  0.3000  0.1313
14488TIP3    H164955   5.000   4.250   3.598 -0.3058  0.2776  0.5369
14488TIP3    H264956   4.887   4.190   3.679 -0.9580  1.0988  0.2550
14489TIP3   OH264957   0.698   1.448   0.079 -0.1149 -0.1927  0.0900
14489TIP3    H164958   0.728   1.408   0.160  1.5361  0.1716 -0.2963
14489TIP3    H264959   0.619   1.496   0.103  0.1653 -0.3655  1.4091
14490TIP3   OH264960   4.974   2.344   2.239  0.2302  0.1670 -0.0609
14490TIP3    H164961   4.918   2.271   2.265  2.3695 -1.3325  0.7153
14490TIP3    H264962   5.061   2.305   2.232  1.1796  2.3404 -1.2964
14491TIP3   OH264963   5.251   5.872  14.528  0.0714 -0.0301  0.2880
14491TIP3    H164964   5.285   5.953  14.490  0.1155 -0.1028  0.1719
14491TIP3    H264965   5.327   5.813  14.530  0.0352 -0.0745  0.3561
14492TIP3   OH264966   0.314   1.607   0.949  0.4685  0.1542  0.6293
14492TIP3    H164967   0.301   1.630   0.857  1.7125 -1.3137  0.0470
14492TIP3    H264968   0.371   1.677   0.983  0.9641  0.0836 -0.0370
14493TIP3   OH264969   2.269   1.757   3.542  0.0246 -0.2117 -0.2348
14493TIP3    H164970   2.274   1.701   3.465  0.2884 -0.4134 -0.0737
14493TIP3    H264971   2.358   1.756   3.578  0.4794  1.6779 -1.1854
14494TIP3   OH264972   0.303   0.407  13.822 -0.2783 -0.5298  0.4394
14494TIP3    H164973   0.393   0.431  13.843 -0.3986  0.7322 -0.3809
14494TIP3    H264974   0.285   0.452  13.739 -2.1358  0.4696  1.3260
14495TIP3   OH264975   4.928   6.054   1.107  0.1465  0.1063 -0.3625
14495TIP3    H164976   4.832   6.051   1.113  0.0950  1.6270 -0.0001
14495TIP3    H264977   4.956   5.969   1.140 -1.0567 -0.0070  0.4480
14496TIP3   OH264978   2.020   1.030   5.196 -0.1725  0.2297  0.2749
14496TIP3    H164979   1.951   0.967   5.174  0.3764 -0.0094 -0.8280
14496TIP3    H264980   2.097   1.000   5.147  0.6976  0.5505  1.4030
14497TIP3   OH264981   1.489   2.968   1.465 -0.2165 -0.2992  0.2499
14497TIP3    H164982   1.520   3.055   1.492  0.7898 -0.9778  1.3702
14497TIP3    H264983   1.395   2.980   1.451  0.0196  1.1281 -0.3190
14498TIP3   OH264984   0.341   3.730  14.456  0.2458  0.4749  0.0690
14498TIP3    H164985   0.323   3.653  14.509 -0.7680  1.1898  0.7960
14498TIP3    H264986   0.255   3.761  14.428  0.6693  1.0776 -0.5991
14499TIP3   OH264987   0.309   3.219   6.993 -0.6403 -0.0722  0.1912
14499TIP3    H164988   0.404   3.217   6.992 -0.6124  0.0509  1.2946
14499TIP3    H264989   0.284   3.226   6.900  0.4252  0.4321 -0.0759
14500TIP3   OH264990   6.066   2.743   0.402 -0.0229  0.1887 -0.0045
14500TIP3    H164991   6.047   2.760   0.310 -1.1986 -0.7832  0.0386
14500TIP3    H264992   5.992   2.781   0.449  1.6767  2.7993  0.7856
14501TIP3   OH264993   6.644   1.138  16.608  0.4286 -0.4244  0.4116
14501TIP3    H164994   6.646   1.233  16.594 -2.6157 -0.2004  0.8664
14501TIP3    H264995   6.702   1.124  16.683  0.4372  1.1694  0.7469
14502TIP3   OH264996   3.653   0.106  16.692 -0.2686 -0.3013 -0.6256
14502TIP3    H164997   3.692   0.128  16.607 -0.7567 -1.0371 -1.0403
14502TIP3    H264998   3.574   0.057  16.671 -0.7085  0.0106  0.2475
14503TIP3   OH264999   3.065   4.448  11.844  0.1195 -0.2536  0.2702
14503TIP3    H165000   2.990   4.489  11.886  1.7867  0.3144  2.9810
14503TIP3    H265001   3.118   4.522  11.814  0.5075 -0.5887  0.1235
14504TIP3   OH265002   5.729   2.619  17.009 -0.3440 -0.6960 -0.4517
14504TIP3    H165003   5.721   2.671  16.929  1.6567 -1.5654 -1.2647
14504TIP3    H265004   5.701   2.679  17.079  0.6840  1.0765 -1.4778
14505TIP3   OH265005   0.148   1.375   5.828 -0.1178 -0.0769  1.1308
14505TIP3    H165006   0.052   1.378   5.824 -0.0599  1.4636 -0.3303
14505TIP3    H265007   0.171   1.289   5.792 -0.9397 -0.3210  1.1644
14506TIP3   OH265008   1.049   4.520   3.323  0.1652  0.1277 -0.5332
14506TIP3    H165009   1.125   4.505   3.378  1.1458 -0.0211 -1.8821
14506TIP3    H265010   1.054   4.452   3.256 -1.1365  0.1493 -0.6767
14507TIP3   OH265011   2.165   3.333   5.017  0.2483 -0.3938 -0.1331
14507TIP3    H165012   2.079   3.340   4.975 -0.0322 -1.1016  0.3041
14507TIP3    H265013   2.146   3.313   5.109  0.8469  1.5407  0.4457
14508TIP3   OH265014   1.451   3.558   0.793 -0.1660 -0.7981 -0.2524
14508TIP3    H165015   1.372   3.602   0.825  0.8732  0.0073  1.4005
14508TIP3    H265016   1.424   3.468   0.775 -1.5326 -0.4402 -0.0871
14509TIP3   OH265017   0.214   6.149   0.682 -0.2220 -0.0998  0.1810
14509TIP3    H165018   0.176   6.066   0.653 -1.6558  0.9677 -1.1329
14509TIP3    H265019   0.269   6.177   0.609 -0.0292  0.3005  0.4744
14510TIP3   OH265020   5.079   6.566   3.953  0.0542  0.2823  0.4937
14510TIP3    H165021   5.011   6.620   3.912 -0.3698 -0.3127  0.3921
14510TIP3    H265022   5.160   6.616   3.942 -0.2077  0.5578 -0.2527
14511TIP3   OH265023   2.712   0.508   2.832 -0.6041  0.5993  0.2549
14511TIP3    H165024   2.730   0.602   2.829 -0.6013  0.6287  1.0780
14511TIP3    H265025   2.752   0.474   2.752  2.3963  0.7758  1.5338
14512TIP3   OH265026   2.119   2.174   0.091 -0.5574 -0.4812 -0.0033
14512TIP3    H165027   2.172   2.108   0.045 -2.9318 -2.0733 -0.6667
14512TIP3    H265028   2.065   2.213   0.023  0.0618  1.4848  0.5666
14513TIP3   OH265029   1.774   0.852  13.107 -0.3497 -0.2511 -0.1852
14513TIP3    H165030   1.819   0.886  13.185  1.2659 -1.6644 -0.4463
14513TIP3    H265031   1.775   0.757  13.118 -3.1092 -0.3861 -0.3705
14514TIP3   OH265032   5.801   6.095  12.810  0.7299 -0.5779  0.0945
14514TIP3    H165033   5.769   6.178  12.774  2.6638  0.7925  1.3839
14514TIP3    H265034   5.757   6.029  12.756 -1.8137  1.1836 -0.2232
14515TIP3   OH265035   0.824   1.795  13.997  0.5305 -0.4725  0.3411
14515TIP3    H165036   0.819   1.818  14.089  2.2176 -1.1949  0.6335
14515TIP3    H265037   0.770   1.861  13.953  0.8748  0.7403  1.6885
14516TIP3   OH265038   5.297   5.623   3.917 -0.1312 -0.2477  0.5388
14516TIP3    H165039   5.210   5.585   3.930 -0.6943  1.3961  1.9818
14516TIP3    H265040   5.296   5.655   3.827 -1.6285  1.1319  1.0051
14517TIP3   OH265041   5.796   1.200  14.421  0.5327  0.0928 -0.4457
14517TIP3    H165042   5.808   1.276  14.478 -2.4183  0.7920 -0.5558
14517TIP3    H265043   5.781   1.238  14.334 -0.6348 -0.5891 -0.5699
14518TIP3   OH265044   5.970   3.367   1.234 -0.2046  0.8617 -0.2938
14518TIP3    H165045   5.987   3.297   1.296  0.4482 -0.6826 -2.1234
14518TIP3    H265046   5.879   3.393   1.250 -0.7860 -1.0880 -0.2101
14519TIP3   OH265047   3.715   2.648  16.564  0.4547 -0.0119  0.7166
14519TIP3    H165048   3.733   2.740  16.579  2.5067 -0.2117 -0.2159
14519TIP3    H265049   3.682   2.643  16.475 -2.0132  0.0333  1.5466
14520TIP3   OH265050   3.338   1.979  13.333 -0.5225  0.6360 -0.4567
14520TIP3    H165051   3.406   1.943  13.390 -1.7096 -0.1517  0.5242
14520TIP3    H265052   3.318   1.908  13.272 -1.0438  0.5448 -0.1881
14521TIP3   OH265053   0.904   6.170   5.602 -0.2133  0.2887  0.1975
14521TIP3    H165054   0.950   6.188   5.684  0.2347  0.5392 -0.1001
14521TIP3    H265055   0.811   6.175   5.625 -0.1130 -1.0011  0.9777
14522TIP3   OH265056   6.630   4.039   0.771 -0.4835 -0.5689 -0.2424
14522TIP3    H165057   6.539   4.014   0.751 -0.7306 -0.6654  0.9233
14522TIP3    H265058   6.631   4.049   0.866  0.9096 -1.2330 -0.1767
14523TIP3   OH265059   3.946   0.585  14.988 -0.4039 -0.0237 -0.3156
14523TIP3    H165060   3.890   0.641  15.041 -0.2271 -1.8919  2.0047
14523TIP3    H265061   4.034   0.597  15.023 -0.5289 -2.5391  1.0989
14524TIP3   OH265062   5.084   2.302   2.843 -0.0697  0.1261 -0.6175
14524TIP3    H165063   5.058   2.394   2.834  0.5583  0.4388  0.6341
14524TIP3    H265064   5.109   2.276   2.754  0.2145  1.3078 -0.8984
14525TIP3   OH265065   5.124   6.361   0.627  0.2995 -0.4634 -0.1307
14525TIP3    H165066   5.136   6.386   0.535  0.7492 -1.5343 -0.3829
14525TIP3    H265067   5.045   6.306   0.626 -1.0604  1.3615  0.5143
14526TIP3   OH265068   0.051   6.411  15.110 -0.2067  0.5432  0.1180
14526TIP3    H165069   0.029   6.497  15.144 -0.7419  0.1844  0.7009
14526TIP3    H265070  -0.025   6.356  15.131  0.8243 -0.4951  1.3461
14527TIP3   OH265071   0.124   2.183   3.087 -0.0599  0.2111  0.1671
14527TIP3    H165072   0.035   2.150   3.081  0.1490 -0.1564 -1.7350
14527TIP3    H265073   0.119   2.272   3.051  0.0480  0.8932  1.7519
14528TIP3   OH265074   3.092   2.464   4.365  0.2044 -0.1064 -0.1822
14528TIP3    H165075   3.000   2.437   4.369 -0.4283  1.9778  1.4217
14528TIP3    H265076   3.140   2.390   4.402 -1.0829 -0.3635  1.0882
14529TIP3   OH265077   4.064   4.703  13.529 -0.1414 -0.3412 -0.5018
14529TIP3    H165078   4.114   4.782  13.549  0.1672 -0.1124 -2.0036
14529TIP3    H265079   4.021   4.679  13.611 -0.1938  1.3456 -0.0080
14530TIP3   OH265080   2.180   0.527  12.497 -0.4683  0.3167  0.3935
14530TIP3    H165081   2.237   0.462  12.456 -2.4511 -0.1674 -1.8272
14530TIP3    H265082   2.093   0.488  12.493 -1.6406  2.8466 -0.4803
14531TIP3   OH265083   1.935   3.526  11.694  0.6470 -0.2058 -0.3839
14531TIP3    H165084   1.982   3.605  11.720 -0.1779  0.1145  0.2084
14531TIP3    H265085   1.915   3.539  11.602  0.2060  0.4595 -0.2036
14532TIP3   OH265086   4.576   4.109  12.689 -0.1875 -0.7350 -0.3161
14532TIP3    H165087   4.557   4.198  12.717  0.8566 -0.4962 -0.3047
14532TIP3    H265088   4.497   4.059  12.710 -0.3379 -0.0647  0.7928
14533TIP3   OH265089   4.192   4.025  13.999  0.6141  0.6329  0.4479
14533TIP3    H165090   4.104   3.994  14.018  0.5394 -0.0107 -0.8338
14533TIP3    H265091   4.250   3.954  14.026  0.8337  1.3452  1.9799
14534TIP3   OH265092   2.839   6.081  13.742  0.2038 -0.0058  0.6011
14534TIP3    H165093   2.806   6.063  13.830 -1.7496 -0.2572 -0.1368
14534TIP3    H265094   2.892   6.160  13.752 -1.4745  1.0350  1.7140
14535TIP3   OH265095   6.426   1.084  12.221  0.0032 -0.2743 -0.3173
14535TIP3    H165096   6.455   1.032  12.295  0.8636 -0.6401 -0.8917
14535TIP3    H265097   6.424   1.023  12.147  1.0000  0.4693 -0.9964
14536TIP3   OH265098   5.132   1.383   6.153 -0.0234 -0.1653  0.0618
14536TIP3    H165099   5.137   1.288   6.163  0.1710 -0.0309  1.4721
14536TIP3    H265100   5.223   1.413   6.154 -0.0984  0.0683  0.0508
14537TIP3   OH265101   5.465   6.195  14.147 -0.2410 -0.0375  0.4811
14537TIP3    H165102   5.411   6.117  14.129  1.5594 -1.5981  1.4558
14537TIP3    H265103   5.555   6.165  14.134  0.4681  2.6701 -1.7727
14538TIP3   OH265104   3.163   5.244   4.961 -0.4943  0.3116  0.5212
14538TIP3    H165105   3.172   5.189   5.039 -3.2682  0.5703  1.1331
14538TIP3    H265106   3.237   5.304   4.965  0.1475 -0.5365  2.2450
14539TIP3   OH265107   0.825   3.817   2.565 -0.2268 -0.3716  0.7498
14539TIP3    H165108   0.749   3.764   2.589 -1.2131 -0.1595 -1.5967
14539TIP3    H265109   0.800   3.907   2.589 -0.7569 -0.3013 -0.0156
14540TIP3   OH265110   0.008   0.040  15.887 -0.0176  0.1248 -0.5594
14540TIP3    H165111   0.089  -0.003  15.862 -1.1582 -1.4489 -1.7738
14540TIP3    H265112  -0.052   0.024  15.814 -1.7809  0.2169  0.7901
14541TIP3   OH265113   3.922   3.978   5.024 -0.5569  0.3321  0.3847
14541TIP3    H165114   3.999   3.922   5.026 -0.5976  0.1721 -1.1798
14541TIP3    H265115   3.956   4.067   5.033 -0.1437  0.2854 -0.5992
14542TIP3   OH265116   1.999   4.092   4.593 -0.1472 -0.3375  0.0960
14542TIP3    H165117   1.977   4.169   4.541  0.3208 -0.3286 -0.0893
14542TIP3    H265118   1.932   4.028   4.571 -1.2061  0.3897  1.0947
14543TIP3   OH265119   1.015   0.480   1.030  0.0195  0.0566  0.1290
14543TIP3    H165120   1.082   0.423   0.993  1.5203  0.1266  2.4779
14543TIP3    H265121   0.947   0.419   1.061  0.2186 -0.2367 -0.0034
14544TIP3   OH265122   4.229   5.146   6.035  0.0825 -0.0912 -0.1275
14544TIP3    H165123   4.144   5.144   5.991  0.2371  0.2676 -0.4470
14544TIP3    H265124   4.214   5.201   6.112 -0.2699 -0.9806  0.4548
14545TIP3   OH265125   5.623   4.036  13.563 -0.0813  0.0582 -0.2703
14545TIP3    H165126   5.594   3.969  13.625 -1.8305  0.7373 -0.3023
14545TIP3    H265127   5.710   4.061  13.593 -0.4656 -0.3776  1.2841
14546TIP3   OH265128   3.767   1.849  12.025  0.4480  0.2010  0.0369
14546TIP3    H165129   3.731   1.934  11.998 -0.6915 -0.3056 -0.0635
14546TIP3    H265130   3.860   1.855  12.001  1.1516  2.5524  2.7170
14547TIP3   OH265131   4.460   1.308   1.234  0.0174 -0.0608 -0.3374
14547TIP3    H165132   4.390   1.248   1.260  0.8148 -0.8222  0.1058
14547TIP3    H265133   4.490   1.276   1.149 -0.0071  0.1193 -0.4149
14548TIP3   OH265134   0.257   4.742   4.703  0.3971  0.4054 -0.0101
14548TIP3    H165135   0.292   4.789   4.779 -0.5660 -1.2591  1.5368
14548TIP3    H265136   0.183   4.795   4.673  0.6145  0.9298  0.3595
14549TIP3   OH265137   2.049   5.712  13.201 -0.0329  0.2980 -0.3786
14549TIP3    H165138   2.128   5.660  13.210  0.8891  1.5330 -1.0867
14549TIP3    H265139   2.070   5.777  13.135 -0.7432  2.2577  1.2114
14550TIP3   OH265140   6.070   1.063   2.389 -0.2625  0.1275 -0.0079
14550TIP3    H165141   6.065   1.026   2.300 -1.2618  1.1503 -0.3933
14550TIP3    H265142   5.984   1.101   2.404  0.2845  1.0314  0.9399
14551TIP3   OH265143   4.986   4.850  12.490 -0.3382  0.2868 -0.0635
14551TIP3    H165144   5.054   4.917  12.476 -0.9754  0.8033 -0.8395
14551TIP3    H265145   4.910   4.885  12.443 -0.2141 -1.7362 -1.9343
14552TIP3   OH265146   3.852   1.235  11.917 -0.1226  0.2761 -0.1324
14552TIP3    H165147   3.850   1.225  12.012  1.2453 -0.2926 -0.1422
14552TIP3    H265148   3.814   1.153  11.884 -1.2494  0.7648 -0.0849
14553TIP3   OH265149   5.131   0.619   3.358 -0.2222 -0.4845  0.0927
14553TIP3    H165150   5.192   0.613   3.284 -0.3735 -0.3170 -0.0483
14553TIP3    H265151   5.147   0.705   3.395 -1.6343  0.3269 -1.0724
14554TIP3   OH265152   3.262   4.631   4.467 -0.0672  0.8436  0.3776
14554TIP3    H165153   3.235   4.686   4.393  0.9228  1.6506  0.5991
14554TIP3    H265154   3.180   4.609   4.511 -0.6386  0.6668 -0.7375
14555TIP3   OH265155   4.331   2.649  11.704 -0.5613  0.3803 -0.2418
14555TIP3    H165156   4.236   2.657  11.698 -0.5275 -0.0422 -2.0369
14555TIP3    H265157   4.349   2.645  11.798 -2.1697  1.8565  0.1842
14556TIP3   OH265158   0.140   0.240   0.050 -0.9047 -0.0500 -0.0874
14556TIP3    H165159   0.155   0.298   0.125 -0.0233 -0.4143  0.0229
14556TIP3    H265160   0.171   0.154   0.078 -2.0564 -0.5567 -0.3100
14557TIP3   OH265161   1.270   6.110  12.365  0.4735 -0.5901 -0.1440
14557TIP3    H165162   1.221   6.111  12.282 -0.8569 -0.4072  0.6035
14557TIP3    H265163   1.323   6.190  12.363 -0.5653  0.1188 -0.2626
14558TIP3   OH265164   6.260   2.634   1.929 -0.6487  0.1428  0.0048
14558TIP3    H165165   6.213   2.712   1.899  1.4180  2.5440  2.4179
14558TIP3    H265166   6.265   2.578   1.852 -2.0852  2.4888 -1.9462
14559TIP3   OH265167   1.827   0.733  12.144 -0.0580 -0.3432  0.0207
14559TIP3    H165168   1.804   0.640  12.138 -1.5264  0.0555 -1.5967
14559TIP3    H265169   1.757   0.772  12.197 -0.4752  0.0940 -0.8172
14560TIP3   OH265170   5.374   4.691   4.498 -0.0420  0.2853 -0.5719
14560TIP3    H165171   5.287   4.707   4.461 -0.4079  1.9151  0.8218
14560TIP3    H265172   5.358   4.682   4.592  1.3399  1.1966 -0.2225
14561TIP3   OH265173   6.709   6.171  14.882  0.8118 -0.2285 -0.5869
14561TIP3    H165174   6.678   6.195  14.970  0.8044  1.4357 -1.0218
14561TIP3    H265175   6.688   6.247  14.828 -1.1894 -2.0324 -2.5621
14562TIP3   OH265176   3.595   0.569   3.133 -0.5075  0.1851 -0.3684
14562TIP3    H165177   3.518   0.556   3.188 -0.9210  0.7828 -0.7864
14562TIP3    H265178   3.669   0.556   3.192 -0.9167 -0.8252 -0.0612
14563TIP3   OH265179   2.749   4.411  14.683  0.4318 -0.6907 -0.3004
14563TIP3    H165180   2.690   4.424  14.758 -0.4104  0.7151 -1.1700
14563TIP3    H265181   2.837   4.419  14.721  0.0590 -1.3653  0.7650
14564TIP3   OH265182   4.189   4.967   5.242 -0.2920 -0.2413  0.0200
14564TIP3    H165183   4.106   4.952   5.287  0.3003 -0.6716  0.9914
14564TIP3    H265184   4.250   4.993   5.311 -0.2469  2.8719 -1.0134
14565TIP3   OH265185   6.245   5.732  13.096  0.0196  0.1445 -0.6551
14565TIP3    H165186   6.312   5.790  13.131  0.3871 -0.4630 -0.3256
14565TIP3    H265187   6.286   5.687  13.022  0.4674 -1.2403  0.3822
14566TIP3   OH265188   2.414   5.361   5.818  0.2967  0.0598 -1.3855
14566TIP3    H165189   2.425   5.266   5.818  1.3960  0.1786 -0.7052
14566TIP3    H265190   2.465   5.391   5.893 -0.8143  1.1080 -1.0256
14567TIP3   OH265191   6.643   5.041  16.611 -0.0954 -0.2209  0.2911
14567TIP3    H165192   6.561   5.064  16.653  0.0449 -0.3533  0.6461
14567TIP3    H265193   6.640   4.945  16.603  0.3102 -0.2939  0.9255
14568TIP3   OH265194   4.781   5.988  12.203  0.4341 -0.0481 -0.6979
14568TIP3    H165195   4.821   6.075  12.205  2.1395 -0.8052  0.0836
14568TIP3    H265196   4.827   5.943  12.132  0.0114 -0.5214 -0.6735
14569TIP3   OH265197   4.702   4.732  16.062 -0.1157  0.0711 -0.2786
14569TIP3    H165198   4.624   4.783  16.042  0.3439  1.7239  1.7052
14569TIP3    H265199   4.752   4.789  16.122  2.3565 -1.1281 -1.0838
14570TIP3   OH265200   0.209   2.591  12.032  0.5337 -0.3075 -0.0295
14570TIP3    H165201   0.173   2.502  12.036  0.9676 -0.4500  1.0322
14570TIP3    H265202   0.303   2.578  12.021  0.3990  0.0575 -1.9237
14571TIP3   OH265203   2.323   6.106   0.622 -0.7457 -0.5271 -0.1335
14571TIP3    H165204   2.336   6.022   0.578  0.8579 -1.0163  1.1720
14571TIP3    H265205   2.361   6.171   0.562 -0.5485 -0.9186 -0.4401
14572TIP3   OH265206   6.724   0.710   0.437  0.0473  0.4636 -0.3535
14572TIP3    H165207   6.682   0.788   0.472  3.1826  1.6926  1.0057
14572TIP3    H265208   6.697   0.707   0.345 -1.3311  2.2494 -0.0562
14573TIP3   OH265209   6.806   6.503  15.831 -0.3244  0.3964  0.0042
14573TIP3    H165210   6.715   6.518  15.806 -0.3695 -1.5851 -1.3155
14573TIP3    H265211   6.851   6.483  15.748  0.9704 -0.0910  0.7878
14574TIP3   OH265212   5.930   5.264  15.398  0.3343  0.2178 -0.4247
14574TIP3    H165213   5.883   5.286  15.478 -0.0265 -0.5585 -0.4203
14574TIP3    H265214   5.864   5.229  15.339  1.0775 -2.3028  0.1007
14575TIP3   OH265215   6.189   1.730  15.884  0.1899  0.6020  0.3034
14575TIP3    H165216   6.243   1.741  15.806  0.4816  2.2859  0.6938
14575TIP3    H265217   6.199   1.638  15.907 -1.1833 -0.3844 -2.5346
14576TIP3   OH265218   0.672   2.584  12.563 -0.3916 -0.8675 -0.2501
14576TIP3    H165219   0.707   2.538  12.640 -2.0687 -1.5350  0.1747
14576TIP3    H265220   0.587   2.542  12.547 -1.0677  0.7335 -1.1301
14577TIP3   OH265221   4.066   0.726   4.232  0.2220  0.3650 -0.1494
14577TIP3    H165222   4.107   0.672   4.164  0.0849  0.8341 -0.6106
14577TIP3    H265223   4.070   0.671   4.311 -0.1940 -0.4407 -0.6708
14578TIP3   OH265224   5.152   1.941  13.562  0.1725  0.0584  0.2417
14578TIP3    H165225   5.072   1.942  13.616 -0.6951 -0.2787 -0.9865
14578TIP3    H265226   5.218   1.901  13.618 -0.5243  0.3401  1.2910
14579TIP3   OH265227   0.611   0.468   3.912 -0.3397 -0.0346 -0.1406
14579TIP3    H165228   0.692   0.505   3.949 -1.1268  1.2035  0.4303
14579TIP3    H265229   0.581   0.534   3.850 -0.6826 -0.6892 -0.6751
14580TIP3   OH265230   1.666   0.498  15.037 -0.0070 -0.1654  0.4104
14580TIP3    H165231   1.678   0.589  15.066  3.6582 -0.1371 -0.6433
14580TIP3    H265232   1.695   0.445  15.112 -1.2467 -0.4895  0.6851
14581TIP3   OH265233   6.045   3.699   0.597  0.0819 -0.1551 -0.1536
14581TIP3    H165234   5.977   3.675   0.533  0.2690  1.2400 -0.9264
14581TIP3    H265235   6.007   3.772   0.646  0.7881  0.2479 -0.1932
14582TIP3   OH265236   1.994   6.196   6.249  0.3711  0.2130 -0.3071
14582TIP3    H165237   2.072   6.186   6.303 -0.1719 -1.6520  0.2019
14582TIP3    H265238   1.939   6.257   6.297  0.4514 -0.4246  0.6238
14583TIP3   OH265239   1.178   4.153   5.658 -0.2432  0.0759  0.2764
14583TIP3    H165240   1.192   4.183   5.568 -1.5481 -0.5278 -0.1597
14583TIP3    H265241   1.213   4.064   5.660 -0.0182  0.1693  0.4184
14584TIP3   OH265242   1.620   0.657  15.633 -0.0148  0.5023 -0.8960
14584TIP3    H165243   1.649   0.716  15.703  0.0958 -0.6895  0.1000
14584TIP3    H265244   1.538   0.695  15.602 -1.0764  0.0852  1.1947
14585TIP3   OH265245   2.853   3.120  13.821 -0.1294  0.3504 -0.4270
14585TIP3    H165246   2.933   3.171  13.808 -0.8223  1.5040 -0.3093
14585TIP3    H265247   2.812   3.116  13.735 -2.0855  3.5205  0.1719
14586TIP3   OH265248   4.516   3.750   4.320 -0.0506  0.0907 -0.4850
14586TIP3    H165249   4.544   3.777   4.407  1.6054 -0.7023 -0.7445
14586TIP3    H265250   4.582   3.785   4.260 -1.0997  0.5289 -1.4262
14587TIP3   OH265251   0.920   3.563   4.969 -0.0000 -0.3897  0.1347
14587TIP3    H165252   0.921   3.487   4.911 -0.7838  0.2972 -0.8098
14587TIP3    H265253   0.901   3.637   4.911  1.3901  0.6401  0.9165
14588TIP3   OH265254   4.694   4.952   0.339 -0.4272  0.0284  0.5325
14588TIP3    H165255   4.681   4.889   0.410  0.3825 -0.5586  0.1815
14588TIP3    H265256   4.747   4.905   0.274 -1.9187  0.2292 -0.8956
14589TIP3   OH265257   6.074   1.149   3.014  0.3500  0.7643 -0.0488
14589TIP3    H165258   6.029   1.157   2.930  0.0794  1.9214  0.1860
14589TIP3    H265259   6.143   1.215   3.010 -1.1641  2.5603  1.5428
14590TIP3   OH265260   6.225   2.212   3.887 -0.4808 -0.4616  0.1294
14590TIP3    H165261   6.176   2.251   3.814 -2.0916 -2.2138  0.1804
14590TIP3    H265262   6.197   2.262   3.963  0.1029  0.4447 -0.2297
14591TIP3   OH265263   1.051   6.721   1.526 -0.4502 -0.3810 -0.0100
14591TIP3    H165264   0.962   6.702   1.496 -0.4083 -0.3533 -0.1496
14591TIP3    H265265   1.103   6.730   1.446 -0.1952 -1.0010  0.0738
14592TIP3   OH265266   2.984   5.232   2.420  0.4811  0.3203 -0.8087
14592TIP3    H165267   3.025   5.219   2.335 -0.5731 -1.1828 -1.1341
14592TIP3    H265268   2.909   5.289   2.401  2.0490  2.6968 -0.2887
14593TIP3   OH265269   4.718   2.372  14.610 -0.1592 -0.1931  0.4844
14593TIP3    H165270   4.801   2.347  14.649  0.4235  1.2439  0.2264
14593TIP3    H265271   4.711   2.318  14.532 -0.3931 -1.6710  1.4979
14594TIP3   OH265272   3.140   1.471  14.367  0.0473  0.1073 -0.5951
14594TIP3    H165273   3.077   1.439  14.431  1.7503 -0.4213  0.8927
14594TIP3    H265274   3.090   1.531  14.312 -1.4169  0.9549  1.5222
14595TIP3   OH265275   1.081   1.989   5.583  0.0574  0.7240  0.1398
14595TIP3    H165276   1.021   1.949   5.646  0.7378  0.5570  0.6925
14595TIP3    H265277   1.162   1.939   5.591  0.2455  0.8823 -0.6713
14596TIP3   OH265278   6.572   2.303  15.965 -0.6009 -0.0852 -0.5449
14596TIP3    H165279   6.598   2.376  15.908 -0.2104  0.1082 -0.1251
14596TIP3    H265280   6.476   2.306  15.966 -0.5908  0.3043 -0.6861
14597TIP3   OH265281   0.534   4.651  11.527  0.0100 -0.0325  0.3309
14597TIP3    H165282   0.443   4.644  11.556  0.1471 -1.3446  0.5092
14597TIP3    H265283   0.574   4.568  11.555  0.5610 -0.6836 -2.1546
14598TIP3   OH265284   0.573   2.912   3.885 -0.3545 -0.4878  0.2494
14598TIP3    H165285   0.545   2.849   3.951 -1.6150 -0.6241 -0.4098
14598TIP3    H265286   0.517   2.896   3.810 -0.3859  1.1028 -0.0984
14599TIP3   OH265287   1.272   2.112   4.442 -0.0855  0.3787 -0.0338
14599TIP3    H165288   1.232   2.121   4.356 -1.8543  0.2768  0.7138
14599TIP3    H265289   1.299   2.200   4.466  0.9985  0.3031 -0.9380
14600TIP3   OH265290   2.760   5.126   1.750 -0.2576 -0.2242  0.2447
14600TIP3    H165291   2.727   5.215   1.756 -0.3558 -0.0169 -2.2186
14600TIP3    H265292   2.796   5.120   1.662 -0.1962 -2.5909  0.3689
14601TIP3   OH265293   4.689   1.096  13.758  0.0258  0.0916 -0.3474
14601TIP3    H165294   4.641   1.119  13.837  0.5813  0.3761 -0.0855
14601TIP3    H265295   4.781   1.102  13.783  0.2578  1.7828 -1.4158
14602TIP3   OH265296   5.582   4.672  14.836 -0.3470 -0.0246  0.3400
14602TIP3    H165297   5.517   4.615  14.877 -0.7818 -0.2429 -0.6380
14602TIP3    H265298   5.642   4.612  14.792  0.4681  0.1816  1.1233
14603TIP3   OH265299   3.613   1.833   3.083 -0.3624 -0.0093 -0.5603
14603TIP3    H165300   3.616   1.810   2.990 -1.4723 -2.9158  0.0196
14603TIP3    H265301   3.687   1.786   3.122 -1.7686 -1.5685  0.4349
14604TIP3   OH265302   6.022   1.528  16.144  0.7180  0.4790 -0.2166
14604TIP3    H165303   5.944   1.579  16.128  1.3789  1.9806  1.0983
14604TIP3    H265304   6.090   1.592  16.164  1.4473 -0.8627  2.1133
14605TIP3   OH265305   6.613   4.542   3.260  0.4126  0.0301 -0.4029
14605TIP3    H165306   6.593   4.608   3.326 -0.1610  0.4002 -0.9190
14605TIP3    H265307   6.638   4.593   3.182 -0.0209 -0.3539 -0.8023
14606TIP3   OH265308   6.496   0.118   4.563 -0.2114  0.3750  0.3812
14606TIP3    H165309   6.464   0.040   4.609  0.1295  0.2682  0.4359
14606TIP3    H265310   6.581   0.093   4.529 -0.3631  0.5302 -0.1187
14607TIP3   OH265311   6.318   3.996   3.319 -0.3439  0.3275  0.3966
14607TIP3    H165312   6.369   3.936   3.264  0.9870  1.1710  0.6738
14607TIP3    H265313   6.227   3.972   3.302  0.1229 -1.0974 -0.2604
14608TIP3   OH265314   2.021   2.867   1.534 -0.1796 -0.0419  0.4869
14608TIP3    H165315   1.928   2.888   1.538 -0.3551 -0.5288 -0.5332
14608TIP3    H265316   2.064   2.951   1.518 -0.6873 -0.1002 -1.4541
14609TIP3   OH265317   1.965   4.064   1.462 -0.1657  0.6655  0.0428
14609TIP3    H165318   1.998   4.007   1.393  0.2966 -0.3733  1.0920
14609TIP3    H265319   1.952   4.006   1.537  1.3985  2.0869  1.5025
14610TIP3   OH265320   1.242   1.606  12.270  0.4579 -0.0653  0.0620
14610TIP3    H165321   1.202   1.692  12.286 -0.2037 -0.1771 -0.9251
14610TIP3    H265322   1.267   1.576  12.357  1.0956  1.3115  0.3884
14611TIP3   OH265323   0.829   3.798   4.792  0.3608 -0.0905 -0.0961
14611TIP3    H165324   0.813   3.834   4.704  1.1691  0.4030 -0.0526
14611TIP3    H265325   0.924   3.801   4.801  0.4591 -2.1583 -0.0443
14612TIP3   OH265326   4.566   2.224  12.221  0.1009 -0.0192 -0.5088
14612TIP3    H165327   4.548   2.191  12.309  0.9546  2.2669  0.6186
14612TIP3    H265328   4.615   2.154  12.178 -0.0281 -1.0568  0.9698
14613TIP3   OH265329   4.751   4.607  11.753  0.3599 -0.4535 -0.2001
14613TIP3    H165330   4.730   4.579  11.842 -0.0172  0.1846 -0.0790
14613TIP3    H265331   4.838   4.647  11.762 -0.2936  0.9608  0.1983
14614TIP3   OH265332   0.076   3.817   3.576  0.1965 -0.1182  0.4338
14614TIP3    H165333   0.138   3.881   3.611 -1.4805  2.0816 -0.3677
14614TIP3    H265334   0.010   3.807   3.645 -0.5723  0.5555 -0.1795
14615TIP3   OH265335   4.297   5.937   1.756 -0.0426  0.1005  0.3230
14615TIP3    H165336   4.259   5.881   1.824  0.1902  1.0686  1.2829
14615TIP3    H265337   4.376   5.891   1.728 -0.7395 -0.8591 -0.1231
14616TIP3   OH265338   3.797   1.265   4.633  0.1064  0.5128 -0.6048
14616TIP3    H165339   3.863   1.284   4.566 -0.8497  1.7037 -1.2469
14616TIP3    H265340   3.831   1.306   4.712 -0.3336  2.0483 -1.1826
14617TIP3   OH265341   0.308   5.798   0.379  0.6216  0.2906 -0.0628
14617TIP3    H165342   0.299   5.718   0.328  2.0542  0.3648 -0.4634
14617TIP3    H265343   0.374   5.778   0.446 -0.4421  0.5343  1.1031
14618TIP3   OH265344   5.435   4.722  10.928 -0.2090  0.2531 -0.4137
14618TIP3    H165345   5.527   4.746  10.925 -0.8879  3.1125 -0.7355
14618TIP3    H265346   5.435   4.634  10.966  2.6478 -0.0438 -0.8502
14619TIP3   OH265347   4.782   2.806   5.786 -0.7400 -0.0213 -0.1420
14619TIP3    H165348   4.787   2.823   5.881  0.6007  1.7040 -0.4738
14619TIP3    H265349   4.850   2.742   5.769 -0.3536  0.3651 -0.0647
14620TIP3   OH265350   3.770   1.185   5.353 -0.2261 -0.4486 -0.8198
14620TIP3    H165351   3.756   1.279   5.358  0.9051 -0.3127  0.6321
14620TIP3    H265352   3.689   1.147   5.387 -0.3160  0.0359 -0.4736
14621TIP3   OH265353   5.332   1.349  11.831  0.5716 -0.1107 -0.4751
14621TIP3    H165354   5.388   1.330  11.906  0.5790 -0.8939 -0.6765
14621TIP3    H265355   5.252   1.300  11.848  0.7578 -0.6789 -1.2191
14622TIP3   OH265356   6.125   1.602  16.949  0.3404 -0.2992  0.1827
14622TIP3    H165357   6.164   1.579  16.864  0.6609  1.2094 -0.1129
14622TIP3    H265358   6.200   1.608  17.008  0.1796 -0.7436  0.4361
14623TIP3   OH265359   4.514   3.350   5.077  0.4637  0.7179  0.7280
14623TIP3    H165360   4.515   3.260   5.110 -0.7053  0.1805 -0.5991
14623TIP3    H265361   4.590   3.356   5.019  0.8561  0.7733  1.2387
14624TIP3   OH265362   2.348   3.827  16.573 -0.0480  0.3601 -0.4633
14624TIP3    H165363   2.299   3.765  16.627 -0.8715  1.3696 -0.0299
14624TIP3    H265364   2.425   3.849  16.625 -0.0613  0.1729 -0.3622
14625TIP3   OH265365   0.003   4.963  13.293 -0.3427 -0.6030  0.1501
14625TIP3    H165366  -0.012   4.970  13.388 -0.6985  0.9139  0.0065
14625TIP3    H265367   0.060   5.038  13.273 -0.7805 -0.5479 -0.9308
14626TIP3   OH265368   5.864   5.481  16.478 -0.1250  0.5000 -0.1236
14626TIP3    H165369   5.815   5.433  16.411  0.6977  1.6490 -1.6072
14626TIP3    H265370   5.821   5.458  16.561 -0.6062 -1.6853 -0.9108
14627TIP3   OH265371   3.401   0.839   5.243 -0.1406  0.0985  0.3707
14627TIP3    H165372   3.355   0.872   5.166 -1.4066 -0.1194  1.0026
14627TIP3    H265373   3.373   0.748   5.251  0.2287  0.0232  0.8963
14628TIP3   OH265374   4.106   0.673  15.228 -0.0860  0.4277 -0.5480
14628TIP3    H165375   4.165   0.748  15.215  2.9625 -1.9193 -1.4739
14628TIP3    H265376   4.121   0.646  15.318 -1.3645  1.0033 -0.1373
14629TIP3   OH265377   2.560   1.128  13.681  0.0142  0.2457  0.1071
14629TIP3    H165378   2.602   1.052  13.723  0.1117  0.0066 -0.4202
14629TIP3    H265379   2.488   1.090  13.631 -0.4198  0.5868  0.4620
14630TIP3   OH265380   4.903   5.883   3.389 -0.3339  0.3970 -0.0794
14630TIP3    H165381   4.895   5.788   3.391  0.6005  0.1375 -3.3101
14630TIP3    H265382   4.816   5.914   3.364 -0.3109  0.2751 -0.3142
14631TIP3   OH265383   2.986   3.344   4.860  0.0548  0.7393  0.3303
14631TIP3    H165384   3.014   3.348   4.768 -2.3610  1.0567 -0.4780
14631TIP3    H265385   2.945   3.257   4.868 -2.9399  1.9982 -0.0148
14632TIP3   OH265386   5.715   0.277  13.739  0.1342 -0.4980 -0.2629
14632TIP3    H165387   5.741   0.207  13.798 -2.7575 -0.9007  0.6983
14632TIP3    H265388   5.633   0.310  13.776  0.7083  2.5613 -1.3902
14633TIP3   OH265389   1.973   4.411   0.852  0.3060 -0.0574 -0.2801
14633TIP3    H165390   2.061   4.388   0.880  0.1680 -1.0309 -0.5972
14633TIP3    H265391   1.966   4.505   0.868  1.3267 -0.0091 -0.0734
14634TIP3   OH265392   5.394   5.116   2.098 -0.0659  0.5405  0.2596
14634TIP3    H165393   5.484   5.150   2.091  0.0443  0.0073 -1.3261
14634TIP3    H265394   5.338   5.189   2.072 -0.0045  0.4271 -0.1919
14635TIP3   OH265395   1.996   4.859   5.372  0.6977  1.2076  0.4130
14635TIP3    H165396   1.927   4.843   5.436  0.1178  0.8151 -0.2894
14635TIP3    H265397   1.976   4.799   5.300  2.3875  0.2850  0.6462
14636TIP3   OH265398   3.071   3.181  15.088  0.2089  0.1625 -0.0889
14636TIP3    H165399   2.979   3.156  15.086 -0.0630  1.1436 -0.1614
14636TIP3    H265400   3.118   3.100  15.069 -0.5732 -0.6904  1.4470
14637TIP3   OH265401   6.187   1.149   3.479  0.0236 -0.3610  0.0987
14637TIP3    H165402   6.197   1.109   3.393 -2.1182  0.3202 -0.5465
14637TIP3    H265403   6.101   1.120   3.510  0.1408  0.5262  1.3765
14638TIP3   OH265404   2.725   3.280  13.028 -0.1865  0.1556 -0.0540
14638TIP3    H165405   2.760   3.367  13.010 -1.5741  0.5481 -1.0553
14638TIP3    H265406   2.644   3.296  13.077 -1.4160 -0.4051 -1.7666
14639TIP3   OH265407   5.181   1.387  14.673  0.4816 -0.1428  0.0347
14639TIP3    H165408   5.199   1.405  14.581  1.5315 -0.5521  0.1422
14639TIP3    H265409   5.194   1.293  14.682  0.4739 -0.0912  0.6212
14640TIP3   OH265410   2.201   0.348  14.642  0.0729 -0.1767  0.1590
14640TIP3    H165411   2.258   0.424  14.627 -1.0498  0.8017  0.7421
14640TIP3    H265412   2.115   0.377  14.613 -0.3313 -1.3190  0.1990
14641TIP3   OH265413   3.708   1.869  11.103 -0.6071  0.0195  0.2514
14641TIP3    H165414   3.686   1.953  11.142 -1.3726  0.1517 -0.4451
14641TIP3    H265415   3.755   1.892  11.022  1.2265 -0.2472  1.1761
14642TIP3   OH265416   3.554   1.205  13.609  0.0225 -0.4252  0.1386
14642TIP3    H165417   3.484   1.140  13.618  1.4295 -2.1690 -0.9193
14642TIP3    H265418   3.606   1.174  13.535  1.5915  1.1441  0.5202
14643TIP3   OH265419   4.171   6.395   0.749 -0.0985  0.2007 -0.4947
14643TIP3    H165420   4.088   6.441   0.737  1.0405  2.5147 -0.0129
14643TIP3    H265421   4.238   6.461   0.733  1.6427 -0.5508  2.7833
14644TIP3   OH265422   6.453   2.979   2.199  0.0376  0.3127 -0.4032
14644TIP3    H165423   6.546   2.991   2.182  0.0956 -0.5226 -0.7249
14644TIP3    H265424   6.413   3.062   2.173  0.9071  1.4481  1.6837
14645TIP3   OH265425   5.105   0.653   0.119  0.2260 -0.6274 -0.3452
14645TIP3    H165426   5.118   0.690   0.031  0.3751 -1.7766 -0.8221
14645TIP3    H265427   5.036   0.588   0.108  1.2480 -1.8287  0.0688
14646TIP3   OH265428   4.072   0.956   2.854 -0.2226 -0.0342  0.4244
14646TIP3    H165429   4.147   0.908   2.888  0.3566 -0.2041 -1.0419
14646TIP3    H265430   4.102   1.047   2.849 -0.4316  0.0523  0.7035
14647TIP3   OH265431   5.364   3.951  17.046  0.9598 -0.4852 -0.5297
14647TIP3    H165432   5.279   3.949  17.002  0.8190 -0.7896 -0.2508
14647TIP3    H265433   5.359   4.026  17.106  0.6065 -0.9503  0.0326
14648TIP3   OH265434   2.389   0.124  16.211  0.5256 -0.2546 -0.6632
14648TIP3    H165435   2.297   0.151  16.206 -0.1948 -2.5928 -1.1047
14648TIP3    H265436   2.403   0.071  16.133  2.6804  1.1130 -1.2948
14649TIP3   OH265437   6.124   5.829   2.640  0.1221 -0.6917 -0.1769
14649TIP3    H165438   6.029   5.825   2.643  0.0408  1.0278  0.1514
14649TIP3    H265439   6.153   5.779   2.716 -0.6563  1.6460  1.7655
14650TIP3   OH265440   5.053   3.432  11.387  0.3063  0.5829  0.4538
14650TIP3    H165441   5.132   3.381  11.405  0.3806  0.6881  0.4236
14650TIP3    H265442   5.085   3.520  11.367  0.2876  0.2352 -1.2162
14651TIP3   OH265443   2.073   5.138  15.248  0.0261 -0.0546 -0.7355
14651TIP3    H165444   2.004   5.074  15.266 -0.6859  0.6221 -0.9863
14651TIP3    H265445   2.135   5.092  15.193 -1.0823 -0.1873 -1.9132
14652TIP3   OH265446   1.960   6.831  15.841  0.0530  0.5433 -0.0055
14652TIP3    H165447   1.935   6.877  15.761 -1.6500 -1.1368 -0.5156
14652TIP3    H265448   2.022   6.764  15.811 -0.3528  0.1115  0.0974
14653TIP3   OH265449   6.562   2.068  13.656  0.4177 -0.2150  0.1195
14653TIP3    H165450   6.654   2.079  13.631  0.6440  0.9843  1.3700
14653TIP3    H265451   6.544   1.976  13.641  1.6029 -0.3150 -0.8559
14654TIP3   OH265452   1.595   0.929  10.602 -0.3630 -0.6086  0.8319
14654TIP3    H165453   1.534   0.994  10.566 -0.4899 -1.3968 -0.4253
14654TIP3    H265454   1.593   0.857  10.540  0.6038 -1.3673  1.6444
14655TIP3   OH265455   4.763   0.067   4.015 -0.0823 -0.3231 -0.1581
14655TIP3    H165456   4.725   0.022   4.090 -1.2224  1.5022  0.4296
14655TIP3    H265457   4.825   0.130   4.053 -0.2825  0.2593 -0.7600
14656TIP3   OH265458   4.639   6.002   0.184  0.2499  0.1024  0.0741
14656TIP3    H165459   4.597   6.073   0.234 -0.6851 -0.9657  0.8853
14656TIP3    H265460   4.572   5.975   0.121  0.5023 -0.2159 -0.0587
14657TIP3   OH265461   1.747   1.852   6.592  0.1540 -0.5252 -0.0455
14657TIP3    H165462   1.705   1.783   6.643  0.5635  0.1473  1.2787
14657TIP3    H265463   1.838   1.853   6.625  0.5744 -0.4180 -1.1850
14658TIP3   OH265464   5.399   2.944   4.173  0.5407 -0.2502  0.1447
14658TIP3    H165465   5.459   2.949   4.247  1.1501 -0.7324 -0.3135
14658TIP3    H265466   5.452   2.910   4.101 -0.4088 -1.1998 -0.1239
14659TIP3   OH265467   0.775   4.690   6.416 -0.3205 -0.3965 -0.0761
14659TIP3    H165468   0.707   4.751   6.389 -1.1149 -0.9881  0.5457
14659TIP3    H265469   0.728   4.617   6.456  0.7312  0.1042  2.2617
14660TIP3   OH265470   5.035   0.736  12.735 -0.4963 -0.3487 -0.7305
14660TIP3    H165471   4.972   0.670  12.707 -1.3651 -1.0441  2.4763
14660TIP3    H265472   5.010   0.757  12.824  3.2471  0.0680  0.4071
14661TIP3   OH265473   3.838   2.289  16.411  0.6079  0.4382 -0.2969
14661TIP3    H165474   3.914   2.344  16.432  0.6430 -0.0194  0.8363
14661TIP3    H265475   3.787   2.287  16.492  0.3998 -0.8746 -0.4429
14662TIP3   OH265476   0.061   1.942   5.689 -0.2314 -0.2049 -0.1184
14662TIP3    H165477   0.092   2.025   5.654  1.7415 -0.6636  0.3967
14662TIP3    H265478   0.039   1.961   5.780  0.3317 -0.2544  0.0325
14663TIP3   OH265479   4.623   4.695   1.770  0.6197 -0.0169  0.2443
14663TIP3    H165480   4.569   4.651   1.835 -2.1677  0.4224 -1.5987
14663TIP3    H265481   4.650   4.776   1.812 -1.4235  0.4382  0.7875
14664TIP3   OH265482   1.631   3.522  13.205  0.4401  0.2387  0.2929
14664TIP3    H165483   1.635   3.555  13.294 -0.4832  1.0016  0.0765
14664TIP3    H265484   1.555   3.463  13.205  0.3270  0.3836 -0.0300
14665TIP3   OH265485   2.265   5.538  12.166 -0.2829  0.8214 -0.7087
14665TIP3    H165486   2.265   5.547  12.261 -0.3469 -0.2015 -0.6046
14665TIP3    H265487   2.174   5.555  12.140 -0.2833  1.0126 -0.5899
14666TIP3   OH265488   0.490   4.091  15.892 -0.9256  0.3098  0.3124
14666TIP3    H165489   0.573   4.068  15.934 -0.3153 -0.6429 -1.3040
14666TIP3    H265490   0.495   4.185  15.878 -0.2773  0.3220  0.5999
14667TIP3   OH265491   3.344   1.071   0.501  0.0349  0.1618  0.0276
14667TIP3    H165492   3.380   1.022   0.575  0.7044  2.0561  1.0173
14667TIP3    H265493   3.412   1.068   0.434 -0.2723 -0.9254 -0.2615
14668TIP3   OH265494   0.056   1.691   6.439 -0.6694  0.1766  0.4536
14668TIP3    H165495   0.033   1.604   6.405  0.2300 -0.1850  0.7498
14668TIP3    H265496   0.136   1.676   6.490 -0.0396  1.3251 -0.1740
14669TIP3   OH265497   1.546   2.394   1.133  0.5081  0.3118 -0.1954
14669TIP3    H165498   1.501   2.404   1.049 -0.0357 -0.3303  0.0097
14669TIP3    H265499   1.548   2.299   1.148 -0.1677  0.4648  0.9250
14670TIP3   OH265500   1.231   1.863  15.941 -0.3254  0.0083  0.1868
14670TIP3    H165501   1.326   1.862  15.924 -0.3719 -0.8078 -0.0403
14670TIP3    H265502   1.202   1.946  15.904  0.2433  0.0984 -0.0736
14671TIP3   OH265503   6.240   6.221   0.232 -0.2063 -0.1785  0.5124
14671TIP3    H165504   6.302   6.173   0.287  0.3021  1.5532  1.5245
14671TIP3    H265505   6.294   6.259   0.162 -0.6392 -1.2382 -0.4166
14672TIP3   OH265506   4.579   4.666  13.573  0.3420  0.3933  0.2638
14672TIP3    H165507   4.659   4.693  13.618 -0.1506  1.6417  0.4352
14672TIP3    H265508   4.512   4.669  13.641  0.3085 -1.6943  0.3857
14673TIP3   OH265509   2.721   3.505   5.473 -0.2296 -0.0816 -0.1264
14673TIP3    H165510   2.676   3.421   5.473 -1.2426  0.4213  1.0328
14673TIP3    H265511   2.678   3.555   5.403 -0.5206 -0.0932  0.0421
14674TIP3   OH265512   6.443   1.849   2.194  0.0158 -0.2610 -0.5623
14674TIP3    H165513   6.416   1.937   2.217  0.7247  0.3343 -1.8689
14674TIP3    H265514   6.536   1.845   2.219  1.2343  0.8837 -4.2201
14675TIP3   OH265515   0.595   3.894   6.743  0.2610 -0.0065  0.5539
14675TIP3    H165516   0.529   3.947   6.698  1.0714  0.5047 -0.0672
14675TIP3    H265517   0.546   3.844   6.808 -1.5206 -3.0474 -2.7510
14676TIP3   OH265518   1.390   5.632  15.189  0.2862  0.0855  0.5321
14676TIP3    H165519   1.314   5.600  15.237 -0.9182  2.7263  0.5435
14676TIP3    H265520   1.412   5.715  15.230  2.0236  0.2965 -0.6836
14677TIP3   OH265521   4.025   1.034   5.731 -0.1668 -0.0528  0.0767
14677TIP3    H165522   3.955   1.065   5.788  0.5351  1.2135  0.2826
14677TIP3    H265523   4.097   1.014   5.790  1.3657  3.4072 -0.4213
14678TIP3   OH265524   0.625   4.323  14.459 -0.5980 -0.4221 -0.3101
14678TIP3    H165525   0.552   4.305  14.400 -0.0821  0.9758 -1.4355
14678TIP3    H265526   0.602   4.278  14.540 -2.7202  0.0106 -0.6190
14679TIP3   OH265527   6.124   3.237   0.640  0.0501  0.2292  0.0163
14679TIP3    H165528   6.175   3.318   0.651 -0.4307  0.4147  0.9928
14679TIP3    H265529   6.063   3.257   0.568 -0.9351  1.2115  1.0684
14680TIP3   OH265530   1.485   5.480  13.914  0.3731 -0.2089  0.5996
14680TIP3    H165531   1.540   5.540  13.864  1.4053 -0.8272  0.9636
14680TIP3    H265532   1.403   5.527  13.926 -0.1524 -0.2559 -2.1801
14681TIP3   OH265533   6.224   6.490  16.252 -0.1832 -0.5698  0.1066
14681TIP3    H165534   6.226   6.420  16.187 -0.9177 -0.1423 -0.3932
14681TIP3    H265535   6.234   6.570  16.202  2.4725 -0.3632  0.8509
14682TIP3   OH265536   0.152   0.340   4.299 -0.3946  0.8105 -0.2291
14682TIP3    H165537   0.242   0.361   4.327 -0.3046  1.2167 -0.8037
14682TIP3    H265538   0.121   0.278   4.365  1.0829 -1.1123 -1.2367
14683TIP3   OH265539   2.431   1.646   4.307  0.0714 -0.0555 -0.3573
14683TIP3    H165540   2.392   1.574   4.356 -1.2967  0.7041 -0.2900
14683TIP3    H265541   2.379   1.652   4.227  2.0161 -1.0055 -1.7767
14684TIP3   OH265542   1.388   4.115  13.389 -0.2477 -0.1729  0.0568
14684TIP3    H165543   1.308   4.131  13.341  0.1044 -0.6221 -0.7052
14684TIP3    H265544   1.447   4.186  13.364  1.1485 -2.1736 -2.9574
14685TIP3   OH265545   4.640   6.297  12.406 -0.3121 -0.1537  0.9426
14685TIP3    H165546   4.603   6.381  12.435 -0.6431  0.0487 -0.0092
14685TIP3    H265547   4.610   6.289  12.315  0.5882 -0.8046  0.6975
14686TIP3   OH265548   0.677   1.891  14.980 -0.3152 -0.2112  0.0208
14686TIP3    H165549   0.679   1.955  15.051 -0.6966  1.0366 -1.0565
14686TIP3    H265550   0.593   1.906  14.937  0.3600 -0.2021 -1.3477
14687TIP3   OH265551   4.303   3.173   2.927 -0.8348 -0.3228  0.2657
14687TIP3    H165552   4.228   3.223   2.898 -0.7542  0.2016  0.9522
14687TIP3    H265553   4.349   3.150   2.846  1.2939  4.0241 -0.0318
14688TIP3   OH265554   1.130   5.221   4.481 -0.3295  0.0226 -0.0832
14688TIP3    H165555   1.202   5.274   4.515  1.1639 -1.5690 -0.6007
14688TIP3    H265556   1.097   5.270   4.405  0.5988  0.4981 -0.1895
14689TIP3   OH265557   0.142   5.746  13.054  0.0590  0.7114 -0.0260
14689TIP3    H165558   0.128   5.671  12.996  1.4605  0.2798  0.1725
14689TIP3    H265559   0.203   5.802  13.006  0.0315  1.0947  0.3841
14690TIP3   OH265560   0.127   4.436   5.556  0.7148 -0.1187  0.7067
14690TIP3    H165561   0.157   4.514   5.603 -1.0696  2.1144 -1.6149
14690TIP3    H265562   0.202   4.411   5.502  1.2253  0.0980  1.2983
14691TIP3   OH265563   2.893   6.266   6.016  0.3662  0.5466  0.6433
14691TIP3    H165564   2.884   6.334   6.083 -0.4790  0.9208  0.1712
14691TIP3    H265565   2.884   6.184   6.064 -1.3381  0.8254  0.8812
14692TIP3   OH265566   6.032   1.767  16.463  0.1409 -0.0187 -0.0824
14692TIP3    H165567   6.101   1.793  16.402 -0.0850  0.9982  0.0748
14692TIP3    H265568   5.951   1.792  16.419 -0.1454 -1.3634 -0.3378
14693TIP3   OH265569   3.558   6.571  13.488  0.2806  0.3435 -0.1067
14693TIP3    H165570   3.494   6.634  13.455 -0.9253 -1.5466 -1.5813
14693TIP3    H265571   3.599   6.616  13.562 -0.9717  2.5769 -0.6639
14694TIP3   OH265572   5.532   0.309   2.480 -0.1637 -0.4708 -0.5567
14694TIP3    H165573   5.459   0.361   2.445  0.0963  0.2778 -0.0177
14694TIP3    H265574   5.589   0.294   2.404  0.4125  1.1771 -0.5038
14695TIP3   OH265575   6.672   3.918  14.021 -0.3039 -0.2794 -0.5289
14695TIP3    H165576   6.610   3.950  14.087 -0.8916 -0.6990 -0.8639
14695TIP3    H265577   6.696   3.830  14.051 -1.3584 -0.8804 -1.3802
14696TIP3   OH265578   1.976   3.560  16.966  0.2330  0.0892 -0.3693
14696TIP3    H165579   1.908   3.561  17.034  1.1512 -0.0447  0.5819
14696TIP3    H265580   2.051   3.604  17.007  0.5785  0.6645 -1.5611
14697TIP3   OH265581   0.225   6.735   1.099 -0.0225 -0.2506  0.2129
14697TIP3    H165582   0.206   6.816   1.145  1.9271  1.6478 -2.0800
14697TIP3    H265583   0.148   6.680   1.114 -1.9955  2.4794  0.8054
14698TIP3   OH265584   3.145   4.566  15.951 -0.0126 -0.0824  0.4037
14698TIP3    H165585   3.227   4.615  15.961 -0.5253  0.7427  0.6347
14698TIP3    H265586   3.135   4.519  16.034  1.0249 -1.4591 -0.2123
14699TIP3   OH265587   4.441   3.356   5.932  0.4193  0.0419  0.3349
14699TIP3    H165588   4.417   3.264   5.919  0.8849 -0.0746  0.2533
14699TIP3    H265589   4.460   3.363   6.025 -0.7069  0.3289  0.5497
14700TIP3   OH265590   3.543   1.891  17.088  0.0217  0.6304 -0.3464
14700TIP3    H165591   3.501   1.962  17.040 -0.7543  0.0274 -0.5982
14700TIP3    H265592   3.473   1.826  17.100  0.4637  0.3199  0.6978
14701TIP3   OH265593   6.217   3.670   3.226 -0.0360 -0.6343 -0.3505
14701TIP3    H165594   6.158   3.743   3.210  0.5935  0.3210  1.3693
14701TIP3    H265595   6.301   3.698   3.190  0.1108 -0.6810 -0.0493
14702TIP3   OH265596   6.445   6.020  17.028 -0.0633 -0.1694  0.0359
14702TIP3    H165597   6.361   6.028  17.073  0.0354 -0.4349  0.2739
14702TIP3    H265598   6.426   6.039  16.936 -0.0553  1.5408  0.3633
14703TIP3   OH265599   5.998   5.935  11.671  0.3434  0.1421  0.1529
14703TIP3    H165600   5.906   5.909  11.668 -0.3702  2.4353  0.4862
14703TIP3    H265601   6.046   5.852  11.668 -1.7630 -1.3255  2.4162
14704TIP3   OH265602   5.592   6.111   4.602  0.3413 -0.0179 -0.3134
14704TIP3    H165603   5.507   6.156   4.593  0.2893  0.2632  1.3841
14704TIP3    H265604   5.569   6.021   4.625  0.5012 -0.3943 -1.5257
14705TIP3   OH265605   3.863   0.368   6.178  0.3514 -0.0379  0.3608
14705TIP3    H165606   3.854   0.276   6.204  1.1544 -0.0485  0.6483
14705TIP3    H265607   3.851   0.417   6.260 -1.9926  0.2677 -0.0917
14706TIP3   OH265608   2.271   6.042   1.579 -1.2079 -0.3759 -0.1961
14706TIP3    H165609   2.348   6.033   1.636 -0.5283  1.6870 -0.6995
14706TIP3    H265610   2.307   6.040   1.490 -1.3732  2.5324 -0.4323
14707TIP3   OH265611   1.991   4.843  15.627  0.4847  0.4679 -0.1854
14707TIP3    H165612   2.016   4.807  15.712  0.1646 -0.8135 -0.6223
14707TIP3    H265613   1.904   4.808  15.609  0.3477  1.0971 -0.8394
14708TIP3   OH265614   4.743   3.824  16.077 -0.1826  0.1579 -0.1627
14708TIP3    H165615   4.709   3.880  16.007  0.3870  0.9757  0.2061
14708TIP3    H265616   4.765   3.742  16.033 -1.3577  0.0831 -0.6465
14709TIP3   OH265617   3.368   2.338  15.557 -0.0802 -0.8057 -0.3394
14709TIP3    H165618   3.360   2.259  15.504 -0.2168 -0.5869 -0.6506
14709TIP3    H265619   3.301   2.397  15.522 -0.2747 -0.7132  0.1789
14710TIP3   OH265620   3.593   6.231   0.010 -0.3232  0.1903  0.0203
14710TIP3    H165621   3.668   6.241  -0.049  0.3556 -0.6879  0.6950
14710TIP3    H265622   3.525   6.192  -0.044  0.5114 -1.2297 -0.0484
14711TIP3   OH265623   2.003   2.597   5.854  0.1759  0.3554  0.3360
14711TIP3    H165624   1.934   2.540   5.818  1.0224 -0.3937 -0.1538
14711TIP3    H265625   2.040   2.547   5.926  0.8526  0.3267 -0.0253
14712TIP3   OH265626   0.715   4.145   0.688 -0.8883 -0.8007 -0.1336
14712TIP3    H165627   0.807   4.164   0.671 -0.9559 -0.3085  0.0513
14712TIP3    H265628   0.673   4.155   0.602 -0.7618 -1.0927 -0.2319
14713TIP3   OH265629   3.414   4.996   1.739  0.1079  0.6041 -0.1410
14713TIP3    H165630   3.374   4.967   1.657 -1.0346  1.1085  0.2168
14713TIP3    H265631   3.401   4.922   1.799 -0.5812  0.8780  0.0592
14714TIP3   OH265632   1.692   0.882   3.255 -0.0053 -0.0156 -0.2413
14714TIP3    H165633   1.653   0.832   3.326 -0.0854 -0.1770 -0.3977
14714TIP3    H265634   1.618   0.914   3.203  0.0305  0.6223  0.0969
14715TIP3   OH265635   1.784   4.718   1.667 -0.0117  0.5791 -0.1316
14715TIP3    H165636   1.802   4.679   1.582  0.4860  0.1594  0.1612
14715TIP3    H265637   1.702   4.767   1.654 -2.0056 -2.4223  0.0539
14716TIP3   OH265638   0.802   5.387   0.437 -0.5219  0.0406 -0.1413
14716TIP3    H165639   0.845   5.362   0.355  0.0980  0.6242 -0.0003
14716TIP3    H265640   0.757   5.307   0.465 -0.0834 -0.3928 -0.6440
14717TIP3   OH265641   4.881   0.868   4.140 -0.5386  0.1139 -0.2492
14717TIP3    H165642   4.843   0.920   4.211  0.3487  0.7916 -0.2529
14717TIP3    H265643   4.894   0.931   4.069  0.0059 -0.2432 -0.4669
14718TIP3   OH265644   2.245   6.152  13.882 -0.3944  0.4462  0.7537
14718TIP3    H165645   2.310   6.222  13.876 -0.6782  0.6420 -0.3168
14718TIP3    H265646   2.290   6.074  13.851 -0.9099  0.7822 -0.9944
14719TIP3   OH265647   4.885   0.450   2.710  0.2047 -1.3704 -0.0884
14719TIP3    H165648   4.971   0.492   2.716  1.0674 -2.3880 -3.3538
14719TIP3    H265649   4.829   0.515   2.667  0.0335 -1.6296 -0.2565
14720TIP3   OH265650   6.511   3.429  16.332  0.7893 -0.4079  0.3538
14720TIP3    H165651   6.484   3.349  16.378  0.9790 -0.7520 -0.1189
14720TIP3    H265652   6.606   3.421  16.325  0.7914 -0.2116  0.1658
14721TIP3   OH265653   2.603   3.625  11.122  0.1110  0.3731 -0.5070
14721TIP3    H165654   2.654   3.672  11.189  3.5456 -2.3272 -0.9565
14721TIP3    H265655   2.633   3.662  11.039 -1.1184  0.9123 -0.7326
14722TIP3   OH265656   5.858   2.390  16.132  0.1384  0.4245 -0.5257
14722TIP3    H165657   5.825   2.335  16.203 -0.5243  2.1023  0.5195
14722TIP3    H265658   5.834   2.342  16.052  0.3958 -1.2173  0.3453
14723TIP3   OH265659   2.173   0.268   6.307 -0.1825 -0.4961 -0.2248
14723TIP3    H165660   2.110   0.336   6.329 -0.5152 -0.1131 -2.1503
14723TIP3    H265661   2.119   0.193   6.280  0.1959 -1.0666  0.5420
14724TIP3   OH265662   0.970   0.098  15.712 -0.0485  0.0915  0.0132
14724TIP3    H165663   0.929   0.113  15.627  1.0493  0.0172 -0.5357
14724TIP3    H265664   0.953   0.178  15.761 -2.5641 -0.6639  0.5402
14725TIP3   OH265665   3.853   4.021  16.696  0.4430 -0.1823  0.1769
14725TIP3    H165666   3.837   3.927  16.692  0.6771 -0.2402  0.6214
14725TIP3    H265667   3.770   4.060  16.667  0.0405 -0.5074  0.8600
14726TIP3   OH265668   5.453   1.751   1.555 -0.0017 -0.3299 -0.4550
14726TIP3    H165669   5.519   1.812   1.587 -0.4078  0.5567 -1.2757
14726TIP3    H265670   5.375   1.771   1.606 -0.1385 -0.1566 -0.7322
14727TIP3   OH265671   4.197   0.280   2.657 -0.3135 -0.3353 -0.7623
14727TIP3    H165672   4.251   0.275   2.578  1.0724  0.2416  0.1009
14727TIP3    H265673   4.147   0.361   2.646  0.2682  0.0267 -0.8251
14728TIP3   OH265674   0.709   6.574   3.414 -0.8322  0.2591  0.5293
14728TIP3    H165675   0.782   6.600   3.470  0.2645  2.5680 -1.7915
14728TIP3    H265676   0.631   6.590   3.466  0.1808  1.0426  1.8498
14729TIP3   OH265677   5.379   2.281   3.632  0.9729  0.8688  0.5590
14729TIP3    H165678   5.313   2.255   3.696 -0.0220  1.1666 -0.3240
14729TIP3    H265679   5.329   2.321   3.561  2.1564  1.6909  0.1591
14730TIP3   OH265680   1.948   4.319   1.287  0.1864  0.0021  0.3091
14730TIP3    H165681   2.012   4.277   1.229  0.1680  0.6635 -0.2008
14730TIP3    H265682   1.957   4.271   1.370  1.5224  0.2349  0.3299
14731TIP3   OH265683   1.370   0.617   3.960 -0.3443 -0.7616 -0.0059
14731TIP3    H165684   1.452   0.568   3.953 -0.1110 -0.2575 -0.9064
14731TIP3    H265685   1.356   0.627   4.055 -0.4283 -2.5856  0.2117
14732TIP3   OH265686   0.055   1.270  10.621  0.1698  0.6931 -0.0789
14732TIP3    H165687  -0.010   1.267  10.551  0.0818  1.2203 -0.0271
14732TIP3    H265688   0.013   1.322  10.690  0.2235  0.1147  0.3966
14733TIP3   OH265689   1.527   0.860  11.486  0.9274 -0.1296  0.6235
14733TIP3    H165690   1.524   0.891  11.576  0.9953 -1.8816  1.2590
14733TIP3    H265691   1.481   0.776  11.488 -1.8280  1.1598 -1.5709
14734TIP3   OH265692   5.196   0.863   1.397 -0.5836  0.2998  0.0620
14734TIP3    H165693   5.273   0.908   1.363 -1.6274  0.0169 -2.9974
14734TIP3    H265694   5.230   0.780   1.431  0.6841  1.0786  0.7478
14735TIP3   OH265695   1.337   3.715  11.824  0.4616  0.9727 -0.4190
14735TIP3    H165696   1.432   3.712  11.813  0.8518  1.1537  2.1238
14735TIP3    H265697   1.306   3.631  11.793  1.6220  0.4382 -0.1930
14736TIP3   OH265698   5.620   2.534  16.552 -0.1673  0.4003  0.4355
14736TIP3    H165699   5.714   2.523  16.544 -0.1013  1.5129 -0.6528
14736TIP3    H265700   5.597   2.489  16.633  1.0976 -0.9678  0.0748
14737TIP3   OH265701   1.075   1.876   3.582 -0.0514  0.3908  0.4138
14737TIP3    H165702   1.056   1.794   3.627 -2.7936  1.3621  1.2133
14737TIP3    H265703   1.136   1.922   3.641  0.3565 -0.4413  0.6583
14738TIP3   OH265704   2.739   2.418   6.016 -0.3492 -0.2370 -0.3692
14738TIP3    H165705   2.732   2.332   5.975 -1.6412 -1.1586  1.6402
14738TIP3    H265706   2.649   2.450   6.023 -0.0689  0.3934  0.6821
14739TIP3   OH265707   5.870   5.661   2.707  0.0318 -0.9927  0.4148
14739TIP3    H165708   5.782   5.679   2.742  0.2549  0.0527  0.4632
14739TIP3    H265709   5.855   5.605   2.631 -0.8031  0.3502 -0.4503
14740TIP3   OH265710   6.353   5.768  14.868 -0.1025  0.3215  0.0736
14740TIP3    H165711   6.384   5.858  14.868 -1.0264  0.6569 -0.7688
14740TIP3    H265712   6.433   5.715  14.865  0.4177  1.1365 -0.9134
14741TIP3   OH265713   0.086   5.473   0.552  0.0571 -0.9765 -0.2434
14741TIP3    H165714   0.065   5.393   0.504 -0.0640 -2.4070  2.0148
14741TIP3    H265715   0.057   5.455   0.642  0.3241  1.4992  0.4148
14742TIP3   OH265716   2.770   1.450  13.656  0.0109 -0.4766  0.2965
14742TIP3    H165717   2.708   1.429  13.726 -0.9245 -2.1447 -0.9586
14742TIP3    H265718   2.761   1.544  13.643 -0.0913 -0.1928  2.1089
14743TIP3   OH265719   2.640   1.975  13.862  0.1904  0.1125 -0.6637
14743TIP3    H165720   2.694   1.905  13.901  0.9288  1.4104  0.7268
14743TIP3    H265721   2.670   1.979  13.771  0.3841 -1.1277 -0.6807
14744TIP3   OH265722   4.383   3.482  16.186  0.1927 -0.4336 -0.1788
14744TIP3    H165723   4.333   3.558  16.216 -0.8801 -0.1326 -2.5237
14744TIP3    H265724   4.474   3.503  16.208 -0.2328  0.9254  0.3786
14745TIP3   OH265725   1.619   6.033  11.149 -0.6380 -0.0673  0.1194
14745TIP3    H165726   1.593   6.080  11.070 -0.3566  0.4231  0.3100
14745TIP3    H265727   1.713   6.047  11.156 -0.7660  0.4981  0.9222
14746TIP3   OH265728   4.176   6.244   1.399 -0.4146 -0.5773 -0.0271
14746TIP3    H165729   4.131   6.242   1.484  0.9662 -1.1361  0.7146
14746TIP3    H265730   4.113   6.206   1.338 -1.8781  0.8762  0.4998
14747TIP3   OH265731   1.641   1.910  13.354 -0.2201 -0.4137  0.5376
14747TIP3    H165732   1.698   1.985  13.336 -2.9582  1.7497  0.0043
14747TIP3    H265733   1.687   1.835  13.317  1.3781  1.4823 -1.6431
14748TIP3   OH265734   6.076   2.567  15.465 -0.1452  0.4557  0.0623
14748TIP3    H165735   6.102   2.492  15.519 -2.6051  1.5396  3.0992
14748TIP3    H265736   6.136   2.637  15.491 -1.5915  1.0957  1.9045
14749TIP3   OH265737   6.044   4.557   0.733 -0.3391 -0.7185 -0.0408
14749TIP3    H165738   6.097   4.478   0.742  0.1885 -0.6321 -1.9890
14749TIP3    H265739   6.091   4.623   0.784  0.9393 -0.8881 -0.9452
14750TIP3   OH265740   4.099   6.748  16.742  0.2024 -0.3681  0.5005
14750TIP3    H165741   4.024   6.699  16.707  0.4434  0.7155 -1.6861
14750TIP3    H265742   4.079   6.758  16.835 -1.9605 -0.8135  0.1481
14751TIP3   OH265743   4.679   3.701  12.241 -0.0631 -0.0694 -0.1155
14751TIP3    H165744   4.654   3.717  12.150  0.6670 -1.3445 -0.5703
14751TIP3    H265745   4.764   3.745  12.250  0.4708 -1.0138 -0.4430
14752TIP3   OH265746   1.763   1.658  13.321  0.1007 -0.1981  0.5130
14752TIP3    H165747   1.770   1.563  13.324 -0.8027 -0.2595  1.0265
14752TIP3    H265748   1.833   1.686  13.262 -0.2729 -1.2473 -0.4459
14753TIP3   OH265749   4.867   6.532  13.827 -0.0591  0.4112 -0.4303
14753TIP3    H165750   4.916   6.599  13.778  1.2384 -0.5682 -0.5340
14753TIP3    H265751   4.913   6.450  13.807  0.2618 -0.0947  2.1038
14754TIP3   OH265752   2.390   0.598   0.617 -0.4747  0.1060  0.0415
14754TIP3    H165753   2.299   0.626   0.613 -0.4560  0.1374 -0.2417
14754TIP3    H265754   2.440   0.679   0.627 -0.5021  0.0531  0.5961
14755TIP3   OH265755   1.016   4.077  12.545  0.1460 -0.1228 -0.3061
14755TIP3    H165756   1.070   4.000  12.556 -1.0643 -0.6996  2.4088
14755TIP3    H265757   1.074   4.151  12.564  0.5487 -0.5772  0.2381
14756TIP3   OH265758   4.365   3.439   0.153  0.6495 -0.1689 -0.1242
14756TIP3    H165759   4.377   3.435   0.248  0.4756  2.4576  0.0801
14756TIP3    H265760   4.347   3.532   0.135  1.7101 -0.4031 -2.8498
14757TIP3   OH265761   0.152   4.095  15.133  0.6143  0.5048  0.0901
14757TIP3    H165762   0.243   4.087  15.106  0.6242  2.8866 -0.8249
14757TIP3    H265763   0.102   4.096  15.052 -0.2011 -0.3725  0.5642
14758TIP3   OH265764   0.569   6.479  11.225  0.0340  0.2325 -0.0476
14758TIP3    H165765   0.601   6.398  11.266  1.4974  1.9750  2.5854
14758TIP3    H265766   0.572   6.461  11.131 -1.2087 -3.2538  0.4068
14759TIP3   OH265767   6.396   5.770  11.544 -0.0629 -0.4857 -0.6583
14759TIP3    H165768   6.413   5.813  11.628 -0.2284 -1.1353 -0.2893
14759TIP3    H265769   6.330   5.825  11.502 -0.7084 -0.6959  0.0641
14760TIP3   OH265770   4.921   3.853   4.785 -0.6429 -0.0066 -0.5126
14760TIP3    H165771   4.956   3.916   4.722  0.9949  0.6720  0.9758
14760TIP3    H265772   4.834   3.886   4.807 -0.5417  0.6904 -1.1348
14761TIP3   OH265773   1.177   1.539   4.331  0.4491  0.0433  0.4387
14761TIP3    H165774   1.157   1.445   4.329  0.4016  0.0595 -0.4258
14761TIP3    H265775   1.257   1.547   4.278  0.8047  0.4147  1.0262
14762TIP3   OH265776   2.978   0.295   3.719 -0.2327 -0.1581 -0.2450
14762TIP3    H165777   2.897   0.278   3.671 -1.1572 -0.2418  1.2739
14762TIP3    H265778   2.999   0.211   3.760  0.1540  0.0815  0.0529
14763TIP3   OH265779   0.693   5.730  11.835 -0.3696  0.1076 -0.0077
14763TIP3    H165780   0.761   5.698  11.894  0.5060  0.7392 -0.6567
14763TIP3    H265781   0.613   5.727  11.888 -0.1720 -2.2081  0.2621
14764TIP3   OH265782   3.008   0.420   0.270 -0.1262 -0.3879  0.3662
14764TIP3    H165783   2.979   0.424   0.361  0.0705  0.9996  0.3780
14764TIP3    H265784   2.957   0.348   0.232  0.7249 -1.8689  1.8728
14765TIP3   OH265785   1.315   3.785  16.820  0.1279  0.0852  1.1686
14765TIP3    H165786   1.259   3.727  16.768  0.3848  0.9708 -0.1387
14765TIP3    H265787   1.344   3.730  16.893  1.0837 -1.7326 -0.4614
14766TIP3   OH265788   5.830   0.390   2.180 -0.4631  0.5669 -0.1565
14766TIP3    H165789   5.910   0.371   2.132  0.7815  2.0389  1.2092
14766TIP3    H265790   5.797   0.305   2.208  0.6195 -0.0699 -0.7599
14767TIP3   OH265791   5.347   4.391  12.004 -0.0585 -0.4886 -0.7348
14767TIP3    H165792   5.302   4.311  12.031 -0.7343  0.5471  1.4571
14767TIP3    H265793   5.436   4.380  12.036  0.7318 -1.5688 -3.0818
14768TIP3   OH265794   4.271   5.415   0.211 -0.0762 -0.1050  0.1778
14768TIP3    H165795   4.327   5.457   0.277 -1.3622  0.8584  0.6985
14768TIP3    H265796   4.269   5.323   0.237  0.3234  0.0627  0.8391
14769TIP3   OH265797   1.236   4.430   4.880 -0.3730  0.0121  0.2633
14769TIP3    H165798   1.326   4.415   4.849 -1.1086 -0.8176 -1.6655
14769TIP3    H265799   1.231   4.382   4.962  0.0564 -2.8389 -1.2394
14770TIP3   OH265800   2.280   2.899  11.398 -0.3640 -0.6427  0.0172
14770TIP3    H165801   2.287   2.955  11.321  0.8860 -1.7467 -0.7111
14770TIP3    H265802   2.322   2.950  11.468 -0.9895  0.1266 -0.1596
14771TIP3   OH265803   3.375   1.067  11.486  0.3772 -0.1729 -0.1586
14771TIP3    H165804   3.296   1.039  11.439 -1.1012  2.4823  0.5097
14771TIP3    H265805   3.349   1.066  11.579  2.0771 -1.8913  0.3622
14772TIP3   OH265806   5.660   6.303   0.581  0.4520 -0.0537 -0.4118
14772TIP3    H165807   5.605   6.264   0.513 -1.3923  0.8749  0.4878
14772TIP3    H265808   5.682   6.390   0.547 -0.4720  0.4117  0.1422
14773TIP3   OH265809   1.399   5.834  10.387 -0.2138  0.1814 -0.6203
14773TIP3    H165810   1.304   5.835  10.404 -0.4941 -0.8984 -1.9460
14773TIP3    H265811   1.413   5.901  10.321 -0.4812 -1.3010 -2.2523
14774TIP3   OH265812   3.074   4.918  14.096 -0.3157  0.3806 -0.2413
14774TIP3    H165813   3.071   5.007  14.062  0.9790  0.7662  0.5846
14774TIP3    H265814   3.140   4.920  14.165  0.6187 -1.4847 -0.9983
14775TIP3   OH265815   2.884   6.627  16.369 -0.0986  0.4598 -0.4079
14775TIP3    H165816   2.836   6.688  16.426  0.1386 -0.2741  0.6004
14775TIP3    H265817   2.889   6.546  16.420  2.4858  0.5978 -0.3139
14776TIP3   OH265818   2.403   1.137  15.214 -0.3342 -0.1437 -0.2140
14776TIP3    H165819   2.450   1.219  15.199  0.6194 -0.7143 -0.4238
14776TIP3    H265820   2.345   1.129  15.138 -0.0829  0.0937 -0.4346
14777TIP3   OH265821   3.984   3.220   4.961  0.4198  0.3103  0.4084
14777TIP3    H165822   3.975   3.167   5.040  0.3431  1.1516  0.9744
14777TIP3    H265823   4.072   3.202   4.929  0.4575 -0.0132  0.6872
14778TIP3   OH265824   5.912   4.881  11.079 -0.7407 -0.0760  0.0031
14778TIP3    H165825   5.912   4.929  10.997  0.0794 -0.1819 -0.0676
14778TIP3    H265826   5.929   4.948  11.146 -2.6296  0.2230  0.2434
14779TIP3   OH265827   0.849   4.561   0.135 -0.3259  0.1101 -0.2929
14779TIP3    H165828   0.903   4.499   0.184 -0.5744  0.9237  1.0389
14779TIP3    H265829   0.862   4.536   0.043 -0.3982 -1.8728  0.2002
14780TIP3   OH265830   0.680   5.699   2.906  0.4460  0.2957  0.7544
14780TIP3    H165831   0.619   5.628   2.923 -1.2352  1.0546 -1.6425
14780TIP3    H265832   0.757   5.657   2.868  0.2650 -0.3932  1.1360
14781TIP3   OH265833   5.411   2.357  13.787 -0.5906 -0.1166  0.3242
14781TIP3    H165834   5.405   2.401  13.872  0.3560  0.5153  0.0783
14781TIP3    H265835   5.345   2.288  13.791 -0.3575 -0.2866  1.6956
14782TIP3   OH265836   0.072   6.666  12.409  0.1828  0.1373 -0.2820
14782TIP3    H165837   0.039   6.682  12.498 -0.1022  1.2774 -0.5757
14782TIP3    H265838   0.166   6.659  12.420  0.1383  0.1284  0.1333
14783TIP3   OH265839   2.529   5.867   4.570 -0.0638  0.0587 -0.0457
14783TIP3    H165840   2.592   5.799   4.591 -0.5963 -0.0058  1.4887
14783TIP3    H265841   2.503   5.850   4.479  0.8734 -0.8959 -0.1446
14784TIP3   OH265842   0.173   0.377  11.987  0.0184  0.2498 -0.2049
14784TIP3    H165843   0.166   0.468  12.018 -2.9338  0.0351  0.0457
14784TIP3    H265844   0.236   0.381  11.915  0.4859  2.3620  0.2543
14785TIP3   OH265845   4.683   1.586   4.344  0.1453 -0.1503 -0.9094
14785TIP3    H165846   4.713   1.642   4.272  0.3927 -0.0512 -0.7345
14785TIP3    H265847   4.613   1.636   4.386 -1.5028 -1.1212 -2.3740
14786TIP3   OH265848   1.619   0.226   3.398 -0.0735 -0.0870  0.6499
14786TIP3    H165849   1.570   0.301   3.429  0.0435 -0.3929  1.6011
14786TIP3    H265850   1.683   0.208   3.467  0.4661 -0.5388  0.0534
14787TIP3   OH265851   6.162   1.007  14.191 -0.6833  0.5887 -0.0407
14787TIP3    H165852   6.152   1.091  14.237  0.0102  1.1202 -0.8321
14787TIP3    H265853   6.216   0.954  14.249 -2.4737  0.0578  1.2405
14788TIP3   OH265854   0.719   4.440   5.398 -0.2361  0.5152  0.1041
14788TIP3    H165855   0.712   4.532   5.372 -1.2563  0.2746 -0.4930
14788TIP3    H265856   0.780   4.402   5.336 -0.2162  0.6676  0.0296
14789TIP3   OH265857   1.247   4.293  14.373  0.0325  0.6865 -0.2566
14789TIP3    H165858   1.221   4.201  14.379 -1.4531  0.6800 -3.7739
14789TIP3    H265859   1.176   4.341  14.416 -0.7021  0.2466 -0.9421
14790TIP3   OH265860   0.512   3.170   5.800  0.6665  0.2083  0.0209
14790TIP3    H165861   0.574   3.130   5.739  0.6520  0.4640 -0.1663
14790TIP3    H265862   0.433   3.182   5.748  1.3293  2.4553 -0.5932
14791TIP3   OH265863   2.237   2.441   0.938 -0.3337 -0.0284  0.0297
14791TIP3    H165864   2.257   2.363   0.886 -0.1412  0.2798 -0.3629
14791TIP3    H265865   2.141   2.444   0.941 -0.3371 -0.6002  0.5374
14792TIP3   OH265866   0.018   3.797  12.381  0.2196  0.2855 -0.3083
14792TIP3    H165867  -0.073   3.793  12.351  0.0079  0.0233  0.3509
14792TIP3    H265868   0.069   3.815  12.302 -0.4649  1.0644 -0.5769
14793TIP3   OH265869   1.515   6.776  12.985  0.2410 -0.0844  0.3080
14793TIP3    H165870   1.431   6.750  12.949  1.0201 -1.1410 -0.8051
14793TIP3    H265871   1.492   6.826  13.064 -1.3858 -1.1627  0.5676
14794TIP3   OH265872   5.682   4.252   4.535 -0.0347 -0.1974  0.2400
14794TIP3    H165873   5.717   4.327   4.583 -2.5522  0.1298  1.8032
14794TIP3    H265874   5.755   4.190   4.529  2.0418  2.2070 -0.8744
14795TIP3   OH265875   0.506   6.249   4.116  0.4985  0.5064  0.6049
14795TIP3    H165876   0.586   6.203   4.140  0.6067  1.1413  1.5443
14795TIP3    H265877   0.443   6.225   4.185  0.4289  1.3937  0.8623
14796TIP3   OH265878   4.415   3.004   3.947  0.0622 -0.0276 -0.2746
14796TIP3    H165879   4.435   3.040   3.861 -0.5978  0.1558 -0.3557
14796TIP3    H265880   4.400   2.911   3.932  1.8040 -0.3828 -0.0604
14797TIP3   OH265881   4.103   5.039   5.666  0.2377 -0.6883  0.3817
14797TIP3    H165882   4.144   5.124   5.651  1.1158 -1.0837  0.4628
14797TIP3    H265883   4.175   4.977   5.661 -0.4978 -1.5059 -0.3313
14798TIP3   OH265884   4.134   4.458  12.574 -0.2562  0.0450 -0.2244
14798TIP3    H165885   4.144   4.423  12.485 -0.1153 -0.4596 -0.0163
14798TIP3    H265886   4.108   4.549  12.561 -0.1115  0.0131 -0.7842
14799TIP3   OH265887   5.883   2.635   6.210 -0.2438  0.2546 -0.5541
14799TIP3    H165888   5.956   2.593   6.255 -0.2321 -0.2646 -1.0490
14799TIP3    H265889   5.901   2.729   6.219 -0.5423  0.2005  1.0036
14800TIP3   OH265890   0.724   4.693   5.267 -0.0629  0.1676  0.0681
14800TIP3    H165891   0.630   4.705   5.260 -0.1867 -0.6710  0.1838
14800TIP3    H265892   0.761   4.747   5.196 -0.7603 -1.2244 -1.4021
14801TIP3   OH265893   3.023   0.712   1.503 -0.5206 -0.3247  0.2568
14801TIP3    H165894   2.947   0.741   1.453  0.3098  0.9260 -0.3299
14801TIP3    H265895   3.081   0.788   1.504  0.6392 -1.1932  0.8526
14802TIP3   OH265896   0.844   1.750  10.675  0.4017  0.1840 -0.4268
14802TIP3    H165897   0.888   1.756  10.760  0.7334  0.2332 -0.6026
14802TIP3    H265898   0.753   1.774  10.694  1.0256  3.0174 -0.5823
14803TIP3   OH265899   3.913   2.143   0.253  0.8387 -0.4309  0.1657
14803TIP3    H165900   3.868   2.075   0.203  1.4797 -1.7148  1.2829
14803TIP3    H265901   3.982   2.173   0.195  1.2411 -1.5307  0.0507
14804TIP3   OH265902   5.550   4.527  16.549  0.2521 -0.1635 -0.7981
14804TIP3    H165903   5.637   4.506  16.515  0.5424 -1.3366  0.5667
14804TIP3    H265904   5.496   4.451  16.525  0.0821 -0.2853 -0.0730
14805TIP3   OH265905   4.996   2.606  16.141  0.4362 -0.1934 -0.1632
14805TIP3    H165906   5.008   2.545  16.068 -0.2210  0.1236 -0.5501
14805TIP3    H265907   4.970   2.688  16.099  0.4223  0.0963  0.4080
14806TIP3   OH265908   1.414   1.037  17.115  0.1649 -0.8464 -0.3675
14806TIP3    H165909   1.354   1.111  17.113  1.2072  0.0976  0.9578
14806TIP3    H265910   1.372   0.970  17.062 -0.0170  1.2591 -3.0680
14807TIP3   OH265911   6.051   3.148   4.774 -0.1797 -0.3454 -0.0060
14807TIP3    H165912   6.057   3.158   4.869  4.7280 -1.2696  0.0563
14807TIP3    H265913   6.075   3.234   4.740  1.2162 -0.8290 -0.2901
14808TIP3   OH265914   6.400   2.539  17.169 -0.3919  0.2511  0.1567
14808TIP3    H165915   6.346   2.460  17.164  1.1012 -0.8156  0.2110
14808TIP3    H265916   6.406   2.570  17.079 -1.1613  0.4292  0.1644
14809TIP3   OH265917   0.322   2.526  13.130 -0.2159  0.3298  0.2629
14809TIP3    H165918   0.392   2.588  13.110 -0.1413 -0.4431 -2.2413
14809TIP3    H265919   0.251   2.580  13.164  0.2714  1.6393 -0.7115
14810TIP3   OH265920   3.649   6.290   2.668  0.2128 -0.5097 -0.3000
14810TIP3    H165921   3.661   6.304   2.574  0.5246 -0.5611 -0.2715
14810TIP3    H265922   3.687   6.204   2.684 -0.9023 -1.0129 -0.3223
14811TIP3   OH265923   1.092   6.781  11.204 -1.0676  0.2600  0.3590
14811TIP3    H165924   1.108   6.802  11.296  0.3047  2.3449 -0.2736
14811TIP3    H265925   1.168   6.817  11.158 -2.5538  0.8363 -1.7887
14812TIP3   OH265926   1.796   6.577   4.284 -0.1851 -0.3515 -0.2100
14812TIP3    H165927   1.750   6.609   4.206 -0.4640 -2.3886 -0.9371
14812TIP3    H265928   1.875   6.536   4.250  1.5978  1.8812  0.9273
14813TIP3   OH265929   2.990   0.113  13.291  0.2264 -0.3357 -0.5218
14813TIP3    H165930   2.942   0.126  13.209  0.3781 -1.0978 -0.7407
14813TIP3    H265931   3.075   0.156  13.275  0.3000 -0.5859 -0.8097
14814TIP3   OH265932   3.245   3.664  15.701 -0.1781 -0.0675  0.0880
14814TIP3    H165933   3.278   3.638  15.787 -0.5621 -1.0280 -0.0372
14814TIP3    H265934   3.168   3.717  15.720  0.9737  1.5598  0.3640
14815TIP3   OH265935   6.438   2.035  16.736 -0.1382  0.2021 -0.1310
14815TIP3    H165936   6.378   2.105  16.711  0.4192  0.4183 -0.9080
14815TIP3    H265937   6.447   1.982  16.657  0.1575 -0.2155  0.1796
14816TIP3   OH265938   4.984   2.977   2.366 -0.1599  0.1664 -0.6822
14816TIP3    H165939   4.951   3.055   2.411 -0.7328  0.3363 -1.3795
14816TIP3    H265940   5.079   2.980   2.378 -0.3269 -0.0151  0.8576
14817TIP3   OH265941   3.855   2.701  15.813 -0.1189 -0.0210 -0.0049
14817TIP3    H165942   3.941   2.740  15.796  0.7303 -1.2336  1.2770
14817TIP3    H265943   3.846   2.633  15.746 -0.9243  1.2720 -1.2731
14818TIP3   OH265944   6.203   2.091   2.759 -0.0474 -0.0781  0.3206
14818TIP3    H165945   6.136   2.026   2.776 -0.2641  0.3584  1.2137
14818TIP3    H265946   6.285   2.048   2.783 -0.0627 -0.4244 -0.2441
14819TIP3   OH265947   2.867   0.500   3.196  0.3032 -0.4562  0.0574
14819TIP3    H165948   2.842   0.564   3.129  1.4408 -0.2617 -0.2035
14819TIP3    H265949   2.892   0.553   3.272  1.8822 -0.5108 -0.3717
14820TIP3   OH265950   5.938   0.840   0.464  0.6925 -0.3261  0.4932
14820TIP3    H165951   5.898   0.754   0.451  0.9558 -0.2658 -0.8551
14820TIP3    H265952   5.869   0.902   0.438  0.3503 -0.0964  1.8762
14821TIP3   OH265953   2.325   5.929   3.112 -0.1024  0.3142  0.6645
14821TIP3    H165954   2.296   5.842   3.085 -1.0764  0.4505  1.2404
14821TIP3    H265955   2.247   5.983   3.108  0.6488  1.3769 -0.4613
14822TIP3   OH265956   6.633   3.482   2.533  0.0003 -0.3294 -0.7849
14822TIP3    H165957   6.589   3.518   2.456 -0.0225  1.4371 -0.0068
14822TIP3    H265958   6.623   3.550   2.600  3.8872  0.2259 -0.5404
14823TIP3   OH265959   1.340   6.389   3.712  0.0511  0.0520 -0.5925
14823TIP3    H165960   1.384   6.448   3.650 -1.0984  2.3086  0.6321
14823TIP3    H265961   1.248   6.417   3.711 -0.0710 -0.0494  1.8507
14824TIP3   OH265962   3.548   3.248  14.370  0.4239  0.0950 -0.1225
14824TIP3    H165963   3.574   3.200  14.292  1.1255 -1.0665  0.7979
14824TIP3    H265964   3.624   3.244  14.428 -0.6416 -0.5293  1.3022
14825TIP3   OH265965   5.891   6.003   1.302  0.3719 -0.0751 -0.2690
14825TIP3    H165966   5.835   6.074   1.333 -1.1474 -0.9915 -0.7976
14825TIP3    H265967   5.851   5.974   1.220  1.2186 -1.2277 -0.3129
14826TIP3   OH265968   6.531   3.890   3.990 -0.0870 -0.8978 -0.2970
14826TIP3    H165969   6.546   3.958   3.924  0.7666 -0.2923  0.4951
14826TIP3    H265970   6.491   3.937   4.064 -1.0965 -1.5779 -0.3962
14827TIP3   OH265971   3.260   0.446   1.648 -0.0280  0.3192  0.0833
14827TIP3    H165972   3.295   0.463   1.561  3.1369  0.6107  1.2821
14827TIP3    H265973   3.194   0.514   1.661  0.7016  1.3695 -1.4300
14828TIP3   OH265974   0.080   4.900   0.484 -0.3388 -0.0373 -0.0892
14828TIP3    H165975   0.039   4.827   0.437 -0.2878  1.5617 -2.8092
14828TIP3    H265976   0.156   4.923   0.431  0.6374  0.9301  1.6475
14829TIP3   OH265977   0.406   1.035   2.654  0.5738  0.1146  0.2221
14829TIP3    H165978   0.399   0.943   2.682  1.4805 -0.4397 -1.2673
14829TIP3    H265979   0.321   1.073   2.677 -0.7417 -1.7400 -1.2418
14830TIP3   OH265980   1.508   5.097  17.090  0.0189  0.2649  0.1724
14830TIP3    H165981   1.482   5.027  17.030  1.8129 -0.3010 -0.0024
14830TIP3    H265982   1.495   5.060  17.177  2.1511 -0.8355  0.0911
14831TIP3   OH265983   2.018   5.279   4.878  0.2649 -0.1643  0.6419
14831TIP3    H165984   1.961   5.349   4.912 -1.4575 -1.5868  0.8319
14831TIP3    H265985   2.097   5.325   4.848 -1.0519  1.9495  0.1558
14832TIP3   OH265986   3.785   6.089   5.292  0.0634 -0.1178  0.4550
14832TIP3    H165987   3.830   6.173   5.293  1.0942 -0.6459  0.0536
14832TIP3    H265988   3.846   6.028   5.334 -0.7294 -0.6395  0.8754
14833TIP3   OH265989   6.806   4.339   6.621  0.2110 -0.6175 -0.0088
14833TIP3    H165990   6.808   4.247   6.594 -2.1286  0.2678 -4.0844
14833TIP3    H265991   6.863   4.383   6.559 -0.2392  0.9452  0.6515
14834TIP3   OH265992   4.565   5.178  11.756  0.3807  0.1804 -0.2241
14834TIP3    H165993   4.532   5.134  11.678 -0.8955  0.8531 -0.0753
14834TIP3    H265994   4.531   5.267  11.751  0.2896  0.2429  1.0849
14835TIP3   OH265995   2.566   3.531  12.697  0.6470  0.3915 -0.0430
14835TIP3    H165996   2.577   3.509  12.604 -0.0543 -2.2837  0.4519
14835TIP3    H265997   2.472   3.525  12.712  0.7168  1.1642  0.8105
14836TIP3   OH265998   4.011   4.771   1.996  0.2499 -0.5342 -0.3062
14836TIP3    H165999   3.984   4.856   2.031 -1.9770 -0.7712 -1.3249
14836TIP3    H266000   3.959   4.707   2.045  2.1011 -1.3883  0.6453
14837TIP3   OH266001   5.093   5.230  13.439  0.0562 -0.3180  0.1875
14837TIP3    H166002   5.094   5.272  13.353  0.3095 -0.5562  0.0709
14837TIP3    H266003   5.007   5.186  13.443 -0.1662  0.1209  0.2704
14838TIP3   OH266004   3.992   0.370   3.341  0.1403 -0.0918 -0.4612
14838TIP3    H166005   3.999   0.349   3.248 -0.5410 -0.9669 -0.3314
14838TIP3    H266006   3.994   0.284   3.385 -1.1985  0.2013  0.2109
14839TIP3   OH266007   4.949   2.629  14.151 -0.4533 -0.6438 -0.1671
14839TIP3    H166008   4.910   2.561  14.096  0.9674 -1.9286  0.3850
14839TIP3    H266009   4.986   2.583  14.226  1.3633  0.6071 -0.2263
14840TIP3   OH266010   1.537   3.176   4.403  0.7419  0.7167 -0.3492
14840TIP3    H166011   1.506   3.086   4.412  0.9219  0.8066  1.7120
14840TIP3    H266012   1.576   3.180   4.315 -1.4197 -0.5015 -1.4311
14841TIP3   OH266013   4.942   1.665  15.712  0.1202  0.4917  0.7398
14841TIP3    H166014   4.971   1.604  15.780  1.3836  1.2387  0.9275
14841TIP3    H266015   4.877   1.721  15.756 -0.2986 -0.0785  0.8500
14842TIP3   OH266016   4.920   2.591  17.100 -0.1815 -0.2993  0.1163
14842TIP3    H166017   4.888   2.648  17.030 -0.5370 -0.0140  0.5104
14842TIP3    H266018   4.856   2.600  17.170  1.1732  0.9497  1.2728
14843TIP3   OH266019   3.691   2.265  11.656 -0.0711  0.4864 -0.0212
14843TIP3    H166020   3.599   2.240  11.640  0.3936 -1.1240 -0.3462
14843TIP3    H266021   3.739   2.225  11.584  0.8928  1.4661  0.0565
14844TIP3   OH266022   0.385   5.536  14.461 -0.4139  0.1147 -0.3055
14844TIP3    H166023   0.345   5.617  14.492  0.3531  1.3412 -2.3316
14844TIP3    H266024   0.399   5.484  14.541  2.0699  3.2774  1.5854
14845TIP3   OH266025   6.099   3.366  11.730  0.1177  0.5585  0.0815
14845TIP3    H166026   6.004   3.359  11.737  0.2525 -1.0217  0.6026
14845TIP3    H266027   6.118   3.457  11.753 -1.2368  0.8454  0.1536
14846TIP3   OH266028   3.395   3.671  13.014  0.0638  0.9112  0.0297
14846TIP3    H166029   3.354   3.627  13.089 -0.8485  2.1629  0.3040
14846TIP3    H266030   3.441   3.601  12.968  1.7684  0.3182  2.4541
14847TIP3   OH266031   4.860   2.251   5.431 -0.0525  0.0605 -1.1253
14847TIP3    H166032   4.844   2.342   5.454  3.4860  0.7546 -0.8170
14847TIP3    H266033   4.829   2.243   5.341 -0.2701  1.6022 -1.2165
14848TIP3   OH266034   1.144   1.982  16.899 -0.1229 -0.5511 -0.4591
14848TIP3    H166035   1.070   1.931  16.866 -0.0819 -1.2379  0.4544
14848TIP3    H266036   1.114   2.016  16.983 -0.0236  0.6726 -0.8976
14849TIP3   OH266037   0.826   6.387  16.262 -0.7286  0.3565  0.5378
14849TIP3    H166038   0.841   6.434  16.344 -0.6906 -1.0911  1.3943
14849TIP3    H266039   0.812   6.456  16.197  1.6583  1.6199  1.2528
14850TIP3   OH266040   4.954   2.815  11.256  0.1724  0.3222  0.4695
14850TIP3    H166041   5.028   2.863  11.217  1.2579 -0.7923  1.0720
14850TIP3    H266042   4.940   2.741  11.197 -1.4571  1.3038 -0.4264
14851TIP3   OH266043   3.777   1.359  11.214 -0.0977 -0.6744 -0.0943
14851TIP3    H166044   3.765   1.361  11.309 -1.0752  1.1480 -0.2024
14851TIP3    H266045   3.798   1.449  11.190  0.0180 -1.0731 -1.6291
14852TIP3   OH266046   5.536   0.957  13.802 -0.2523  0.0143  0.7281
14852TIP3    H166047   5.548   0.867  13.771 -0.3335  0.2324  0.0445
14852TIP3    H266048   5.546   0.951  13.897 -1.6494 -0.9525  0.8575
14853TIP3   OH266049   0.010   1.606  14.312 -0.0448 -0.5818 -0.0359
14853TIP3    H166050  -0.085   1.606  14.326 -0.0276 -0.8658  0.0928
14853TIP3    H266051   0.045   1.639  14.395 -0.0286 -0.5807 -0.0441
14854TIP3   OH266052   4.008   2.686   0.053 -0.1199 -0.0276 -0.5294
14854TIP3    H166053   3.980   2.595   0.063 -1.5973  0.5397  0.9785
14854TIP3    H266054   3.960   2.734   0.121  0.6088  1.8911 -1.2840
14855TIP3   OH266055   1.198   2.095   0.659  0.6886 -0.1050  0.3487
14855TIP3    H166056   1.251   2.090   0.739  1.1926  1.6216  0.1724
14855TIP3    H266057   1.137   2.167   0.676 -0.9930 -1.4294  0.1706
14856TIP3   OH266058   6.700   0.714  12.046 -0.3082 -0.3462  0.1052
14856TIP3    H166059   6.660   0.787  11.998 -0.7115 -0.5999  0.0492
14856TIP3    H266060   6.657   0.715  12.132  0.2951  0.0057  0.4068
14857TIP3   OH266061   0.262   5.735  13.561  0.9916  0.2684  0.1525
14857TIP3    H166062   0.287   5.768  13.475  1.0095 -0.7952 -0.2664
14857TIP3    H266063   0.171   5.762  13.571  0.5288 -0.8263 -0.8440
14858TIP3   OH266064   2.289   0.967   0.991  0.1307 -0.1269  0.4471
14858TIP3    H166065   2.332   1.052   0.986  1.7865 -0.7512  2.4108
14858TIP3    H266066   2.353   0.906   0.954  0.5001 -0.9233  2.2910
14859TIP3   OH266067   4.423   5.225  11.350  0.7782 -0.2761  0.0599
14859TIP3    H166068   4.417   5.319  11.370  0.8810 -0.4307  0.8829
14859TIP3    H266069   4.444   5.185  11.435  2.0682 -0.9096 -0.5263
14860TIP3   OH266070   0.776   1.873  14.249  0.4061 -0.2383  0.1713
14860TIP3    H166071   0.729   1.812  14.304  1.2552  0.3682  1.6310
14860TIP3    H266072   0.746   1.960  14.277 -0.0058  0.0632 -1.1327
14861TIP3   OH266073   1.778   4.892   0.397 -0.7249  0.6230  0.2698
14861TIP3    H166074   1.845   4.950   0.359  0.7184 -1.0812  0.0447
14861TIP3    H266075   1.695   4.936   0.381  0.1794  1.8194 -1.3771
14862TIP3   OH266076   3.143   0.379   3.267  0.2181 -0.4565 -0.3486
14862TIP3    H166077   3.202   0.358   3.195  0.2535 -1.5141 -0.0184
14862TIP3    H266078   3.059   0.400   3.225  0.4125 -0.4355 -0.7279
14863TIP3   OH266079   3.076   1.062  13.530  0.0274 -0.1023 -0.0697
14863TIP3    H166080   3.029   1.122  13.589  0.5313 -0.5887  0.8595
14863TIP3    H266081   3.060   0.975  13.568  0.4662 -0.4123 -0.5848
14864TIP3   OH266082   1.745   0.586  13.457 -0.0278 -0.5533  0.2141
14864TIP3    H166083   1.831   0.556  13.427  0.6514 -0.9314  2.3761
14864TIP3    H266084   1.764   0.647  13.528 -1.5476 -1.0118  1.0573
14865TIP3   OH266085   2.482   3.247   1.929 -0.0982 -0.0930 -0.1449
14865TIP3    H166086   2.438   3.323   1.967 -0.1821 -0.8957  1.4786
14865TIP3    H266087   2.547   3.284   1.869 -0.6634  1.2155  0.0249
14866TIP3   OH266088   4.757   4.739   5.930  0.4003  0.7636  0.1812
14866TIP3    H166089   4.700   4.667   5.957  1.0318  0.2546  0.2028
14866TIP3    H266090   4.772   4.724   5.836 -1.0255  1.9880 -0.2627
14867TIP3   OH266091   2.868   3.893   0.415  1.2708 -0.0476  0.3669
14867TIP3    H166092   2.824   3.899   0.330  0.1270 -1.6397  0.7869
14867TIP3    H266093   2.843   3.973   0.461 -0.1256 -0.3038  0.0899
14868TIP3   OH266094   4.198   6.016   5.412 -0.5974 -0.4439 -0.2381
14868TIP3    H166095   4.278   5.986   5.369  0.2505  1.6057 -0.1726
14868TIP3    H266096   4.136   6.029   5.342  0.7976  2.9597 -1.0025
14869TIP3   OH266097   1.293   1.326  14.097 -0.1236 -0.0500  0.3580
14869TIP3    H166098   1.386   1.318  14.118 -0.0493 -0.4353 -0.0789
14869TIP3    H266099   1.255   1.372  14.171  0.6145  1.1301  0.0241
14870TIP3   OH266100   3.475   0.718  16.503  0.2424  0.3570  0.2773
14870TIP3    H166101   3.557   0.762  16.483 -0.3192 -0.0284 -3.9166
14870TIP3    H266102   3.413   0.788  16.523  0.5671  1.1394 -1.2621
14871TIP3   OH266103   0.306   6.491   1.710 -0.4247  0.3207  0.0518
14871TIP3    H166104   0.314   6.414   1.653  0.2022 -0.4305  1.1194
14871TIP3    H266105   0.233   6.541   1.672 -1.1852 -1.0530 -0.3783
14872TIP3   OH266106   5.545   5.562  10.626  0.0516 -0.6094  0.2739
14872TIP3    H166107   5.472   5.622  10.614 -1.2549 -2.2228 -0.3024
14872TIP3    H266108   5.623   5.615  10.611 -0.9731  1.2191  1.1156
14873TIP3   OH266109   5.137   1.837  13.290  0.2245  0.0499  0.4600
14873TIP3    H166110   5.062   1.777  13.281  1.8828 -2.2646  1.0928
14873TIP3    H266111   5.122   1.881  13.374 -1.3383  1.0739 -0.3041
14874TIP3   OH266112   4.033   6.642   4.260 -0.3073  0.0677  0.2827
14874TIP3    H166113   3.950   6.612   4.296 -0.2579  0.9380  1.1689
14874TIP3    H266114   4.099   6.589   4.306 -0.3492 -0.3741 -0.1613
14875TIP3   OH266115   1.501   5.656   5.750  0.1487  0.2867 -0.5425
14875TIP3    H166116   1.432   5.712   5.715 -0.0091  0.3185 -0.1821
14875TIP3    H266117   1.577   5.674   5.694 -0.1320  0.2491 -0.9423
14876TIP3   OH266118   5.657   5.938  14.254  0.6751  0.0171  0.1846
14876TIP3    H166119   5.722   5.875  14.222 -1.0313 -2.8072  1.8441
14876TIP3    H266120   5.574   5.891  14.248 -0.6709  2.0655  1.7452
14877TIP3   OH266121   6.562   4.678  17.122 -1.0702  0.0713  0.0671
14877TIP3    H166122   6.538   4.687  17.215 -0.7426  0.3767  0.1212
14877TIP3    H266123   6.652   4.647  17.123 -0.9000  0.5507 -0.1526
14878TIP3   OH266124   2.300   1.071  10.696  0.5628 -0.3321  0.0922
14878TIP3    H166125   2.393   1.087  10.710  0.9239 -0.9843 -1.3627
14878TIP3    H266126   2.256   1.146  10.736  1.7027 -0.0694  0.8761
14879TIP3   OH266127   3.748   4.981   4.862 -0.3226  0.2440  0.2401
14879TIP3    H166128   3.733   5.021   4.948 -0.1039 -0.1966  0.4823
14879TIP3    H266129   3.660   4.960   4.830 -0.3461 -0.6837  0.8794
14880TIP3   OH266130   1.437   3.642   0.376  0.3488 -0.5313  0.1774
14880TIP3    H166131   1.459   3.552   0.399 -1.7209 -1.3268 -0.7620
14880TIP3    H266132   1.508   3.668   0.316  0.6011 -1.7838 -0.1093
14881TIP3   OH266133   6.292   5.088   4.059  0.0683  0.5694  0.0049
14881TIP3    H166134   6.263   5.177   4.039  0.6616  0.5473 -0.9665
14881TIP3    H266135   6.231   5.032   4.011 -0.5386  0.4241  0.9140
14882TIP3   OH266136   4.146   4.590  13.007 -0.0034 -1.1680 -0.2450
14882TIP3    H166137   4.233   4.625  12.993  0.5938 -2.4891 -0.0107
14882TIP3    H266138   4.143   4.568  13.100 -0.5568 -1.2262 -0.2690
14883TIP3   OH266139   6.056   6.100   4.727 -0.1948  0.9748  0.4898
14883TIP3    H166140   5.986   6.116   4.663 -0.1839 -0.9735 -0.0668
14883TIP3    H266141   6.019   6.131   4.810 -0.8808  1.9265 -0.1441
14884TIP3   OH266142   4.621   6.434  14.881 -0.3761  0.2803  0.9069
14884TIP3    H166143   4.624   6.338  14.876  0.6618  0.1716  2.8209
14884TIP3    H266144   4.712   6.461  14.880 -0.5946  1.1276  1.9580
14885TIP3   OH266145   3.711   4.018  12.201  0.4689  0.5118 -0.4256
14885TIP3    H166146   3.666   3.972  12.273 -0.3607  1.8412 -0.0604
14885TIP3    H266147   3.776   3.955  12.170  0.0660 -0.5262  0.7264
14886TIP3   OH266148   4.847   0.261  11.664  0.0625  0.4056 -0.3924
14886TIP3    H166149   4.928   0.222  11.631 -1.3561  0.0722 -4.0366
14886TIP3    H266150   4.782   0.191  11.654 -0.7093  0.4594  2.9919
14887TIP3   OH266151   2.239   2.791  15.641  0.1258  0.6985  0.0898
14887TIP3    H166152   2.203   2.880  15.645 -0.0334  0.6743 -0.6883
14887TIP3    H266153   2.264   2.771  15.731  0.7896  1.7923  0.1647
14888TIP3   OH266154   0.312   1.648  12.578  0.1058  0.3495 -0.4048
14888TIP3    H166155   0.319   1.740  12.550  1.6107 -0.3642 -2.6460
14888TIP3    H266156   0.396   1.629  12.621  0.4064 -0.3567 -1.2774
14889TIP3   OH266157   6.300   1.309  12.292 -0.3389  0.1135  0.2106
14889TIP3    H166158   6.356   1.379  12.258  1.2840 -0.1702  2.1232
14889TIP3    H266159   6.344   1.229  12.266 -0.6750 -0.1499  0.4490
14890TIP3   OH266160   0.755   3.862  15.763 -0.2130 -0.3735  0.1544
14890TIP3    H166161   0.777   3.836  15.853  1.0644  2.3270  0.7260
14890TIP3    H266162   0.762   3.958  15.764 -1.0000 -0.2144 -2.6431
14891TIP3   OH266163   1.078   0.453  16.230 -0.2994 -0.2512 -0.6078
14891TIP3    H166164   1.123   0.371  16.249 -0.1811 -0.5474 -2.0481
14891TIP3    H266165   0.986   0.436  16.252  0.0846  0.0073  1.3149
14892TIP3   OH266166   0.725   5.446   6.152  0.5554 -0.2753  0.3045
14892TIP3    H166167   0.781   5.370   6.137 -0.6870 -0.8846 -1.6480
14892TIP3    H266168   0.639   5.409   6.172 -0.3965  0.5385 -1.9742
14893TIP3   OH266169   3.776   2.568   5.875 -0.2132  0.1316 -0.3839
14893TIP3    H166170   3.700   2.623   5.894  0.0261  0.1092  0.6755
14893TIP3    H266171   3.844   2.598   5.935 -0.0431 -1.2494  0.1629
14894TIP3   OH266172   6.291   5.037  12.456 -0.4804  0.1384  0.0906
14894TIP3    H166173   6.213   5.006  12.502 -0.9564  0.3790 -0.5425
14894TIP3    H266174   6.319   5.114  12.506 -2.0443  1.4924 -1.0053
14895TIP3   OH266175   1.561   0.807  14.965  0.7179 -0.0192  0.6249
14895TIP3    H166176   1.520   0.761  15.039  0.9844 -1.4867 -0.0986
14895TIP3    H266177   1.509   0.886  14.954 -0.6531 -0.8277  1.0431
14896TIP3   OH266178   3.469   3.599   5.304  1.0666  0.4289  0.0652
14896TIP3    H166179   3.516   3.638   5.378 -0.0567  1.9608  0.0295
14896TIP3    H266180   3.379   3.593   5.334  0.8866 -0.4129 -0.6315
14897TIP3   OH266181   0.654   0.908  13.486  0.0375 -0.4794  0.7015
14897TIP3    H166182   0.749   0.906  13.497  0.1524  0.4120  0.0635
14897TIP3    H266183   0.637   0.854  13.409  0.0309 -0.6088  0.7936
14898TIP3   OH266184   0.283   0.320  16.799 -0.2096  0.5412 -0.2024
14898TIP3    H166185   0.263   0.382  16.870 -0.9569  0.6640 -0.5097
14898TIP3    H266186   0.323   0.245  16.843  1.5778  1.6043  0.0842
14899TIP3   OH266187   2.996   3.365   3.020 -1.2862  0.5983 -0.0641
14899TIP3    H166188   2.916   3.337   2.975 -0.8542  0.3276 -0.6773
14899TIP3    H266189   2.990   3.461   3.021 -0.4565  0.7460 -2.3633
14900TIP3   OH266190   6.740   4.846  16.083 -0.3380  0.0564 -0.0481
14900TIP3    H166191   6.819   4.891  16.052 -0.3474  0.3963  0.4179
14900TIP3    H266192   6.683   4.843  16.006 -0.4116  0.9995 -0.0471
14901TIP3   OH266193   0.231   2.842  12.962 -0.1571  0.3705  0.2133
14901TIP3    H166194   0.178   2.844  12.882 -0.2680 -1.9592  0.1484
14901TIP3    H266195   0.186   2.899  13.023 -1.3798  0.3618 -0.6527
14902TIP3   OH266196   4.564   6.213   2.387  0.3581  0.2039 -0.1152
14902TIP3    H166197   4.647   6.255   2.408 -0.4224  2.0887 -0.5951
14902TIP3    H266198   4.542   6.163   2.465  1.0858  1.1346  0.7142
14903TIP3   OH266199   6.803   5.652  16.478  0.7340 -0.2023  0.4016
14903TIP3    H166200   6.791   5.566  16.518 -0.1784 -0.0929  0.3772
14903TIP3    H266201   6.847   5.704  16.545  0.4448 -0.4214  0.7676
14904TIP3   OH266202   3.654   1.432   3.454  0.1068  0.1530  0.4894
14904TIP3    H166203   3.680   1.523   3.468 -3.0247  1.1758  0.4897
14904TIP3    H266204   3.659   1.392   3.541  0.8649  0.4996  0.6091
14905TIP3   OH266205   3.670   4.527   0.658 -0.0234  0.0713 -0.0198
14905TIP3    H166206   3.718   4.472   0.597  0.5145  0.2424  0.2321
14905TIP3    H266207   3.582   4.533   0.623  0.3422  0.3756 -0.9173
14906TIP3   OH266208   3.797   0.369   5.181  0.0417  0.5355  0.7443
14906TIP3    H166209   3.812   0.303   5.249  0.3345 -1.1563 -0.8775
14906TIP3    H266210   3.703   0.382   5.181 -0.4383 -2.0656 -0.7170
14907TIP3   OH266211   4.896   5.825  14.567  0.0682  0.2372 -0.3400
14907TIP3    H166212   4.922   5.797  14.480 -0.6535 -1.0649 -0.1818
14907TIP3    H266213   4.818   5.879  14.554  0.1919  0.3686 -0.5246
14908TIP3   OH266214   1.762   2.530   1.202  0.6930  0.4628 -0.2216
14908TIP3    H166215   1.782   2.491   1.287  2.2266 -1.3876 -1.3546
14908TIP3    H266216   1.678   2.491   1.177  1.2109 -0.5501 -0.4243
14909TIP3   OH266217   1.206   0.214  11.849  0.4724  0.0649  0.2669
14909TIP3    H166218   1.125   0.206  11.900  0.9134 -0.2491  0.9208
14909TIP3    H266219   1.219   0.128  11.810  1.1510 -0.2513  1.1687
14910TIP3   OH266220   5.068   2.781  16.797  0.0533  0.2623 -0.5844
14910TIP3    H166221   4.991   2.758  16.849  1.3981 -0.9137  0.9738
14910TIP3    H266222   5.090   2.870  16.825 -0.6182  0.5323 -0.9030
14911TIP3   OH266223   0.891   5.444   5.333 -0.1189  0.2504  0.1009
14911TIP3    H166224   0.818   5.486   5.286 -1.5263 -0.5234  1.5097
14911TIP3    H266225   0.969   5.472   5.285 -1.4439 -0.6971 -2.8886
14912TIP3   OH266226   2.115   3.434   4.343 -0.4824  0.2359 -0.1575
14912TIP3    H166227   2.049   3.441   4.274 -0.2622  0.6771 -0.3310
14912TIP3    H266228   2.067   3.401   4.419 -0.8478  0.2950 -0.3589
14913TIP3   OH266229   6.693   1.277   1.250  0.1479 -0.0591 -0.0302
14913TIP3    H166230   6.633   1.286   1.176 -1.1031  0.7188  1.0586
14913TIP3    H266231   6.726   1.187   1.242 -1.6486 -0.7288 -0.2840
14914TIP3   OH266232   5.898   0.171   1.268  0.3377 -0.3071 -0.4510
14914TIP3    H166233   5.912   0.095   1.212  1.7330 -0.3096 -0.1357
14914TIP3    H266234   5.984   0.213   1.273  0.0070  0.2487  0.8797
14915TIP3   OH266235   1.207   5.601  16.844  0.1445 -0.5983  0.4594
14915TIP3    H166236   1.259   5.671  16.884 -0.6145  1.0692 -1.2870
14915TIP3    H266237   1.250   5.582  16.761 -1.3691  0.0857 -0.5427
14916TIP3   OH266238   2.694   0.526  13.772  0.2684  0.6064 -0.0871
14916TIP3    H166239   2.770   0.475  13.800 -1.6674 -1.1771  2.3360
14916TIP3    H266240   2.652   0.553  13.854 -2.5830  0.0848 -1.2666
14917TIP3   OH266241   0.248   1.117   0.357  0.1169  0.0728 -0.3362
14917TIP3    H166242   0.166   1.070   0.376 -0.8728  2.0600  0.5859
14917TIP3    H266243   0.227   1.170   0.280  1.1035 -0.6731 -1.1397
14918TIP3   OH266244   2.577   0.013  16.695  0.4628  0.1114 -0.5324
14918TIP3    H166245   2.515   0.041  16.627  2.0954  1.5016 -1.5188
14918TIP3    H266246   2.548   0.058  16.774 -0.0142  0.4315 -0.8803
14919TIP3   OH266247   5.427   2.714   5.765 -0.1762 -0.1969 -0.1524
14919TIP3    H166248   5.433   2.708   5.860  0.4281 -0.7857 -0.2229
14919TIP3    H266249   5.363   2.783   5.749 -0.4267 -0.2335  0.6811
14920TIP3   OH266250   5.647   3.129   2.317  0.3202  0.4761  0.4452
14920TIP3    H166251   5.558   3.098   2.301  0.4235 -0.3124  1.3326
14920TIP3    H266252   5.684   3.065   2.378  1.3647  1.0123  0.3915
14921TIP3   OH266253   0.657   1.885   2.270  0.1692  0.6077 -0.2612
14921TIP3    H166254   0.733   1.838   2.304  1.5007  0.5577 -3.0035
14921TIP3    H266255   0.685   1.977   2.266 -1.5304  1.4084  2.6786
14922TIP3   OH266256   2.933   0.483   1.414  0.0266 -0.0191 -0.3744
14922TIP3    H166257   2.985   0.552   1.456  1.1707  0.2519 -2.1071
14922TIP3    H266258   2.959   0.403   1.459 -0.2126  0.4729  0.6836
14923TIP3   OH266259   1.720   4.709  16.403 -0.4594  0.3538  0.1730
14923TIP3    H166260   1.693   4.721  16.312 -0.2447  1.8730  0.2961
14923TIP3    H266261   1.650   4.657  16.442 -0.4622 -0.4818 -0.8930
14924TIP3   OH266262   5.398   4.123  15.763 -0.3848  0.0969 -0.0583
14924TIP3    H166263   5.472   4.167  15.805 -1.9978  1.5764  1.3539
14924TIP3    H266264   5.434   4.039  15.735  1.6327  0.4389  1.2686
14925TIP3   OH266265   6.279   0.032   2.780  0.1847  0.3700 -0.5883
14925TIP3    H166266   6.353   0.092   2.785  0.3773  0.0890 -0.0348
14925TIP3    H266267   6.202   0.088   2.791  0.4108  0.3614  1.3736
14926TIP3   OH266268   5.016   6.185  15.609 -0.0637 -0.5045  0.1364
14926TIP3    H166269   5.060   6.266  15.635 -0.4206 -1.0819  2.8824
14926TIP3    H266270   4.934   6.213  15.570 -0.2599  0.4796  1.2058
14927TIP3   OH266271   6.706   2.005   5.461 -0.2578  0.5677  0.4670
14927TIP3    H166272   6.777   2.009   5.526  1.1912 -0.5518 -0.9764
14927TIP3    H266273   6.644   1.942   5.498  1.1972 -1.0838  0.2145
14928TIP3   OH266274   1.442   4.549   4.544  0.4595  0.4234  0.3807
14928TIP3    H166275   1.356   4.520   4.576  0.6862  1.6599  2.3233
14928TIP3    H266276   1.425   4.635   4.507  0.4025 -0.5571 -2.0256
14929TIP3   OH266277   6.319   2.368   5.656  0.0194  0.2549  0.1937
14929TIP3    H166278   6.378   2.320   5.598 -0.7559 -0.6257  0.1026
14929TIP3    H266279   6.274   2.430   5.599 -1.0377 -0.8866 -0.2673
14930TIP3   OH266280   0.291   4.002   2.456 -0.1653  0.3195  0.3582
14930TIP3    H166281   0.228   3.968   2.394 -0.6324  1.4697  0.1841
14930TIP3    H266282   0.280   3.947   2.534  0.0377 -0.7677 -0.3537
14931TIP3   OH266283   4.288   4.693   4.139 -0.2074 -0.1371  0.1978
14931TIP3    H166284   4.273   4.598   4.133  0.0988 -0.1599 -0.2375
14931TIP3    H266285   4.200   4.730   4.133 -0.3312 -0.3954  0.3721
14932TIP3   OH266286   2.141   1.858   1.708 -0.3559  0.1695 -0.0698
14932TIP3    H166287   2.229   1.840   1.738 -0.5325  0.1143  0.4215
14932TIP3    H266288   2.084   1.824   1.777 -0.9273 -3.2291 -2.0118
14933TIP3   OH266289   0.484   5.204   0.113 -0.1179  0.2696 -0.4073
14933TIP3    H166290   0.568   5.250   0.116  0.4290 -0.7204  0.1003
14933TIP3    H266291   0.419   5.274   0.109  0.6469  1.1420  1.1808
14934TIP3   OH266292   3.180   5.611  16.376  0.2005 -0.0253 -0.4330
14934TIP3    H166293   3.196   5.607  16.471 -0.7599 -0.0536 -0.2597
14934TIP3    H266294   3.237   5.680  16.345 -0.9880  1.4556  0.5177
14935TIP3   OH266295   3.265   0.541  15.395 -0.6408 -0.5376  0.4201
14935TIP3    H166296   3.350   0.567  15.360 -0.9860 -0.8840 -0.7427
14935TIP3    H266297   3.285   0.476  15.462  0.1060  0.9354  1.6953
14936TIP3   OH266298   0.239   1.442   3.837  0.2079  0.0003 -0.5899
14936TIP3    H166299   0.245   1.509   3.769 -1.0800  0.8004  0.0634
14936TIP3    H266300   0.250   1.490   3.919  0.8174 -0.8244 -0.1777
14937TIP3   OH266301   1.318   3.890   3.759  0.9970 -0.2172  0.3755
14937TIP3    H166302   1.233   3.860   3.728  1.6855 -1.7970 -0.0700
14937TIP3    H266303   1.297   3.954   3.827 -0.5349 -0.4141  0.1250
14938TIP3   OH266304   1.849   3.977   5.865 -0.6427 -0.3806  0.1802
14938TIP3    H166305   1.944   3.989   5.863 -0.8777  2.4085  1.0600
14938TIP3    H266306   1.831   3.949   5.955 -0.8228  2.0860  0.9892
14939TIP3   OH266307   3.746   6.176   0.544 -1.0513  0.6475  0.5324
14939TIP3    H166308   3.788   6.134   0.618 -2.1876 -0.2327  0.6980
14939TIP3    H266309   3.781   6.265   0.544 -0.1573  0.3132  1.4022
14940TIP3   OH266310   0.794   4.348  13.911 -0.5792  0.0035  0.2727
14940TIP3    H166311   0.757   4.330  13.997  1.2702 -0.6848  0.9731
14940TIP3    H266312   0.806   4.262  13.870 -1.0480  0.2977 -0.5036
14941TIP3   OH266313   2.886   1.362  11.265  0.2196  0.3911 -0.2759
14941TIP3    H166314   2.891   1.276  11.223  2.3228 -0.5417  1.6757
14941TIP3    H266315   2.972   1.402  11.249 -0.7200  2.1726 -1.1376
14942TIP3   OH266316   3.167   1.360   4.843  0.1872 -0.4526  0.3805
14942TIP3    H166317   3.200   1.381   4.756 -1.2922 -2.3048 -0.7073
14942TIP3    H266318   3.096   1.297   4.828 -0.3317 -0.6080  2.9079
14943TIP3   OH266319   5.554   0.956  14.573 -0.5363  0.3639 -0.6573
14943TIP3    H166320   5.579   0.865  14.585 -1.8123  0.0597 -0.1196
14943TIP3    H266321   5.600   0.984  14.494  0.1200 -0.6373 -0.6435
14944TIP3   OH266322   1.744   0.853   1.575  0.4789 -0.0755  0.5472
14944TIP3    H166323   1.835   0.824   1.577  0.3458 -0.5255  0.0718
14944TIP3    H266324   1.742   0.930   1.633  1.3330  0.4494 -0.1037
14945TIP3   OH266325   4.371   0.011   4.945 -0.0160 -0.3226  0.0266
14945TIP3    H166326   4.311   0.002   4.870 -0.0756 -0.9096  0.1335
14945TIP3    H266327   4.452  -0.031   4.915  0.2726  0.2874 -0.0437
14946TIP3   OH266328   5.505   2.609   6.363  0.3652 -0.1036  0.8015
14946TIP3    H166329   5.463   2.538   6.314 -0.7184  0.5078  0.8197
14946TIP3    H266330   5.575   2.566   6.412  1.4644 -0.7488 -1.2153
14947TIP3   OH266331   5.386   3.215   0.862 -0.2423  0.5812 -0.5459
14947TIP3    H166332   5.313   3.157   0.882 -0.2518  1.0803  0.9973
14947TIP3    H266333   5.368   3.247   0.774 -1.1796 -0.3385 -0.7020
14948TIP3   OH266334   2.160   1.429  16.604  0.3062  0.2677  0.0023
14948TIP3    H166335   2.125   1.468  16.524 -0.4558  1.5849  0.9457
14948TIP3    H266336   2.085   1.386  16.645  0.3019  1.0250  0.8254
14949TIP3   OH266337   4.076   5.624   2.903 -0.0328 -0.1328  0.2246
14949TIP3    H166338   4.078   5.717   2.882 -3.2399 -0.3517 -1.8674
14949TIP3    H266339   4.019   5.618   2.980 -0.2662 -0.3690  0.0382
14950TIP3   OH266340   2.322   1.504   6.132 -0.3496 -0.2450 -0.5047
14950TIP3    H166341   2.310   1.499   6.227 -2.7777 -0.7127 -0.7523
14950TIP3    H266342   2.387   1.572   6.119  0.7908 -0.8577  1.5156
14951TIP3   OH266343   3.698   3.576   3.749 -0.1890 -0.0316  0.0240
14951TIP3    H166344   3.710   3.671   3.754  1.3785 -0.0999 -1.4208
14951TIP3    H266345   3.786   3.540   3.755 -0.5220 -1.2400 -1.5850
14952TIP3   OH266346   5.859   5.105  14.378  0.0343 -0.1696 -0.1848
14952TIP3    H166347   5.850   5.185  14.326  1.4055 -1.2231 -2.1938
14952TIP3    H266348   5.800   5.117  14.452 -2.8688  1.0485 -2.4892
14953TIP3   OH266349   3.825   3.945  15.346  0.6594 -0.2219  0.1520
14953TIP3    H166350   3.754   3.885  15.369 -0.3575  0.0433 -2.1199
14953TIP3    H266351   3.784   4.032  15.347  0.9433 -0.0641 -1.1506
14954TIP3   OH266352   2.761   4.352   3.558 -0.3989 -0.0737 -0.0414
14954TIP3    H166353   2.764   4.283   3.493  2.3554 -0.0097 -0.0828
14954TIP3    H266354   2.726   4.428   3.511 -0.0906 -0.4919 -0.9604
14955TIP3   OH266355   5.326   2.473  11.068  0.3707  0.4374 -0.2768
14955TIP3    H166356   5.283   2.416  11.005  0.0855  0.8274 -0.4416
14955TIP3    H266357   5.412   2.490  11.031  1.0545 -1.1315  0.5195
14956TIP3   OH266358   4.006   4.130   5.575  0.1534  0.1303 -0.0448
14956TIP3    H166359   4.000   4.203   5.513  1.0868 -0.6824 -1.1466
14956TIP3    H266360   3.922   4.085   5.568 -0.0671  0.5503 -0.0837
14957TIP3   OH266361   1.052   4.937   4.097 -0.1871 -0.6825 -0.7432
14957TIP3    H166362   0.981   4.990   4.062 -0.0887 -1.1043 -1.6153
14957TIP3    H266363   1.008   4.861   4.136 -0.3180 -0.0513  0.3741
14958TIP3   OH266364   1.597   3.957   0.600  0.5742  0.1232  0.3750
14958TIP3    H166365   1.643   4.027   0.554  1.0825 -0.2606  0.2925
14958TIP3    H266366   1.634   3.877   0.564  2.0102 -0.2064  2.4270
14959TIP3   OH266367   2.640   0.235  11.631  0.2312 -0.0036  0.4450
14959TIP3    H166368   2.691   0.252  11.710  1.4833  0.3051 -0.4030
14959TIP3    H266369   2.668   0.302  11.569 -2.2561  1.0882  0.3736
14960TIP3   OH266370   4.542   5.614   3.935  0.1139 -0.1442 -0.5906
14960TIP3    H166371   4.570   5.697   3.895  0.3986 -0.8659 -1.9519
14960TIP3    H266372   4.450   5.606   3.912  0.0975 -0.2251 -0.4967
14961TIP3   OH266373   1.921   5.538   3.278  0.0701  0.0857  0.4592
14961TIP3    H166374   1.850   5.601   3.266  0.0606 -0.0539 -0.2199
14961TIP3    H266375   1.903   5.498   3.363 -0.7618 -0.0704  0.2160
14962TIP3   OH266376   5.641   0.826  14.159 -0.3195 -0.5309 -0.3708
14962TIP3    H166377   5.694   0.862  14.088 -0.0726  0.3969  0.2546
14962TIP3    H266378   5.703   0.807  14.229 -0.7681  0.4515  0.3245
14963TIP3   OH266379   1.156   3.967  13.098  0.3989 -0.7484  0.3565
14963TIP3    H166380   1.103   3.914  13.158 -0.7351 -0.0475  0.0182
14963TIP3    H266381   1.164   4.051  13.142 -0.2571 -0.2988 -0.3529
14964TIP3   OH266382   1.206   1.746  11.880 -0.0172  0.0753 -0.5693
14964TIP3    H166383   1.246   1.723  11.964 -1.7017  0.3402  0.3512
14964TIP3    H266384   1.276   1.791  11.832  1.7010 -2.0829 -0.2700
14965TIP3   OH266385   5.854   3.112  15.011 -0.3827 -0.0755 -0.1981
14965TIP3    H166386   5.805   3.090  14.932  0.4987  0.4828 -0.9195
14965TIP3    H266387   5.838   3.206  15.023 -0.0220 -0.0295 -0.0676
14966TIP3   OH266388   3.426   0.870   3.571  0.1518 -0.0624 -0.4882
14966TIP3    H166389   3.383   0.846   3.489  1.2938  0.2539 -1.2021
14966TIP3    H266390   3.366   0.932   3.612  1.4111  3.2854 -3.1939
14967TIP3   OH266391   5.552   0.976  15.058 -0.0500  0.7744  0.3181
14967TIP3    H166392   5.521   0.893  15.095  0.1738  1.4506  2.1237
14967TIP3    H266393   5.644   0.960  15.038 -0.5648 -0.1009 -1.5899
14968TIP3   OH266394   1.864   0.917   0.715  0.7367 -0.2503 -0.7459
14968TIP3    H166395   1.772   0.916   0.687 -0.1708  3.5274  1.4049
14968TIP3    H266396   1.899   1.000   0.680  2.0325  0.4191  1.8724
14969TIP3   OH266397   0.785   1.034  16.346  0.1831 -0.6369 -0.5452
14969TIP3    H166398   0.710   1.050  16.289  0.5175 -1.3806 -1.2122
14969TIP3    H266399   0.849   0.989  16.290  1.1898  0.1142 -0.0264
14970TIP3   OH266400   6.467   1.353   4.833  1.1731  0.3753 -0.3210
14970TIP3    H166401   6.396   1.417   4.830  1.3057  0.6525  1.2535
14970TIP3    H266402   6.507   1.357   4.747 -1.9515 -1.2755 -2.0221
14971TIP3   OH266403   3.542   1.191  16.745  0.1568  0.1405 -0.4263
14971TIP3    H166404   3.570   1.101  16.766 -0.4300 -0.2459 -1.2485
14971TIP3    H266405   3.615   1.246  16.773  0.5847 -0.6094 -0.0445
14972TIP3   OH266406   4.267   6.721  11.858 -0.4541  0.5625  0.2476
14972TIP3    H166407   4.202   6.750  11.794  0.4816  0.7733 -0.6320
14972TIP3    H266408   4.339   6.784  11.850 -0.9088  1.4576  2.5418
14973TIP3   OH266409   1.172   0.195   4.263  0.0725 -0.2228 -0.3185
14973TIP3    H166410   1.107   0.126   4.279  0.2338 -0.7320 -1.7019
14973TIP3    H266411   1.122   0.264   4.220 -0.0279  0.4251  0.8055
14974TIP3   OH266412   1.344   6.804  11.894  0.2750 -0.0408 -0.2969
14974TIP3    H166413   1.411   6.868  11.871 -0.6935  1.4336  0.7561
14974TIP3    H266414   1.386   6.749  11.961  0.6675  0.4094 -0.1665
14975TIP3   OH266415   6.175   3.540   5.591  0.1911  0.2230  0.1717
14975TIP3    H166416   6.133   3.624   5.610  0.7662 -0.0271  2.9140
14975TIP3    H266417   6.239   3.561   5.523  2.4808  2.7734  2.8230
14976TIP3   OH266418   1.226   0.191   5.510  0.2699  0.0162  0.0697
14976TIP3    H166419   1.222   0.286   5.508  1.7065  0.1575  1.8234
14976TIP3    H266420   1.299   0.170   5.568 -1.1509 -2.1583  1.2401
14977TIP3   OH266421   2.054   2.815   4.077  0.1824  0.1460  0.1572
14977TIP3    H166422   2.134   2.854   4.041  0.6227  0.1725  1.1269
14977TIP3    H266423   1.985   2.839   4.015  1.0945 -0.7785 -1.2630
14978TIP3   OH266424   3.332   0.287  14.082 -0.8393 -0.2158  0.3624
14978TIP3    H166425   3.427   0.288  14.094 -0.4426 -0.7938 -2.2505
14978TIP3    H266426   3.304   0.376  14.103  0.5668  0.5111 -0.6976
14979TIP3   OH266427   0.182   0.553   2.694 -0.0451 -0.0088  0.0885
14979TIP3    H166428   0.093   0.534   2.662 -0.6016 -0.9953  2.0409
14979TIP3    H266429   0.168   0.600   2.777  1.2499 -0.2240  0.4489
14980TIP3   OH266430   2.292   6.140  11.681 -0.3831 -0.1463  0.4279
14980TIP3    H166431   2.285   6.163  11.774  0.6233 -0.4677  0.5981
14980TIP3    H266432   2.256   6.052  11.674  4.2670 -2.4980  1.5914
14981TIP3   OH266433   1.254   3.237   1.557 -0.0051  0.5049  0.0092
14981TIP3    H166434   1.198   3.173   1.513 -1.0332  0.6382  1.0811
14981TIP3    H266435   1.343   3.210   1.535 -0.2896 -2.4582  1.9677
14982TIP3   OH266436   4.070   4.072  11.024 -0.8156 -0.3097  0.1713
14982TIP3    H166437   4.124   4.136  10.980 -0.7171  0.0096  0.7422
14982TIP3    H266438   3.986   4.075  10.979 -0.5369 -0.4043 -0.3564
14983TIP3   OH266439   0.808   1.569  15.300  0.2750  0.0096  0.1959
14983TIP3    H166440   0.778   1.608  15.382  0.3536 -0.1005  0.2770
14983TIP3    H266441   0.728   1.554  15.249  0.2989  0.9848 -0.1542
14984TIP3   OH266442   5.689   5.747  14.957 -0.0368 -0.2349  0.8688
14984TIP3    H166443   5.731   5.821  15.001  1.5693 -1.7935  2.1472
14984TIP3    H266444   5.731   5.744  14.871 -0.4669  0.6238  0.6256
14985TIP3   OH266445   4.422   2.070   3.983  0.0473 -0.3744  0.4331
14985TIP3    H166446   4.364   2.091   3.909 -1.0020 -0.6395  1.1542
14985TIP3    H266447   4.379   2.108   4.059  1.1437 -0.0599  0.9143
14986TIP3   OH266448   0.331   2.675  16.446 -0.5097  0.3660  0.0316
14986TIP3    H166449   0.257   2.686  16.505  0.8228  2.3536  1.4788
14986TIP3    H266450   0.321   2.746  16.382 -0.0584  0.4478  0.0477
14987TIP3   OH266451   6.157   2.014   3.727 -0.6119 -0.1225  0.0836
14987TIP3    H166452   6.087   2.080   3.725  0.6380  1.4036  2.4287
14987TIP3    H266453   6.230   2.058   3.770  0.8940 -2.5174  0.1307
14988TIP3   OH266454   0.874   0.175  16.122 -0.2955  0.0246  0.2384
14988TIP3    H166455   0.849   0.245  16.183 -0.4413 -0.6374  0.9639
14988TIP3    H266456   0.887   0.219  16.039  0.3469  1.0335  0.8493
14989TIP3   OH266457   6.548   3.102   2.973 -0.5867  0.5637  0.7920
14989TIP3    H166458   6.453   3.111   2.969 -0.5643  1.6487  1.9743
14989TIP3    H266459   6.582   3.186   2.942 -0.0433  0.5803  1.4034
14990TIP3   OH266460   1.479   1.952   0.020  0.3551 -0.6625  0.5847
14990TIP3    H166461   1.417   1.951   0.092 -0.3369  2.2147  0.1119
14990TIP3    H266462   1.563   1.976   0.061  0.7447 -2.2974  0.8556
14991TIP3   OH266463   1.414   0.371  14.697  0.7710  0.5656 -0.1733
14991TIP3    H166464   1.494   0.319  14.689 -0.3972 -1.1319 -1.3893
14991TIP3    H266465   1.390   0.365  14.790  1.0619 -0.4806 -0.1542
14992TIP3   OH266466   1.201   2.971   4.120 -0.3913 -0.2062 -0.0435
14992TIP3    H166467   1.146   2.920   4.061 -1.6767 -0.5310  1.3785
14992TIP3    H266468   1.248   2.907   4.173 -0.1194  0.0802  0.0711
14993TIP3   OH266469   2.416   0.940   2.907 -0.5675  0.5311  0.3093
14993TIP3    H166470   2.345   0.880   2.882 -0.4965  0.0095  1.2788
14993TIP3    H266471   2.407   0.948   3.002  0.4213  0.7872  0.3891
14994TIP3   OH266472   6.680   3.304  14.003 -0.4367 -0.1556 -0.1198
14994TIP3    H166473   6.721   3.241  13.944  0.2319  0.1044  0.0643
14994TIP3    H266474   6.682   3.387  13.954 -0.9053 -0.1776 -0.1802
14995TIP3   OH266475   1.465   6.630   1.163  0.1619  0.2955  0.7026
14995TIP3    H166476   1.500   6.708   1.206  2.5801  0.4584 -1.3181
14995TIP3    H266477   1.481   6.645   1.070 -2.2711 -1.2529 -0.0612
14996TIP3   OH266478   5.341   0.418   3.726  0.3938  0.3433  0.7118
14996TIP3    H166479   5.249   0.436   3.706  0.3369 -0.7872 -0.1476
14996TIP3    H266480   5.374   0.500   3.763 -0.7209  1.0571  0.1720
14997TIP3   OH266481   1.808   2.479   2.011 -0.0684  0.3715 -0.1055
14997TIP3    H166482   1.810   2.505   2.103  1.3037  1.0927 -0.3047
14997TIP3    H266483   1.833   2.559   1.963 -0.0640 -0.1775 -1.0373
14998TIP3   OH266484   3.529   5.164   0.604 -0.2556  0.3287  0.4173
14998TIP3    H166485   3.532   5.128   0.693  0.7694 -1.2650 -0.1972
14998TIP3    H266486   3.564   5.093   0.549  0.9755  1.9748 -1.0178
14999TIP3   OH266487   3.442   0.250  16.439 -0.8010  0.3658 -0.6189
14999TIP3    H166488   3.395   0.263  16.522 -1.4210  1.0296 -1.0520
14999TIP3    H266489   3.458   0.339  16.407  0.1777  0.1246 -0.8045
15000TIP3   OH266490   1.306   3.795   5.094  0.5556  0.5908  0.1629
15000TIP3    H166491   1.388   3.781   5.141  0.8741 -1.5454 -0.9217
15000TIP3    H266492   1.256   3.715   5.109 -1.7507  2.1484  1.4663
15001TIP3   OH266493   2.561   1.521  16.119 -0.5587 -0.6433 -0.0742
15001TIP3    H166494   2.582   1.490  16.207 -1.8441 -2.6079 -0.3828
15001TIP3    H266495   2.466   1.532  16.119 -0.3911  1.0607 -0.7331
15002TIP3   OH266496   1.770   4.695   2.275  0.1561  0.1842  0.4074
15002TIP3    H166497   1.743   4.780   2.310  1.4336  0.9910 -0.4563
15002TIP3    H266498   1.695   4.638   2.288 -0.4830  1.2603  1.6467
15003TIP3   OH266499   0.621   3.510   5.064 -0.1959  0.4955 -0.3833
15003TIP3    H166500   0.628   3.579   5.130 -0.8850  2.2804 -2.1005
15003TIP3    H266501   0.710   3.475   5.057 -0.0916  0.3091  1.4050
15004TIP3   OH266502   0.051   5.360   3.457  0.0364 -0.3591  0.0563
15004TIP3    H166503  -0.030   5.406   3.434 -0.8361 -1.4427  0.8488
15004TIP3    H266504   0.085   5.407   3.532 -0.9846 -1.0884  1.0209
15005TIP3   OH266505   0.319   4.391  12.942  0.1890 -0.1717 -0.3382
15005TIP3    H166506   0.234   4.357  12.913 -0.6249  0.7441  0.8775
15005TIP3    H266507   0.315   4.389  13.037  1.6877 -0.4360 -0.2454
15006TIP3   OH266508   6.754   1.777  15.334 -0.0596  0.0435  0.0053
15006TIP3    H166509   6.689   1.725  15.383  0.5903  1.0920  2.0888
15006TIP3    H266510   6.836   1.763  15.380  0.0479  3.3392  1.1110
15007TIP3   OH266511   2.429   5.606  15.752  0.0546  0.3825 -0.1731
15007TIP3    H166512   2.481   5.592  15.673 -0.1941 -1.2020 -0.0822
15007TIP3    H266513   2.429   5.701  15.764  1.3406  0.5448 -1.2316
15008TIP3   OH266514   0.459   6.629   5.264  0.1753  0.5495 -0.1538
15008TIP3    H166515   0.377   6.674   5.286  0.2594  1.4203 -1.5620
15008TIP3    H266516   0.522   6.699   5.250  0.5505 -0.0287 -1.4554
15009TIP3   OH266517   1.383   1.448   2.997 -0.3321 -0.6207  0.1917
15009TIP3    H166518   1.475   1.442   3.024 -0.7898 -2.0986  1.6131
15009TIP3    H266519   1.334   1.408   3.069 -2.2603  1.5627  0.2168
15010TIP3   OH266520   4.533   3.096   4.589  0.4054 -0.0697  0.3394
15010TIP3    H166521   4.485   3.177   4.572  0.2262 -0.4354 -1.0447
15010TIP3    H266522   4.519   3.078   4.682  0.5606  1.5482  0.7033
15011TIP3   OH266523   4.051   5.776  15.520  0.5326  0.2483  0.1987
15011TIP3    H166524   4.029   5.696  15.472  1.8412  0.4499 -0.7858
15011TIP3    H266525   3.971   5.797  15.570 -0.2305 -0.9910 -0.4506
15012TIP3   OH266526   0.875   2.755  15.845  0.5443  0.4895 -0.6119
15012TIP3    H166527   0.865   2.766  15.939 -0.4291  0.1035 -0.6580
15012TIP3    H266528   0.802   2.698  15.820  1.7315 -0.7431 -1.3486
15013TIP3   OH266529   2.522   3.670  13.930 -0.0011 -0.4802 -0.2494
15013TIP3    H166530   2.463   3.643  13.860  1.5023  0.5963 -2.0381
15013TIP3    H266531   2.464   3.694  14.003 -1.6292 -1.3724 -1.1943
15014TIP3   OH266532   3.140   2.397   3.057  0.1373 -0.0850  0.7561
15014TIP3    H166533   3.198   2.332   3.016 -0.0391  0.5964 -0.6518
15014TIP3    H266534   3.172   2.481   3.024 -0.0311  0.5136  2.0579
15015TIP3   OH266535   5.433   4.055  16.304  0.1853  0.4398 -0.3776
15015TIP3    H166536   5.491   4.013  16.242 -1.9095 -0.7233 -1.6793
15015TIP3    H266537   5.416   3.988  16.371  1.8922  1.4605  1.1886
15016TIP3   OH266538   3.232   2.374  13.072 -0.4599 -0.5710 -0.0904
15016TIP3    H166539   3.201   2.322  13.146  0.9390 -2.0027 -0.4470
15016TIP3    H266540   3.292   2.438  13.111 -1.9861  0.6607  0.3212
15017TIP3   OH266541   2.103   6.666  15.661  0.2271 -0.1487 -0.3485
15017TIP3    H166542   2.186   6.714  15.664  1.1392 -1.7079  0.6363
15017TIP3    H266543   2.101   6.629  15.573  0.3909  0.1701 -0.4911
15018TIP3   OH266544   4.640   1.125   0.582 -0.7025 -0.5678  0.6745
15018TIP3    H166545   4.672   1.098   0.668  0.8430  0.7698  0.5774
15018TIP3    H266546   4.674   1.059   0.522 -0.4680 -0.6666  0.9113
15019TIP3   OH266547   4.109   6.502  12.897 -0.6834 -0.1970  0.2481
15019TIP3    H166548   4.115   6.441  12.824  2.6248  0.2213 -0.0132
15019TIP3    H266549   4.093   6.447  12.973 -2.9289 -0.7645 -0.5775
15020TIP3   OH266550   1.178   2.180   0.367 -0.5709  0.5676  0.2031
15020TIP3    H166551   1.234   2.176   0.444  0.2051  0.0954 -0.3660
15020TIP3    H266552   1.090   2.196   0.401 -0.1485  0.9290  1.1355
15021TIP3   OH266553   2.992   1.354  12.101 -0.5543  0.3831 -0.5154
15021TIP3    H166554   2.934   1.285  12.134  0.5413 -0.4531 -0.2826
15021TIP3    H266555   3.022   1.400  12.180  0.9204 -0.6897 -0.4157
15022TIP3   OH266556   2.568   0.113  15.086  0.2142  0.8026 -0.2794
15022TIP3    H166557   2.534   0.030  15.052 -2.0520  1.9706 -1.0990
15022TIP3    H266558   2.534   0.119  15.175 -1.6225  1.8297 -0.9934
15023TIP3   OH266559   6.446   4.049  11.576 -0.0443  0.1927  0.1595
15023TIP3    H166560   6.485   3.962  11.578 -0.0066  0.2196  1.0801
15023TIP3    H266561   6.438   4.074  11.668 -2.4583  0.0763  0.0638
15024TIP3   OH266562   5.466   2.471   2.951  0.1215 -0.0417  0.1361
15024TIP3    H166563   5.425   2.449   3.035 -0.1862  2.3014  0.6451
15024TIP3    H266564   5.501   2.387   2.920 -4.1573 -2.0900  0.1257
15025TIP3   OH266565   1.695   0.875   4.026  0.4952 -0.0274 -0.1407
15025TIP3    H166566   1.689   0.813   3.953  0.4054  0.8732 -0.9143
15025TIP3    H266567   1.697   0.961   3.985 -2.4082  0.6996  0.9794
15026TIP3   OH266568   1.123   4.505   1.635  0.2930 -0.2157 -1.0358
15026TIP3    H166569   1.111   4.484   1.542 -1.2441  0.0104 -0.9199
15026TIP3    H266570   1.179   4.434   1.668 -1.3361 -1.8486 -1.5752
15027TIP3   OH266571   1.567   3.605   3.027 -0.0302 -0.1183 -0.2099
15027TIP3    H166572   1.520   3.627   3.108  0.8686  0.1458  0.2552
15027TIP3    H266573   1.655   3.581   3.056  1.0009  2.1129 -1.2513
15028TIP3   OH266574   1.203   5.741   4.690  0.1123 -0.4407 -0.1415
15028TIP3    H166575   1.183   5.835   4.695  0.7171 -0.2674 -0.8407
15028TIP3    H266576   1.259   5.724   4.766  1.1102  0.0572 -0.7460
15029TIP3   OH266577   5.690   1.612   1.151  0.4312  0.1274  0.2495
15029TIP3    H166578   5.642   1.547   1.099 -0.5864  1.1133 -0.0930
15029TIP3    H266579   5.731   1.669   1.086 -0.8317  1.3553  0.4756
15030TIP3   OH266580   0.939   2.777   0.688 -0.1551  0.0701 -0.1903
15030TIP3    H166581   0.895   2.697   0.661  0.9244 -1.1364  1.4288
15030TIP3    H266582   0.932   2.778   0.783  3.6382 -0.5353  0.2781
15031TIP3   OH266583   6.121   5.390  13.194 -0.0151 -0.1839  0.3273
15031TIP3    H166584   6.125   5.439  13.276 -0.2279  1.2205 -0.4658
15031TIP3    H266585   6.037   5.345  13.195  0.3881 -0.9477  1.2773
15032TIP3   OH266586   3.539   4.265  14.494  0.3751  0.3193  0.1812
15032TIP3    H166587   3.539   4.349  14.539  0.6958  0.4947 -0.1366
15032TIP3    H266588   3.625   4.260  14.452 -0.1458  0.4519 -0.9377
15033TIP3   OH266589   4.546   2.466  14.804  0.6192 -0.0063 -0.0801
15033TIP3    H166590   4.490   2.391  14.822 -0.5425  0.8695  0.0632
15033TIP3    H266591   4.621   2.430  14.757 -1.1693 -0.8961 -2.3952
15034TIP3   OH266592   0.333   5.447   2.978 -0.1298 -0.5582  0.4536
15034TIP3    H166593   0.406   5.400   2.938 -0.8108 -3.1513  2.0253
15034TIP3    H266594   0.264   5.381   2.987 -1.4896  0.9795  1.9988
15035TIP3   OH266595   5.876   2.375  13.419 -0.7461  0.5184  0.2023
15035TIP3    H166596   5.910   2.312  13.355  1.1447  2.3672 -0.7199
15035TIP3    H266597   5.813   2.428  13.369 -0.0525  1.2889  0.1267
15036TIP3   OH266598   1.705   5.699   3.266  0.4883  0.4345  0.4223
15036TIP3    H166599   1.726   5.716   3.358  1.7656  0.7351  0.0933
15036TIP3    H266600   1.610   5.700   3.263  0.4378  1.9850  1.4540
15037TIP3   OH266601   4.900   6.272   4.361  0.9216 -0.4241 -0.2889
15037TIP3    H166602   4.849   6.239   4.287  1.5513  0.7222 -1.2541
15037TIP3    H266603   4.835   6.292   4.428  0.3934 -2.0749 -0.2607
15038TIP3   OH266604   3.048   1.700  13.575  0.6895  0.1202 -0.2265
15038TIP3    H166605   2.955   1.697  13.596  0.9939  0.0498  1.1935
15038TIP3    H266606   3.085   1.621  13.616  1.2545 -0.3048 -1.4825
15039TIP3   OH266607   0.394   3.812   5.609 -0.0121  0.2163  0.9541
15039TIP3    H166608   0.376   3.771   5.694 -0.0139 -1.0661  0.3598
15039TIP3    H266609   0.469   3.869   5.625 -0.4466  0.5301  1.9648
15040TIP3   OH266610   5.927   3.125   3.880 -0.1017 -0.0703  0.7056
15040TIP3    H166611   6.022   3.113   3.890 -0.0541 -0.5315 -0.1641
15040TIP3    H266612   5.908   3.205   3.929  0.4525 -0.8736  2.2737
15041TIP3   OH266613   3.602   4.901  12.932 -0.7241 -0.1574  0.2722
15041TIP3    H166614   3.541   4.852  12.876 -0.0210 -0.2317 -0.4360
15041TIP3    H266615   3.658   4.834  12.971 -0.7432 -0.0392  0.5054
15042TIP3   OH266616   4.009   0.347  15.773 -0.0273  0.0337  0.3362
15042TIP3    H166617   3.990   0.440  15.777 -1.6933 -0.3278  1.4243
15042TIP3    H266618   4.072   0.332  15.844  1.7686  0.6035 -1.0400
15043TIP3   OH266619   0.659   0.543   4.811 -0.1445  0.0706  0.0022
15043TIP3    H166620   0.578   0.595   4.807 -0.1978 -0.0683 -1.0584
15043TIP3    H266621   0.728   0.608   4.823 -0.3109  0.2958 -0.2236
15044TIP3   OH266622   6.759   5.703  17.142 -0.2110 -0.0626  0.0882
15044TIP3    H166623   6.666   5.694  17.121 -0.2810  1.6964 -0.5182
15044TIP3    H266624   6.794   5.758  17.072  0.2929  3.1249  2.5960
15045TIP3   OH266625   4.451   3.995  15.695  0.1018 -0.0611  0.4898
15045TIP3    H166626   4.511   3.928  15.727  2.3112  1.5737 -0.0435
15045TIP3    H266627   4.439   3.974  15.602  0.1062 -0.2037  0.5214
15046TIP3   OH266628   5.183   5.144   0.155 -0.5436  0.7136  0.3318
15046TIP3    H166629   5.108   5.104   0.201 -1.2563  1.6424  0.0031
15046TIP3    H266630   5.188   5.232   0.191 -0.2826  1.0121 -0.4376
15047TIP3   OH266631   3.332   1.696  10.500  0.1517  0.0586 -0.1857
15047TIP3    H166632   3.377   1.614  10.520 -1.3628 -0.9589 -0.6911
15047TIP3    H266633   3.263   1.702  10.567  0.3226  0.9868 -0.0836
15048TIP3   OH266634   3.773   1.649   0.989  0.1154  0.2317 -0.5375
15048TIP3    H166635   3.819   1.607   0.916 -1.4703  0.9124 -1.9754
15048TIP3    H266636   3.761   1.739   0.960  1.6179  1.2092  1.6367
15049TIP3   OH266637   5.135   3.809  16.157 -0.0778 -0.3490 -0.2330
15049TIP3    H166638   5.089   3.868  16.098 -0.9458  0.5720  1.2846
15049TIP3    H266639   5.126   3.850  16.243  0.8625 -1.7919  0.5942
15050TIP3   OH266640   0.969   2.117   3.747  0.4444 -0.5790  0.2698
15050TIP3    H166641   0.952   2.175   3.821 -0.8129  0.7555 -1.0179
15050TIP3    H266642   1.063   2.129   3.729  0.3912  0.4288  0.5717
15051TIP3   OH266643   3.890   2.892  12.277 -0.4508 -0.1881 -0.2070
15051TIP3    H166644   3.917   2.855  12.362  3.1059  0.6378 -0.7910
15051TIP3    H266645   3.838   2.969  12.299 -1.0385 -0.9470  1.1686
15052TIP3   OH266646   5.532   4.609   1.504 -0.3940  0.5211 -0.6241
15052TIP3    H166647   5.478   4.565   1.570 -0.6082  0.9751 -0.4932
15052TIP3    H266648   5.615   4.562   1.506 -0.5705  0.2177 -0.3794
15053TIP3   OH266649   0.791   0.142   4.594 -0.0392 -0.1644  0.0940
15053TIP3    H166650   0.745   0.189   4.524  0.9288 -1.3766 -1.4403
15053TIP3    H266651   0.737   0.156   4.672 -0.8308  1.7677 -0.7360
15054TIP3   OH266652   0.543   5.492  13.506 -0.6511  0.3283  0.9450
15054TIP3    H166653   0.574   5.568  13.458 -0.3938  0.1644  0.8498
15054TIP3    H266654   0.455   5.476  13.472 -0.1591 -0.2972 -0.0973
15055TIP3   OH266655   1.307   6.582  11.425  0.5959  0.0888 -0.7556
15055TIP3    H166656   1.360   6.584  11.345 -0.7163  2.6386 -1.6551
15055TIP3    H266657   1.242   6.650  11.413  0.8818  1.2255  2.8908
15056TIP3   OH266658   3.406   6.498  16.304 -0.2925  0.1915 -0.0680
15056TIP3    H166659   3.388   6.457  16.388 -1.0513  1.6393  0.5125
15056TIP3    H266660   3.498   6.523  16.308 -0.8996  2.6016  1.4825
15057TIP3   OH266661   4.506   5.251  15.690  0.1453  0.2487  0.1627
15057TIP3    H166662   4.526   5.329  15.638  1.8767 -0.2197  0.0750
15057TIP3    H266663   4.459   5.194  15.630  0.9039  0.2861 -0.4816
15058TIP3   OH266664   3.285   1.496   1.700 -0.1459 -0.3333  0.1350
15058TIP3    H166665   3.202   1.529   1.664 -0.2049  1.3966  1.6730
15058TIP3    H266666   3.350   1.559   1.669 -0.0208  0.4858  1.9170
15059TIP3   OH266667   3.762   6.137  12.434 -0.3776  0.8477  0.2840
15059TIP3    H166668   3.827   6.197  12.472  1.3728  0.8067 -2.4118
15059TIP3    H266669   3.750   6.167  12.344 -1.8476 -0.9859 -0.1988
15060TIP3   OH266670   4.994   6.508  13.372 -0.5628  0.0068  0.3295
15060TIP3    H166671   5.002   6.603  13.377 -0.5443 -0.0538  3.6935
15060TIP3    H266672   5.083   6.477  13.353 -0.1942  0.6085  1.0449
15061TIP3   OH266673   2.342   1.747  14.695  0.3371 -0.5930  0.1004
15061TIP3    H166674   2.321   1.682  14.762 -0.0727 -2.3354 -1.6321
15061TIP3    H266675   2.281   1.819  14.713 -0.1244 -1.2354  1.2677
15062TIP3   OH266676   3.184   4.945  14.862  0.2591 -0.1532  0.5306
15062TIP3    H166677   3.186   4.978  14.952 -1.1697 -1.2937  1.0085
15062TIP3    H266678   3.208   5.021  14.809  0.0742  0.8257  1.7939
15063TIP3   OH266679   6.575   1.562   4.966  0.2100  0.4985  0.5055
15063TIP3    H166680   6.659   1.558   4.921  1.4228  1.4891  2.5492
15063TIP3    H266681   6.528   1.484   4.935  2.6114 -1.1296  0.6956
15064TIP3   OH266682   5.553   5.555  12.977  0.1097 -0.0758  0.0783
15064TIP3    H166683   5.628   5.581  12.923  0.5729 -0.5589  0.4876
15064TIP3    H266684   5.512   5.484  12.927 -0.5027  0.6578 -0.4928
15065TIP3   OH266685   6.720   4.481  10.915 -0.1596  0.2309 -0.3346
15065TIP3    H166686   6.789   4.447  10.972 -0.6357 -2.2586 -1.1470
15065TIP3    H266687   6.651   4.509  10.975  0.4466  0.2230  0.3831
15066TIP3   OH266688   1.712   2.084   0.827 -0.0655 -0.3169 -0.1984
15066TIP3    H166689   1.761   2.062   0.747 -0.9019  0.2724 -0.8861
15066TIP3    H266690   1.777   2.075   0.897  0.5498 -1.3605 -0.8689
15067TIP3   OH266691   2.194   5.558  14.869 -0.0560 -0.0537  0.0627
15067TIP3    H166692   2.203   5.471  14.910 -0.2751 -0.3238 -0.4591
15067TIP3    H266693   2.100   5.573  14.865 -0.0082  0.3765  0.4905
15068TIP3   OH266694   2.908   0.241  11.311 -0.1560  0.7279 -0.0343
15068TIP3    H166695   2.874   0.320  11.268 -2.1260  0.0024  0.0955
15068TIP3    H266696   2.843   0.220  11.378  0.2138 -1.1249 -0.2045
15069TIP3   OH266697   6.596   4.923   4.796 -0.4331 -0.0550  0.1104
15069TIP3    H166698   6.673   4.876   4.828  0.8854  0.1732 -2.4923
15069TIP3    H266699   6.621   5.015   4.797 -1.1364  0.1472  0.3437
15070TIP3   OH266700   4.415   0.676  10.913  0.2089  0.2251  0.4100
15070TIP3    H166701   4.465   0.621  10.973  1.1192 -0.6809 -1.1254
15070TIP3    H266702   4.470   0.753  10.899 -0.0471  0.4819  0.7960
15071TIP3   OH266703   5.775   5.963   3.416  0.2673  0.2256 -0.1791
15071TIP3    H166704   5.810   5.900   3.354 -0.3615 -0.3682  0.0512
15071TIP3    H266705   5.765   6.043   3.366  3.4348  0.9431  0.1189
15072TIP3   OH266706   6.134   1.974   0.570 -0.0041 -0.0988 -0.0704
15072TIP3    H166707   6.114   2.065   0.549 -0.2211 -0.0131  0.4950
15072TIP3    H266708   6.113   1.925   0.490 -1.6877  0.0974  0.2133
15073TIP3   OH266709   3.469   5.582  11.429  0.0096 -0.3707  0.0511
15073TIP3    H166710   3.487   5.496  11.467 -2.3034 -0.3862  1.2884
15073TIP3    H266711   3.382   5.574  11.390  0.1522  1.1424 -0.6696
15074TIP3   OH266712   3.501   0.221  13.314 -1.0260 -0.4260  0.3676
15074TIP3    H166713   3.516   0.194  13.404  0.8529  0.5652  0.3985
15074TIP3    H266714   3.545   0.154  13.261  0.5608  0.5813  0.3363
15075TIP3   OH266715   3.718   3.333   1.253  0.5231 -0.5044 -0.1922
15075TIP3    H166716   3.648   3.304   1.195 -0.1942 -2.2363  1.4082
15075TIP3    H266717   3.793   3.280   1.229 -0.0869 -2.0345  1.1033
15076TIP3   OH266718   6.411   0.352  14.361 -0.6585 -0.2156  0.6173
15076TIP3    H166719   6.386   0.290  14.291  1.9635 -0.5721 -0.1184
15076TIP3    H266720   6.474   0.303  14.414 -2.6727  0.0086  3.4156
15077TIP3   OH266721   4.984   2.075  12.082 -0.2332  0.4481 -0.1986
15077TIP3    H166722   5.040   2.090  12.158 -1.6151 -0.7620  1.0925
15077TIP3    H266723   5.046   2.056  12.011  1.0307 -0.6556  1.1368
15078TIP3   OH266724   2.084   4.409   0.237 -0.8474  0.2788 -0.5164
15078TIP3    H166725   2.142   4.416   0.313 -1.1223 -2.1713  0.0027
15078TIP3    H266726   2.137   4.363   0.171 -2.0899 -1.9413 -0.0557
15079TIP3   OH266727   4.406   5.782  16.840  0.4516  0.2442 -0.2207
15079TIP3    H166728   4.417   5.745  16.927 -0.9089  1.4298  0.4869
15079TIP3    H266729   4.483   5.750  16.791  0.0458 -2.3846  0.6746
15080TIP3   OH266730   4.548   5.673  13.341 -0.8551 -0.1889  0.6421
15080TIP3    H166731   4.618   5.736  13.356 -1.8779  0.6622  2.0731
15080TIP3    H266732   4.526   5.641  13.429 -1.5192 -1.2643  0.1036
15081TIP3   OH266733   2.237   1.631   1.261  0.3447  0.3640 -0.2241
15081TIP3    H166734   2.168   1.568   1.241 -0.4936  0.8411  1.0815
15081TIP3    H266735   2.198   1.691   1.325  2.2825  0.0216  1.3757
15082TIP3   OH266736   0.119   5.531   1.072 -0.2561 -0.1387 -0.3321
15082TIP3    H166737   0.189   5.568   1.019 -1.3354  1.4590 -0.7106
15082TIP3    H266738   0.142   5.438   1.081  0.4477 -0.2582 -2.7712
15083TIP3   OH266739   0.764   4.087   2.565  0.8453  0.1390 -0.5571
15083TIP3    H166740   0.683   4.111   2.521 -0.2188 -0.4173  1.0024
15083TIP3    H266741   0.810   4.170   2.579 -0.0896  0.6253 -0.2883
15084TIP3   OH266742   4.500   6.746  16.105 -0.4283  0.2037  0.4455
15084TIP3    H166743   4.503   6.802  16.028 -3.4493  0.0180  0.1015
15084TIP3    H266744   4.486   6.806  16.178  1.9301  0.3296  0.8665
15085TIP3   OH266745   2.794   3.318   2.083 -0.2327  0.8128  0.1824
15085TIP3    H166746   2.861   3.250   2.069  1.7502  2.9476 -1.5540
15085TIP3    H266747   2.800   3.374   2.006 -1.5153  3.1758  1.6661
15086TIP3   OH266748   6.438   4.078  14.899  0.4430 -0.0788  0.1564
15086TIP3    H166749   6.454   3.983  14.895 -0.5230 -0.3646  1.8767
15086TIP3    H266750   6.383   4.097  14.823 -0.2930 -1.1196  0.4115
15087TIP3   OH266751   5.075   5.089  11.736  0.4004  0.3785 -0.3196
15087TIP3    H166752   5.164   5.096  11.771  0.9512  2.0096 -1.8702
15087TIP3    H266753   5.020   5.074  11.813  2.0025 -0.7324  0.6619
15088TIP3   OH266754   5.825   3.753  17.006  0.3470 -0.3348  0.6388
15088TIP3    H166755   5.848   3.845  16.994  0.4227 -0.4712 -0.3968
15088TIP3    H266756   5.872   3.707  16.936 -0.6521 -1.0017  0.3770
15089TIP3   OH266757   2.256   3.551   4.080  0.0292 -0.0792  0.5612
15089TIP3    H166758   2.294   3.465   4.063  1.0650  0.6539 -1.0983
15089TIP3    H266759   2.161   3.537   4.075  0.0205 -1.6689  3.3697
15090TIP3   OH266760   5.221   1.517   0.516  0.0358  0.4973 -0.6721
15090TIP3    H166761   5.258   1.602   0.490 -0.8020  0.5716 -1.7219
15090TIP3    H266762   5.239   1.459   0.442 -1.0458  0.2832 -0.7885
15091TIP3   OH266763   6.785   0.261  16.031  0.1543  0.5921 -0.2742
15091TIP3    H166764   6.763   0.332  15.971 -1.6202 -0.9003 -1.4664
15091TIP3    H266765   6.793   0.184  15.975 -0.5319 -0.6451  1.2768
15092TIP3   OH266766   4.570   6.717   1.941  0.4798  0.1260  0.2783
15092TIP3    H166767   4.519   6.642   1.912 -0.6020  0.6470  0.7912
15092TIP3    H266768   4.613   6.687   2.022 -1.9458  0.7858  1.9187
15093TIP3   OH266769   0.191   1.175   1.560 -0.2327 -0.4470  0.2057
15093TIP3    H166770   0.105   1.139   1.537  0.2407  0.5742 -4.0021
15093TIP3    H266771   0.253   1.105   1.538  0.1972  0.1222 -0.4371
15094TIP3   OH266772   3.363   4.294  17.132  0.2595 -0.6294 -0.8085
15094TIP3    H166773   3.382   4.228  17.199 -1.5475 -0.3672  0.0092
15094TIP3    H266774   3.447   4.335  17.115  1.2529 -2.4606 -0.6185
15095TIP3   OH266775   3.561   5.632   6.099 -0.1747 -0.1805  0.1514
15095TIP3    H166776   3.518   5.610   6.017 -0.7502  1.9236 -0.1723
15095TIP3    H266777   3.488   5.647   6.160  0.1898  0.3541  0.4603
15096TIP3   OH266778   1.560   5.093  14.533  0.2232 -0.0223  0.6619
15096TIP3    H166779   1.608   5.176  14.537 -1.6744  1.2748 -1.4351
15096TIP3    H266780   1.616   5.036  14.480  0.3641  0.7938 -0.0769
15097TIP3   OH266781   5.478   1.845  13.403  0.0384  0.0543 -0.1039
15097TIP3    H166782   5.451   1.810  13.488  1.7768  1.2985  1.0091
15097TIP3    H266783   5.457   1.938  13.408  2.6989  0.7059  0.1058
15098TIP3   OH266784   6.388   3.598  16.752  0.0396  0.6646  0.1650
15098TIP3    H166785   6.307   3.549  16.768  0.6411  0.1980  2.0607
15098TIP3    H266786   6.360   3.690  16.754 -1.0004  0.5367 -2.8963
15099TIP3   OH266787   1.730   3.784   2.656 -0.4422  0.6822  0.2127
15099TIP3    H166788   1.665   3.800   2.587 -0.4690  0.7793  0.2602
15099TIP3    H266789   1.779   3.866   2.662 -0.6751  0.7971  0.5552
15100TIP3   OH266790   5.967   0.309   1.011  0.2202  0.2721 -0.1650
15100TIP3    H166791   5.990   0.286   1.101 -0.3075  0.2113 -0.0391
15100TIP3    H266792   6.042   0.281   0.959  0.3994  0.0212  0.2184
15101TIP3   OH266793   4.314   5.609   1.780  0.1256  0.0241 -0.2222
15101TIP3    H166794   4.388   5.579   1.833  0.2251  0.4200 -0.1316
15101TIP3    H266795   4.253   5.646   1.844 -0.4843 -0.9489 -0.2160
15102TIP3   OH266796   2.629   5.856   1.071  0.0520 -0.0247  0.3579
15102TIP3    H166797   2.638   5.836   0.978  0.0185 -0.7267  0.4995
15102TIP3    H266798   2.716   5.840   1.108 -0.4351 -1.8756  0.8227
15103TIP3   OH266799   3.417   2.222  11.580 -0.6283 -0.3880 -0.2698
15103TIP3    H166800   3.413   2.316  11.565  0.8378 -0.2991 -0.2408
15103TIP3    H266801   3.327   2.197  11.604 -1.3406  0.7540 -1.6165
15104TIP3   OH266802   2.905   2.513  12.715 -0.1194 -0.7987  0.0489
15104TIP3    H166803   2.917   2.429  12.760  1.3568  0.0259  1.3051
15104TIP3    H266804   2.994   2.546  12.703 -0.7088  0.9143  0.2399
15105TIP3   OH266805   0.845   0.933  15.328 -0.8765  0.0690 -0.1531
15105TIP3    H166806   0.931   0.958  15.295 -1.0124 -1.5421 -1.8246
15105TIP3    H266807   0.849   0.838  15.337 -2.7698 -0.1368 -1.1556
15106TIP3   OH266808   0.425   4.274   5.655 -0.2088  0.2121  0.1985
15106TIP3    H166809   0.396   4.318   5.575  1.9695  0.8682 -0.2897
15106TIP3    H266810   0.484   4.205   5.625  0.1542  0.0710  1.1907
15107TIP3   OH266811   3.935   2.270  13.237  0.3723 -0.0374 -0.1229
15107TIP3    H166812   3.845   2.302  13.223  0.9498  0.8714 -2.0068
15107TIP3    H266813   3.935   2.181  13.202  0.4724  0.3667 -1.1783
15108TIP3   OH266814   2.300   3.022  16.673  0.4862  0.0080 -0.2277
15108TIP3    H166815   2.387   3.048  16.705  1.5499 -2.5024 -0.8375
15108TIP3    H266816   2.304   3.035  16.578  0.5227 -0.8613 -0.3589
15109TIP3   OH266817   0.548   6.603   1.806 -0.0275  0.4172  0.3763
15109TIP3    H166818   0.454   6.585   1.815  0.1929 -0.0095  2.2692
15109TIP3    H266819   0.577   6.547   1.735 -1.0670 -0.0539  0.3136
15110TIP3   OH266820   2.473   3.554  14.484  0.1928  0.4307 -0.0914
15110TIP3    H166821   2.437   3.642  14.481  1.1533  0.9121  1.2167
15110TIP3    H266822   2.561   3.562  14.447 -0.4426 -0.4179 -1.8732
15111TIP3   OH266823   2.549   5.237   4.210  0.0587  0.7073  0.0887
15111TIP3    H166824   2.547   5.171   4.141 -0.2919 -1.3402  1.9583
15111TIP3    H266825   2.463   5.280   4.205 -0.1623  0.2190 -0.3993
15112TIP3   OH266826   2.145   5.448   5.790 -0.7646 -0.3868 -0.0826
15112TIP3    H166827   2.091   5.391   5.844  0.7103 -2.7786 -0.9490
15112TIP3    H266828   2.230   5.404   5.787  0.1290  1.3133 -1.7300
15113TIP3   OH266829   1.025   2.048  12.499  0.2872 -0.0448  0.4725
15113TIP3    H166830   1.000   2.002  12.418 -0.3599  0.2278  0.5061
15113TIP3    H266831   0.950   2.035  12.557  0.5962  0.0771  0.8975
15114TIP3   OH266832   4.509   0.111   3.647 -0.3895  0.4263 -0.3794
15114TIP3    H166833   4.569   0.161   3.702  0.6303 -0.5171 -0.5897
15114TIP3    H266834   4.524   0.144   3.559  0.8830 -0.7514 -0.6417
15115TIP3   OH266835   5.618   0.182  13.068 -0.1289 -0.0830 -0.7792
15115TIP3    H166836   5.579   0.117  13.009  1.0726 -2.1097  0.5143
15115TIP3    H266837   5.705   0.198  13.032  1.7803 -3.5094  1.7026
15116TIP3   OH266838   4.929   5.967  15.956 -0.3421  0.6357 -0.6801
15116TIP3    H166839   4.841   5.998  15.976 -1.0000  0.1561 -2.5773
15116TIP3    H266840   4.974   5.963  16.041 -2.6792 -0.8186  0.5761
15117TIP3   OH266841   0.063   5.977   1.912 -0.0576  0.0614  0.1765
15117TIP3    H166842   0.027   5.901   1.957 -0.5678 -0.5798 -1.2384
15117TIP3    H266843  -0.013   6.019   1.872  0.3688  0.6019 -0.0731
15118TIP3   OH266844   2.870   5.990  16.364 -0.4505 -0.1105  0.3800
15118TIP3    H166845   2.841   6.061  16.306 -0.5178 -0.8901 -0.5813
15118TIP3    H266846   2.837   6.014  16.450 -2.6952 -0.2195 -0.3881
15119TIP3   OH266847   1.935   5.720  15.669  0.4599  0.3768  0.4339
15119TIP3    H166848   1.886   5.729  15.588 -0.5323 -0.3229  0.9422
15119TIP3    H266849   1.955   5.627  15.676  0.9412  0.4967  0.7675
15120TIP3   OH266850   2.317   2.353  15.943 -0.2010  0.2240 -0.1548
15120TIP3    H166851   2.359   2.300  15.875 -1.8643  1.2059 -2.0523
15120TIP3    H266852   2.283   2.289  16.005 -0.7234 -0.8911 -1.5229
15121TIP3   OH266853   5.140   3.256  16.233 -0.6493 -0.0193  0.0592
15121TIP3    H166854   5.144   3.289  16.323 -0.0593  0.4573 -0.1318
15121TIP3    H266855   5.076   3.185  16.236 -0.0055 -0.5823  1.0480
15122TIP3   OH266856   6.606   5.999  14.060  0.2254  0.5450 -0.3425
15122TIP3    H166857   6.531   6.056  14.046  0.0491  0.6769  0.9575
15122TIP3    H266858   6.664   6.015  13.986 -0.3944  1.4899 -0.6332
15123TIP3   OH266859   2.266   4.900   3.642 -0.4559 -0.6920 -0.1516
15123TIP3    H166860   2.289   4.815   3.604 -3.2088 -0.5672 -2.4031
15123TIP3    H266861   2.351   4.941   3.661  0.9749 -3.1214 -0.8009
15124TIP3   OH266862   3.073   5.898   3.676 -0.2661  0.1412  0.2010
15124TIP3    H166863   3.122   5.973   3.709  0.9894 -0.0068 -1.2445
15124TIP3    H266864   2.997   5.936   3.631  0.0930  0.5197 -0.0874
15125TIP3   OH266865   3.505   2.885  15.968  0.3229  0.6340  0.0836
15125TIP3    H166866   3.580   2.855  16.020 -0.1720  2.2457  1.8650
15125TIP3    H266867   3.437   2.821  15.984  0.2490  0.9919  1.3146
15126TIP3   OH266868   4.804   6.309  15.509 -0.3909  0.0252  0.9149
15126TIP3    H166869   4.723   6.285  15.553 -0.8792  0.0983  0.0767
15126TIP3    H266870   4.787   6.397  15.474 -0.1249 -0.1433  0.3444
15127TIP3   OH266871   4.426   0.287   5.071 -0.1054 -0.7322 -0.0970
15127TIP3    H166872   4.477   0.225   5.122  0.3597  0.0732  0.4402
15127TIP3    H266873   4.408   0.360   5.131  0.7156  0.3743 -1.1295
15128TIP3   OH266874   6.141   2.689   4.919 -0.5352  0.3942  0.5924
15128TIP3    H166875   6.177   2.602   4.900 -0.5284  0.8910 -2.0484
15128TIP3    H266876   6.195   2.748   4.867 -2.8089  1.5590 -0.5643
15129TIP3   OH266877   4.465   1.787  14.882 -0.0785  0.1698  0.0672
15129TIP3    H166878   4.453   1.868  14.933 -0.8610  0.5892 -0.7525
15129TIP3    H266879   4.531   1.810  14.816  0.1954 -0.0698  0.2556
15130TIP3   OH266880   3.849   2.843   2.254  0.1616  0.1978 -0.4115
15130TIP3    H166881   3.770   2.792   2.271  0.1412  0.4722  0.3527
15130TIP3    H266882   3.820   2.915   2.199 -0.0637  0.1352 -0.3751
15131TIP3   OH266883   2.365   3.228  15.800 -0.0521 -0.8339  0.0135
15131TIP3    H166884   2.385   3.316  15.767 -1.0902 -1.1715 -1.6331
15131TIP3    H266885   2.451   3.189  15.816  0.4325  0.2873  0.2562
15132TIP3   OH266886   1.506   0.753  16.054 -0.0355 -0.1169 -0.1952
15132TIP3    H166887   1.452   0.700  16.113  0.3923  0.3263  0.6216
15132TIP3    H266888   1.454   0.761  15.974 -0.1693 -1.6240 -0.2864
15133TIP3   OH266889   0.741   0.528  10.982  0.9350  0.0575 -0.1367
15133TIP3    H166890   0.695   0.604  11.016 -1.0934 -1.0718 -0.1817
15133TIP3    H266891   0.698   0.510  10.898  3.2094  0.4469 -1.4734
15134TIP3   OH266892   0.026   6.115  16.508  0.4653  0.0421 -0.6227
15134TIP3    H166893   0.012   6.144  16.417 -0.2627 -2.0854 -1.2405
15134TIP3    H266894   0.041   6.021  16.501  1.4576  0.0109  1.3943
15135TIP3   OH266895   3.106   5.139   5.784  0.2082 -0.4498  0.4003
15135TIP3    H166896   3.067   5.179   5.862 -1.8519 -0.7111 -0.4516
15135TIP3    H266897   3.051   5.064   5.764 -0.5701  0.7137 -2.4178
15136TIP3   OH266898   3.771   4.895  13.482  0.0373  0.5509 -0.4395
15136TIP3    H166899   3.786   4.905  13.387  1.1036 -0.6666 -0.4242
15136TIP3    H266900   3.848   4.936  13.522 -1.2816  2.7790  0.0218
15137TIP3   OH266901   1.316   0.383   1.183 -0.4864 -0.2207  0.4983
15137TIP3    H166902   1.242   0.331   1.214 -1.2466  1.0575  0.9023
15137TIP3    H266903   1.353   0.422   1.262 -0.9767  1.1831  0.0660
15138TIP3   OH266904   3.089   6.494   2.105 -0.3960 -0.1336 -0.0861
15138TIP3    H166905   3.017   6.486   2.167 -0.7759  0.8038 -0.3999
15138TIP3    H266906   3.168   6.490   2.160 -0.7115 -0.0170  0.3811
15139TIP3   OH266907   1.093   1.938  11.690 -0.7343  0.1922 -0.5329
15139TIP3    H166908   1.124   1.852  11.720 -0.3335  0.7338  0.7042
15139TIP3    H266909   1.131   1.948  11.603  0.7792 -0.1072  0.0628
15140TIP3   OH266910   0.594   6.716  15.644  0.0889  0.0719  0.1811
15140TIP3    H166911   0.644   6.750  15.718 -0.7805 -1.3546  1.4662
15140TIP3    H266912   0.552   6.637  15.677 -0.0982 -0.7747 -1.9347
15141TIP3   OH266913   4.776   0.131   5.468 -0.1358  0.1468  0.5129
15141TIP3    H166914   4.845   0.080   5.427 -0.3150 -0.5927  1.0958
15141TIP3    H266915   4.722   0.163   5.396 -0.3760 -1.0181  0.1565
15142TIP3   OH266916   5.236   1.277   2.106 -0.0662  0.3092  0.2062
15142TIP3    H166917   5.319   1.237   2.131  0.9080  2.7246  1.1058
15142TIP3    H266918   5.252   1.311   2.017 -0.6271 -0.5480 -0.2368
15143TIP3   OH266919   3.171   4.244   0.448 -0.3683 -0.4700 -0.3088
15143TIP3    H166920   3.097   4.297   0.477  0.0781  0.7831 -1.4155
15143TIP3    H266921   3.186   4.269   0.358  1.5911 -0.4955 -0.0353
15144TIP3   OH266922   3.328   5.756   0.305 -0.2506 -0.0160 -0.3727
15144TIP3    H166923   3.414   5.719   0.327  0.6515  0.4544 -2.7541
15144TIP3    H266924   3.266   5.686   0.327  0.9664 -1.1971 -0.5155
15145TIP3   OH266925   6.794   6.113  17.098  0.1698 -0.7312 -0.9419
15145TIP3    H166926   6.763   6.172  17.030 -1.9146 -2.8372 -1.9549
15145TIP3    H266927   6.828   6.036  17.050 -0.0488 -1.6676  0.3480
15146TIP3   OH266928   4.658   0.106  15.795 -0.0709 -0.3371  0.1438
15146TIP3    H166929   4.570   0.141  15.810  0.3343  0.3896  0.9018
15146TIP3    H266930   4.643   0.018  15.759 -1.1032  0.1211 -0.6101
15147TIP3   OH266931   6.599   6.705   3.301 -0.1475  0.3823 -0.0912
15147TIP3    H166932   6.630   6.652   3.374  0.4980  2.4153  1.1792
15147TIP3    H266933   6.676   6.754   3.272 -0.9148  1.3248 -0.6089
15148TIP3   OH266934   3.216   0.496   3.710  0.4438 -0.0741 -0.2249
15148TIP3    H166935   3.188   0.470   3.798 -2.7620  2.5374 -0.2919
15148TIP3    H266936   3.200   0.419   3.656 -2.0381 -0.3155  0.7295
15149TIP3   OH266937   3.605   4.881   0.578 -0.1688 -0.5956  0.0976
15149TIP3    H166938   3.680   4.831   0.548  0.5727  0.2267  0.5426
15149TIP3    H266939   3.600   4.863   0.672  0.5527  0.6828  0.4154
15150TIP3   OH266940   1.567   2.102   4.294  0.1266  0.7172 -0.6377
15150TIP3    H166941   1.506   2.092   4.221 -0.2605  2.6195 -0.6202
15150TIP3    H266942   1.529   2.050   4.364  0.4324 -1.0290 -1.6978
15151TIP3   OH266943   4.454   4.161   4.821 -0.3739 -0.2386 -0.2040
15151TIP3    H166944   4.464   4.215   4.900 -1.5277 -1.6075  0.9282
15151TIP3    H266945   4.360   4.141   4.818 -0.3677 -0.1239 -2.0089
15152TIP3   OH266946   5.391   4.676   5.999 -0.5824  0.4070  0.0402
15152TIP3    H166947   5.477   4.718   5.997 -0.8163  0.9073  0.2717
15152TIP3    H266948   5.409   4.583   5.986 -0.2229  0.8028 -3.6056
15153TIP3   OH266949   2.511   4.172   2.494  0.0754  0.4838  0.0584
15153TIP3    H166950   2.474   4.257   2.519 -0.1193  0.0762  1.2400
15153TIP3    H266951   2.450   4.138   2.428 -1.3087  0.1616  1.4211
15154TIP3   OH266952   3.336   2.591   1.746  0.1781  0.2637 -0.0811
15154TIP3    H166953   3.423   2.618   1.716  0.2647 -0.8568 -0.8816
15154TIP3    H266954   3.289   2.673   1.759  0.5578  0.8400 -2.0453
15155TIP3   OH266955   5.035   5.165   4.379 -0.1444 -0.0966 -0.0357
15155TIP3    H166956   4.997   5.153   4.292 -0.2311 -0.6212  0.0711
15155TIP3    H266957   4.960   5.166   4.438  0.0120 -2.0193  0.2748
15156TIP3   OH266958   0.334   0.994  13.547 -0.6318 -0.3219  0.0853
15156TIP3    H166959   0.309   0.996  13.455  0.0971 -0.6267 -0.1285
15156TIP3    H266960   0.419   0.950  13.548 -0.8958 -0.8418  0.9709
15157TIP3   OH266961   0.689   3.436   0.554 -0.0130 -0.2413  0.2669
15157TIP3    H166962   0.639   3.501   0.505 -1.0289 -1.2050 -0.0218
15157TIP3    H266963   0.740   3.389   0.488  2.6070  1.7559  0.7017
15158TIP3   OH266964   4.420   0.204  15.402  0.2485  0.0093  0.4109
15158TIP3    H166965   4.409   0.258  15.323  2.6547  0.2741  0.1679
15158TIP3    H266966   4.336   0.209  15.447 -0.7061  1.0815 -1.3917
15159TIP3   OH266967   5.702   6.395  15.291  0.3558 -0.2254  0.3578
15159TIP3    H166968   5.789   6.435  15.297  0.6192 -0.8308  0.7244
15159TIP3    H266969   5.691   6.375  15.198  0.9622 -0.8899  0.4197
15160TIP3   OH266970   3.227   4.530   0.139  0.4251 -0.0653 -0.3477
15160TIP3    H166971   3.133   4.539   0.120  0.6514  0.6419 -1.2252
15160TIP3    H266972   3.263   4.489   0.060  0.8518 -0.3308 -0.0165
15161TIP3   OH266973   2.585   5.977  16.853 -0.4681  0.4203 -0.1269
15161TIP3    H166974   2.644   5.905  16.875 -0.6436  0.5842  0.9758
15161TIP3    H266975   2.499   5.947  16.881 -1.0861 -0.1448 -2.4790
15162TIP3   OH266976   4.629   5.639  11.570 -0.2922 -0.4702 -0.1515
15162TIP3    H166977   4.641   5.664  11.662 -1.4810  0.8088 -0.3132
15162TIP3    H266978   4.642   5.720  11.521  0.3912 -1.1564 -1.1332
15163TIP3   OH266979   6.121   3.582   3.500  0.0219 -0.2311  0.5207
15163TIP3    H166980   6.146   3.568   3.409  2.5851 -1.8834  1.3626
15163TIP3    H266981   6.204   3.578   3.548 -1.2715  0.3459  2.9639
15164TIP3   OH266982   1.074   5.231  14.961 -0.1153  0.0030 -0.4110
15164TIP3    H166983   1.039   5.263  14.878 -0.0083  0.0637 -0.4340
15164TIP3    H266984   1.123   5.305  14.996  0.3855 -0.2242 -0.6085
15165TIP3   OH266985   4.956   6.082  13.274  0.5994 -0.3449  0.0609
15165TIP3    H166986   4.887   6.037  13.225  0.9497  0.8650 -1.6332
15165TIP3    H266987   5.034   6.073  13.219  0.7228  2.1243 -0.2740
15166TIP3   OH266988   6.146   6.746  15.293  0.4734 -0.4857 -0.4159
15166TIP3    H166989   6.053   6.737  15.314  1.0146  0.6827  3.1880
15166TIP3    H266990   6.176   6.656  15.278 -0.7026 -1.2462  1.3892
15167TIP3   OH266991   3.286   3.414   1.306 -0.0526 -0.3054  0.8702
15167TIP3    H166992   3.241   3.498   1.300 -1.4591 -0.8806  2.3976
15167TIP3    H266993   3.221   3.350   1.277  0.7103 -0.9491  0.5365
15168TIP3   OH266994   4.748   2.125   3.549  0.5162  0.1081  0.0153
15168TIP3    H166995   4.761   2.133   3.454  0.2973 -1.4451 -0.1660
15168TIP3    H266996   4.729   2.032   3.563  0.2255  0.3771  1.5516
15169TIP3   OH266997   4.235   2.599   5.305  0.3074 -0.3282  0.1719
15169TIP3    H166998   4.198   2.610   5.393 -0.6155 -0.9549 -0.1173
15169TIP3    H266999   4.323   2.635   5.311  1.3077 -2.7949  2.1092
15170TIP3   OH267000   4.787   4.285   3.351 -0.3070 -0.4619 -0.7361
15170TIP3    H167001   4.713   4.224   3.358  0.2772 -1.0472  0.6445
15170TIP3    H267002   4.836   4.273   3.432  0.2538  1.3088 -0.7769
15171TIP3   OH267003   2.714   2.941  16.414 -0.5565  0.1756 -0.0343
15171TIP3    H167004   2.629   2.963  16.376 -0.0861  0.1859 -1.1174
15171TIP3    H267005   2.710   2.974  16.504 -0.5439  3.0711 -1.0129
15172TIP3   OH267006   1.718   1.425   0.519 -0.1640 -0.1406  0.1545
15172TIP3    H167007   1.687   1.400   0.432  0.4187  0.0278 -0.1050
15172TIP3    H267008   1.638   1.437   0.570 -0.5272  0.2537 -0.4951
15173TIP3   OH267009   5.585   1.964   6.618 -0.1756  0.5358 -0.0170
15173TIP3    H167010   5.624   1.986   6.533  0.2422 -0.1968 -0.0256
15173TIP3    H267011   5.644   2.003   6.682 -0.1168  0.5014 -0.0502
15174TIP3   OH267012   5.399   0.324   5.614 -0.0812 -0.4599  0.1442
15174TIP3    H167013   5.385   0.243   5.564  0.1749 -1.3185  1.4104
15174TIP3    H267014   5.320   0.333   5.668 -0.3753  0.4769 -0.4159
15175TIP3   OH267015   6.741   6.812   1.311  0.2477  0.6628  0.7825
15175TIP3    H167016   6.740   6.781   1.401 -0.3695 -0.6327  0.3464
15175TIP3    H267017   6.721   6.735   1.258 -0.8871  1.6945 -0.3792
15176TIP3   OH267018   1.040   2.216  12.172  0.2987  0.7615  0.4569
15176TIP3    H167019   1.047   2.198  12.078  0.2996  0.1602  0.5660
15176TIP3    H267020   1.079   2.302  12.183  1.0096  0.5006  0.0167
15177TIP3   OH267021   2.571   3.351   6.386 -0.1693  0.2135 -0.0154
15177TIP3    H167022   2.492   3.307   6.419  0.2492 -1.1372 -0.7215
15177TIP3    H267023   2.641   3.319   6.442 -0.0697  1.2074  0.4426
15178TIP3   OH267024   1.615   4.608  13.297  0.4945 -0.3520  0.2586
15178TIP3    H167025   1.686   4.551  13.325  3.0637  2.7843  0.7786
15178TIP3    H267026   1.608   4.594  13.202  1.5607 -1.0152  0.2660
15179TIP3   OH267027   2.739   1.680  15.012 -0.1129  0.2412  0.1566
15179TIP3    H167028   2.748   1.774  14.996 -0.4774  0.1774 -0.4784
15179TIP3    H267029   2.663   1.672  15.070 -0.2976  0.3199 -0.0719
15180TIP3   OH267030   3.102   0.828   2.756 -0.0657 -0.1576 -0.1523
15180TIP3    H167031   3.179   0.805   2.809  0.5323  2.4679  0.2609
15180TIP3    H267032   3.124   0.798   2.668  0.3022 -1.7274  0.4331
15181TIP3   OH267033   4.193   6.408   1.961  0.0262  0.0186 -0.8014
15181TIP3    H167034   4.195   6.451   1.875 -0.5371  0.9890 -0.3555
15181TIP3    H267035   4.281   6.422   1.997 -0.3925  1.6145 -0.3095
15182TIP3   OH267036   5.278   6.389  14.818 -0.1164 -0.3508 -0.1554
15182TIP3    H167037   5.248   6.402  14.728 -0.4457 -1.4614 -0.2249
15182TIP3    H267038   5.279   6.477  14.856 -0.5857  0.0570 -1.0525
15183TIP3   OH267039   3.942   4.863   5.374  0.4771 -0.8362 -0.4941
15183TIP3    H167040   3.980   4.790   5.423 -0.6529 -0.8601  0.3652
15183TIP3    H267041   3.890   4.911   5.438  0.2854  0.0770 -1.3111
15184TIP3   OH267042   0.878   1.048  14.464  0.6036  0.2714  0.3015
15184TIP3    H167043   0.922   0.964  14.475  1.2495  0.4851 -0.5723
15184TIP3    H267044   0.942   1.113  14.495  0.4485  0.5010  0.1458
15185TIP3   OH267045   1.079   4.486   5.541  0.3913 -0.0773  0.1264
15185TIP3    H167046   1.134   4.453   5.612  0.4747 -0.8197 -0.2796
15185TIP3    H267047   1.138   4.495   5.466  0.2287  0.3583  0.0464
15186TIP3   OH267048   0.043   2.056  13.805  0.0321 -0.4881 -0.7218
15186TIP3    H167049   0.125   2.007  13.795 -0.3448 -1.6410  1.2520
15186TIP3    H267050  -0.018   1.992  13.841 -0.8655  1.1104  0.7319
15187TIP3   OH267051   3.152   1.055   6.091  0.1959 -0.4853 -0.2161
15187TIP3    H167052   3.149   1.137   6.141  0.6950 -0.9236  0.5520
15187TIP3    H267053   3.118   0.989   6.152  1.0505 -1.0702 -0.3614
15188TIP3   OH267054   5.306   0.228   4.347 -0.0202  0.2377  0.1110
15188TIP3    H167055   5.269   0.198   4.264  0.1847 -0.3356  0.2259
15188TIP3    H267056   5.265   0.173   4.413 -0.8960  1.3057  0.4992
15189TIP3   OH267057   2.657   5.983   5.633  0.1204 -0.3178 -0.2221
15189TIP3    H167058   2.651   6.023   5.719 -0.5753 -1.2561  0.1888
15189TIP3    H267059   2.630   6.052   5.572 -1.7139 -0.3202  0.5247
15190TIP3   OH267060   6.258   6.080   3.459  0.2567 -0.2753 -0.1286
15190TIP3    H167061   6.266   6.171   3.488 -0.2108 -0.3211  0.1474
15190TIP3    H267062   6.187   6.082   3.395  0.2711 -0.4451 -0.1494
15191TIP3   OH267063   5.069   4.296  15.884  0.6092  0.1187 -0.7848
15191TIP3    H167064   4.991   4.338  15.919  1.3818  1.2936 -0.3770
15191TIP3    H267065   5.120   4.369  15.847  1.0320 -0.7570 -1.9833
15192TIP3   OH267066   0.899   2.567  11.720  0.1115  0.3671  0.2349
15192TIP3    H167067   0.967   2.550  11.655 -0.3646 -1.9640  0.2505
15192TIP3    H267068   0.933   2.531  11.801  0.0066  1.7842  0.9443
15193TIP3   OH267069   4.169   2.941  11.966 -0.3567 -0.0196 -0.0275
15193TIP3    H167070   4.144   2.985  12.047 -0.0303  0.1643 -0.0254
15193TIP3    H267071   4.264   2.941  11.967 -0.3226  1.1756 -1.0401
15194TIP3   OH267072   3.179   6.602   0.873 -0.4700 -0.0102  0.5602
15194TIP3    H167073   3.099   6.573   0.828 -0.0178 -1.7325  0.7954
15194TIP3    H267074   3.250   6.566   0.820  0.0995 -0.5398  1.6598
15195TIP3   OH267075   5.628   4.272  11.213 -0.0897  0.1628 -0.4178
15195TIP3    H167076   5.645   4.224  11.132 -0.4215  0.5198 -0.6971
15195TIP3    H267077   5.534   4.286  11.214 -0.0246  0.5981 -0.2140
15196TIP3   OH267078   0.767   1.931   3.634 -0.5169 -0.3105  0.4785
15196TIP3    H167079   0.702   1.961   3.697 -0.4490  0.1823  0.3154
15196TIP3    H267080   0.851   1.957   3.672 -0.5336  1.2339 -0.4446
15197TIP3   OH267081   2.649   3.470   3.920 -0.0508  0.0380  0.4785
15197TIP3    H167082   2.679   3.545   3.870  0.6632 -0.3002  0.3927
15197TIP3    H267083   2.651   3.499   4.011  2.0066 -0.4335  0.6355
15198TIP3   OH267084   5.496   0.112   3.053  0.4198  0.0191  0.1228
15198TIP3    H167085   5.414   0.092   3.009  1.2594 -4.5592  0.1437
15198TIP3    H267086   5.561   0.111   2.982  0.9505 -0.9023  0.5995
15199TIP3   OH267087   3.374   1.935  15.755 -0.3591  0.3307 -0.2161
15199TIP3    H167088   3.386   1.941  15.849  0.7009  1.3025 -0.3930
15199TIP3    H267089   3.282   1.958  15.740 -0.8445 -0.9326  0.6484
15200TIP3   OH267090   2.759   0.219   1.411 -0.6432 -0.1794 -0.1787
15200TIP3    H167091   2.753   0.123   1.416  0.4860 -0.3416 -1.2780
15200TIP3    H267092   2.828   0.242   1.473 -1.3443  0.0003  0.5472
15201TIP3   OH267093   1.201   2.491   1.449  0.0797  0.6940 -0.6221
15201TIP3    H167094   1.239   2.527   1.369  1.7594 -0.9191 -0.6081
15201TIP3    H267095   1.246   2.538   1.519 -0.8584  1.5773 -0.5841
15202TIP3   OH267096   0.358   2.773   3.155  0.4883  0.1331 -0.1853
15202TIP3    H167097   0.397   2.690   3.128 -2.5056 -2.1969  1.9711
15202TIP3    H267098   0.278   2.748   3.202 -0.5819  4.2708  0.5900
15203TIP3   OH267099   2.573   0.257  12.720  0.0573 -0.5048  0.2432
15203TIP3    H167100   2.603   0.178  12.766 -1.4132 -0.6067  1.0827
15203TIP3    H267101   2.502   0.291  12.774  1.8198  2.4575  0.8879
15204TIP3   OH267102   1.247   1.835   3.789  0.1304 -0.3690 -0.0847
15204TIP3    H167103   1.252   1.751   3.833 -0.5593 -1.2992 -1.6744
15204TIP3    H267104   1.265   1.900   3.857  0.3082 -1.7739  1.2491
15205TIP3   OH267105   1.946   6.820  12.508  0.1301  0.5652 -0.4687
15205TIP3    H167106   1.902   6.834  12.424  1.8826  0.2964 -1.4704
15205TIP3    H267107   2.021   6.880  12.506  1.7664 -1.3793 -0.3232
15206TIP3   OH267108   3.039   4.412  16.520  0.2028  0.6510 -0.1492
15206TIP3    H167109   2.979   4.415  16.595 -0.2223 -0.4695 -0.4187
15206TIP3    H267110   3.117   4.367  16.553  0.1634  0.4851 -0.2799
15207TIP3   OH267111   0.540   5.307   1.666 -0.2164 -0.3897  0.1726
15207TIP3    H167112   0.579   5.375   1.721 -1.0892  0.9742 -0.8091
15207TIP3    H267113   0.506   5.242   1.728 -0.0765  0.4763  1.1901
15208TIP3   OH267114   2.403   3.911   2.863 -0.0592 -0.3470 -0.3879
15208TIP3    H167115   2.311   3.925   2.886  0.2351  0.1716  0.5503
15208TIP3    H267116   2.447   3.991   2.891  0.9186 -1.1964  0.6189
15209TIP3   OH267117   0.887   0.350  13.048 -0.1727  0.4369 -0.4291
15209TIP3    H167118   0.847   0.437  13.059 -1.7433 -0.2214 -0.6652
15209TIP3    H267119   0.931   0.355  12.964 -1.2722  0.6517 -1.0110
15210TIP3   OH267120   3.601   2.728   6.239  0.2764  0.2176  0.3823
15210TIP3    H167121   3.510   2.705   6.221  0.2885  2.2249 -3.0084
15210TIP3    H267122   3.598   2.769   6.326 -2.1304  0.7037  0.1516
15211TIP3   OH267123   6.286   4.408   6.163 -0.2209  0.0626 -0.5251
15211TIP3    H167124   6.266   4.463   6.239 -2.6275 -0.8574 -0.4125
15211TIP3    H267125   6.328   4.330   6.199  1.7844  1.0719 -0.5388
15212TIP3   OH267126   5.338   3.083  16.128  0.4419 -0.0839 -0.0969
15212TIP3    H167127   5.269   3.135  16.169 -0.0802 -0.7762 -0.0695
15212TIP3    H267128   5.358   3.016  16.193 -0.2193 -1.0468 -0.8605
15213TIP3   OH267129   3.331   6.329   1.466  0.2454  0.2735 -0.5123
15213TIP3    H167130   3.340   6.420   1.495  2.0280 -0.5929  2.0024
15213TIP3    H267131   3.411   6.287   1.497 -1.8206 -2.8047  1.0534
15214TIP3   OH267132   2.352   1.023  15.752  0.3557  0.4546 -0.1591
15214TIP3    H167133   2.363   0.965  15.827  1.4005  0.0320 -0.6189
15214TIP3    H267134   2.402   1.101  15.774 -1.3550  1.3799  0.6203
15215TIP3   OH267135   4.633   0.873  16.550  0.2912  0.2249  0.3357
15215TIP3    H167136   4.681   0.798  16.585 -0.0141 -0.3436 -0.4460
15215TIP3    H267137   4.593   0.914  16.627 -0.2995 -0.9601  0.6806
15216TIP3   OH267138   2.743   6.256  11.528 -0.1024 -0.3171  0.6364
15216TIP3    H167139   2.680   6.235  11.597 -0.3011  3.5528  1.8567
15216TIP3    H267140   2.727   6.348  11.508  2.4360 -0.3108 -2.0075
15217TIP3   OH267141   5.086   1.122  14.776 -0.1522  0.2692 -0.2720
15217TIP3    H167142   5.118   1.137  14.865 -0.1501 -1.2201  0.0130
15217TIP3    H267143   5.005   1.173  14.771  0.5672  1.4903  0.0905
15218TIP3   OH267144   1.643   4.581   4.942 -0.0628  0.1132  0.0258
15218TIP3    H167145   1.623   4.588   5.035 -1.7539 -0.1044 -0.2791
15218TIP3    H267146   1.567   4.620   4.898  0.1744 -0.7970 -1.2619
15219TIP3   OH267147   2.809   1.334   2.511 -0.1047  0.2816 -0.1364
15219TIP3    H167148   2.725   1.360   2.473 -0.1989  1.2706  0.7089
15219TIP3    H267149   2.869   1.334   2.437 -0.9265 -0.9362 -0.8541
15220TIP3   OH267150   4.300   5.655   5.435  0.0375  0.5255  0.7134
15220TIP3    H167151   4.230   5.666   5.371 -0.1952 -0.6100  0.7466
15220TIP3    H267152   4.321   5.744   5.463 -1.0204  0.9227  0.3066
15221TIP3   OH267153   2.806   4.719  11.201 -0.3754 -0.6064 -0.3972
15221TIP3    H167154   2.794   4.810  11.174  1.7476  0.2806  1.3615
15221TIP3    H267155   2.717   4.688  11.219 -1.1441  1.1125 -0.9938
15222TIP3   OH267156   2.355   0.731  15.440  0.0327  0.0396  0.2099
15222TIP3    H167157   2.423   0.784  15.398  0.7861 -0.2403  1.0398
15222TIP3    H267158   2.278   0.742  15.385  0.8784 -0.0053 -1.0233
15223TIP3   OH267159   0.827   2.122  16.864  0.2878 -0.2183  0.2994
15223TIP3    H167160   0.746   2.165  16.893  1.2524  1.2682  0.9120
15223TIP3    H267161   0.895   2.160  16.919  1.2784 -2.3554  0.6562
15224TIP3   OH267162   5.393   3.735  15.453  0.0420 -0.1377 -0.8170
15224TIP3    H167163   5.317   3.678  15.441 -0.6205  0.0653  1.8561
15224TIP3    H267164   5.467   3.682  15.423 -0.9338 -0.9649 -1.8877
15225TIP3   OH267165   4.920   0.984  11.980  0.1202  0.3995  0.3186
15225TIP3    H167166   4.937   0.892  12.000 -0.5740  0.1369 -0.2536
15225TIP3    H267167   4.827   0.996  12.001 -0.6387  0.1444 -2.5599
15226TIP3   OH267168   0.789   2.635  14.463 -0.4717  0.7812 -0.1390
15226TIP3    H167169   0.866   2.692  14.469 -0.6315  1.2433 -2.0823
15226TIP3    H267170   0.784   2.610  14.371 -0.8677 -1.7740  0.4998
15227TIP3   OH267171   3.452   1.110   3.237 -0.0050  0.3407  0.3861
15227TIP3    H167172   3.373   1.136   3.189 -0.4561  0.6115  1.2614
15227TIP3    H267173   3.420   1.074   3.319  0.8060  1.2397  1.1222
15228TIP3   OH267174   1.257   2.160  14.938  0.3740 -0.4048  0.5991
15228TIP3    H167175   1.219   2.075  14.956 -2.0627  0.3154 -0.7198
15228TIP3    H267176   1.220   2.218  15.004 -1.7926  0.5054 -1.2931
15229TIP3   OH267177   2.056   4.502  15.480  0.0822 -0.0489  0.8180
15229TIP3    H167178   2.062   4.503  15.575 -1.3852 -1.1168  0.9548
15229TIP3    H267179   1.966   4.529  15.461  0.1933 -0.3767 -0.2413
15230TIP3   OH267180   6.066   6.054   6.224 -0.2754 -0.1432 -0.0883
15230TIP3    H167181   5.996   5.990   6.236 -0.9619  0.5455 -0.2938
15230TIP3    H267182   6.138   6.004   6.186 -0.3776 -1.0197  0.8220
15231TIP3   OH267183   1.632   3.328  15.830 -0.5385  0.2723 -0.4106
15231TIP3    H167184   1.653   3.404  15.884 -0.3322  0.1701 -0.3474
15231TIP3    H267185   1.596   3.365  15.749  0.9123  0.5025 -0.9828
15232TIP3   OH267186   3.464   1.740   5.846 -0.1176 -0.3329 -0.1404
15232TIP3    H167187   3.554   1.710   5.854  1.0461  2.5245 -1.2563
15232TIP3    H267188   3.434   1.751   5.937  1.1361 -0.0584  0.2579
15233TIP3   OH267189   0.319   0.939  15.254  0.8451  0.3547  0.6989
15233TIP3    H167190   0.295   0.956  15.163  1.0787  0.9376  0.7468
15233TIP3    H267191   0.371   1.015  15.281  2.5739 -0.7573  0.6677
15234TIP3   OH267192   2.967   0.554  16.258 -0.5525  0.1246  0.1966
15234TIP3    H167193   2.987   0.502  16.180 -0.8559  3.0914 -2.0133
15234TIP3    H267194   3.047   0.549  16.311  0.7947  0.3057 -1.6960
15235TIP3   OH267195   3.233   3.533   0.291 -0.4147  0.4542 -0.0552
15235TIP3    H167196   3.296   3.477   0.245 -0.7399  1.9304 -2.4486
15235TIP3    H267197   3.261   3.530   0.383  2.6252  0.3913 -0.8882
15236TIP3   OH267198   2.381   4.354  11.624 -0.3272  0.0905 -0.0570
15236TIP3    H167199   2.411   4.444  11.619 -0.7131  0.2243  0.0047
15236TIP3    H267200   2.294   4.359  11.664 -0.4363 -0.2862 -0.2362
15237TIP3   OH267201   5.673   0.300  11.413 -0.6927  0.0629 -0.0125
15237TIP3    H167202   5.609   0.281  11.344 -1.4848  2.6897 -0.1131
15237TIP3    H267203   5.632   0.370  11.464  1.3562  0.5680  1.0141
15238TIP3   OH267204   1.009   1.318  15.608  0.1656  0.0257 -0.7305
15238TIP3    H167205   1.000   1.290  15.517 -0.7110  0.7735 -0.8821
15238TIP3    H267206   1.104   1.322  15.622  0.3178 -1.0845 -1.2882
15239TIP3   OH267207   2.326   2.388   1.188  0.4814 -0.4602 -0.2497
15239TIP3    H167208   2.402   2.330   1.192  1.3069  0.3331 -2.4725
15239TIP3    H267209   2.313   2.403   1.094 -1.5029  0.6323  0.1510
15240TIP3   OH267210   0.488   3.373  15.039  0.3271 -0.0126 -0.0049
15240TIP3    H167211   0.536   3.349  15.118  1.9166  0.5727 -0.7383
15240TIP3    H267212   0.517   3.310  14.973  0.6115  0.7533 -0.6285
15241TIP3   OH267213   3.541   6.206   1.604  0.4271 -0.1708  0.5329
15241TIP3    H167214   3.587   6.184   1.523  1.2024 -0.7268  1.1148
15241TIP3    H267215   3.610   6.220   1.669 -0.1183  1.9267  0.7199
15242TIP3   OH267216   3.327   4.015   2.702  0.7321  0.4271 -0.0822
15242TIP3    H167217   3.254   4.074   2.685 -0.1570 -0.9009 -1.0046
15242TIP3    H267218   3.393   4.071   2.743 -1.2613  1.3900  2.0365
15243TIP3   OH267219   3.299   6.267   4.203 -0.2361 -0.3585  0.1939
15243TIP3    H167220   3.224   6.326   4.213  1.0892  1.7551 -1.2791
15243TIP3    H267221   3.318   6.268   4.109  1.6795 -0.7333  0.5275
15244TIP3   OH267222   3.391   6.629  14.587  0.2720  0.3908 -0.0612
15244TIP3    H167223   3.306   6.660  14.554  0.6526  1.0426 -0.4695
15244TIP3    H267224   3.398   6.539  14.556 -0.3045  0.3108  0.0377
15245TIP3   OH267225   1.734   2.567  10.950 -0.0607 -0.0581  0.0280
15245TIP3    H167226   1.784   2.495  10.990  0.4403  0.0239 -0.4464
15245TIP3    H267227   1.672   2.523  10.892 -1.9143 -0.2891  2.0382
15246TIP3   OH267228   3.819   5.817   4.539  0.0835 -0.8755  0.1232
15246TIP3    H167229   3.890   5.844   4.480 -1.9795 -0.7953 -2.5617
15246TIP3    H267230   3.761   5.893   4.542 -0.8680 -1.6003  0.6022
15247TIP3   OH267231   0.689   3.636   3.354  0.0521 -0.7666 -0.2464
15247TIP3    H167232   0.644   3.666   3.434  0.8928  1.1827 -0.4629
15247TIP3    H267233   0.779   3.620   3.382  0.7077  1.2506 -1.0169
15248TIP3   OH267234   3.351   5.213  14.273 -0.1028  0.0612  0.1663
15248TIP3    H167235   3.273   5.246  14.229 -0.1692 -0.3333 -0.0244
15248TIP3    H267236   3.332   5.120  14.289  0.1070  0.0944  0.6167
15249TIP3   OH267237   5.710   0.236  11.987  0.4917  0.2121 -0.3491
15249TIP3    H167238   5.659   0.179  11.930 -0.8199 -0.2815  1.2393
15249TIP3    H267239   5.756   0.176  12.046  1.9580  0.7017 -0.9699
15250TIP3   OH267240   2.666   3.777  15.235  0.1332  0.0721  0.1066
15250TIP3    H167241   2.744   3.724  15.250 -1.1436 -1.6561  1.0685
15250TIP3    H267242   2.697   3.851  15.182  2.4881 -0.2632  0.8920
15251TIP3   OH267243   6.721   6.158   4.399 -0.0282  0.6742 -0.1794
15251TIP3    H167244   6.791   6.193   4.343  1.2567 -0.3994  0.6760
15251TIP3    H267245   6.662   6.232   4.413  1.2407  1.7849 -0.4866
15252TIP3   OH267246   3.278   3.313   3.898 -0.4629 -0.1915  0.3663
15252TIP3    H167247   3.220   3.311   3.821 -0.0424  0.7765  0.0040
15252TIP3    H267248   3.338   3.386   3.881 -1.3316  1.0712  2.3093
15253TIP3   OH267249   1.211   6.365  16.725 -0.1646 -0.0749 -0.4022
15253TIP3    H167250   1.192   6.395  16.636 -0.5873 -0.0645 -0.3151
15253TIP3    H267251   1.165   6.428  16.781 -2.9985 -2.0689 -0.2438
15254TIP3   OH267252   0.971   4.270   6.685 -0.5427 -0.2139 -0.0638
15254TIP3    H167253   0.934   4.199   6.736 -0.2105  0.3943  1.0553
15254TIP3    H267254   1.064   4.247   6.675 -1.0601 -1.5638 -2.5669
15255TIP3   OH267255   5.370   3.721  12.472  1.2074 -0.4544  0.2656
15255TIP3    H167256   5.451   3.772  12.466  0.3114  1.2816  1.7289
15255TIP3    H267257   5.307   3.782  12.510 -0.1940 -2.4323  1.2634
15256TIP3   OH267258   2.045   1.219   1.005  0.0728  0.2009  0.3020
15256TIP3    H167259   1.958   1.232   0.967  0.9973  0.4660 -1.8119
15256TIP3    H267260   2.056   1.124   1.009 -0.0193  0.1712 -0.1280
15257TIP3   OH267261   5.718   0.393  15.759  0.1534  0.4284 -0.2762
15257TIP3    H167262   5.643   0.335  15.744  0.7196 -0.5697  0.6433
15257TIP3    H267263   5.704   0.428  15.847 -1.2966  3.4608 -1.5350
15258TIP3   OH267264   6.524   6.243   1.275 -0.0253  0.0497 -0.5200
15258TIP3    H167265   6.550   6.299   1.202 -1.3257  0.1424 -0.9440
15258TIP3    H267266   6.604   6.197   1.301  0.4096 -0.1826 -2.1811
15259TIP3   OH267267   5.745   1.339  14.187  0.4515 -0.0045 -0.3576
15259TIP3    H167268   5.725   1.433  14.190  0.5727  0.1297 -2.1987
15259TIP3    H267269   5.708   1.310  14.104  0.5327 -1.5781  0.1311
15260TIP3   OH267270   1.551   3.592  16.745  0.5802 -0.1687 -0.3304
15260TIP3    H167271   1.626   3.534  16.732  1.6337  0.7653  1.2539
15260TIP3    H267272   1.548   3.644  16.665  0.0222 -1.9104 -1.4913
15261TIP3   OH267273   1.918   4.206   1.728  0.0527  0.2400  0.5338
15261TIP3    H167274   1.831   4.243   1.741 -0.9508 -1.0233 -1.9933
15261TIP3    H267275   1.921   4.182   1.636  2.7225 -0.7294  0.7759
15262TIP3   OH267276   4.536   4.716   6.216 -0.6024  0.4693  0.4489
15262TIP3    H167277   4.521   4.790   6.157  0.0299  0.7511  0.6368
15262TIP3    H267278   4.604   4.664   6.173  0.0345  0.8034  1.0352
15263TIP3   OH267279   3.695   2.089   2.259  0.1035  0.1276  0.3029
15263TIP3    H167280   3.655   2.041   2.331 -1.6651  0.6333 -0.2975
15263TIP3    H267281   3.775   2.041   2.240  0.3213 -0.3550  2.1987
15264TIP3   OH267282   5.957   0.634   2.693  0.0228  0.4830  0.1177
15264TIP3    H167283   6.028   0.599   2.639 -0.1263 -0.0381  0.2553
15264TIP3    H267284   5.913   0.699   2.637  0.2524  0.3939 -0.1652
15265TIP3   OH267285   4.612   1.183   1.789 -0.1070  0.2436 -0.1479
15265TIP3    H167286   4.599   1.263   1.737  0.1859  0.7650  0.5586
15265TIP3    H267287   4.594   1.112   1.728  0.9477  0.8205 -1.1699
15266TIP3   OH267288   5.340   3.741  14.266 -0.2520  0.1418 -0.0544
15266TIP3    H167289   5.393   3.813  14.300 -0.8774  0.1059  1.0513
15266TIP3    H267290   5.391   3.706  14.193  0.9122  0.5385  0.5428
15267TIP3   OH267291   1.953   3.553  13.196  0.4384 -0.7371  0.0069
15267TIP3    H167292   2.007   3.543  13.118  0.8631 -0.2767  0.2391
15267TIP3    H267293   1.863   3.540  13.164  0.6238 -0.7734 -0.5138
15268TIP3   OH267294   4.228   4.977  17.080  0.1435  0.5084  0.4479
15268TIP3    H167295   4.278   5.051  17.114  0.5729  1.4503 -2.0264
15268TIP3    H267296   4.160   5.017  17.026  0.9087 -0.8481 -1.6675
15269TIP3   OH267297   0.067   5.296  16.185 -0.0462 -0.0050  0.1528
15269TIP3    H167298   0.051   5.275  16.277  0.8435  0.4846  0.4352
15269TIP3    H267299   0.035   5.386  16.175 -1.6678 -0.6142 -0.4513
15270TIP3   OH267300   3.373   1.559  12.352  0.2880 -0.0863  0.0548
15270TIP3    H167301   3.435   1.540  12.281  1.8878 -1.1711  1.6444
15270TIP3    H267302   3.316   1.483  12.355 -1.3754  1.0018 -1.5424
15271TIP3   OH267303   5.775   3.631   1.854 -0.4428  1.0472 -0.5181
15271TIP3    H167304   5.841   3.576   1.895 -1.0334  1.2332  0.7182
15271TIP3    H267305   5.778   3.607   1.761  0.3512  0.0361 -0.2489
15272TIP3   OH267306   5.893   1.037   6.372 -0.1219 -0.3825  0.2820
15272TIP3    H167307   5.806   0.998   6.387 -0.1754 -0.2754  0.2514
15272TIP3    H267308   5.950   0.962   6.359 -0.6405 -0.4195 -2.1024
15273TIP3   OH267309   6.753   0.660  13.597  0.4147  0.0101  0.5272
15273TIP3    H167310   6.703   0.708  13.530  1.4914  0.8916  0.3182
15273TIP3    H267311   6.705   0.579  13.610  0.6049 -0.5720 -1.9461
15274TIP3   OH267312   1.783   1.723  11.499 -0.6241 -0.0156  0.2749
15274TIP3    H167313   1.833   1.805  11.499  0.5752 -0.6850 -1.4568
15274TIP3    H267314   1.691   1.751  11.493 -0.1696  1.2523 -2.4417
15275TIP3   OH267315   3.088   1.415  13.025 -0.4340 -0.0234 -0.4511
15275TIP3    H167316   3.034   1.336  13.020 -0.2886 -0.1833  0.3487
15275TIP3    H267317   3.064   1.455  13.109 -0.2414  0.5916 -0.6820
15276TIP3   OH267318   3.823   4.746   0.487  0.1571  0.3841  0.6390
15276TIP3    H167319   3.803   4.736   0.394 -1.6752  0.2006  1.0130
15276TIP3    H267320   3.906   4.699   0.499 -0.0246 -0.3452 -0.7231
15277TIP3   OH267321   1.580   0.975   2.532  0.2204 -0.1079  0.1387
15277TIP3    H167322   1.494   0.935   2.540 -1.3142  2.9257  0.1123
15277TIP3    H267323   1.586   1.001   2.440  1.3610 -0.6204  0.0449
15278TIP3   OH267324   2.129   3.214   2.830 -0.0230 -0.6145 -0.0512
15278TIP3    H167325   2.143   3.229   2.737  1.5376 -0.9543  0.1004
15278TIP3    H267326   2.173   3.288   2.873 -2.7969  0.9233  0.4186
15279TIP3   OH267327   3.657   6.026   0.334 -0.0174 -0.2482  0.2622
15279TIP3    H167328   3.602   5.960   0.376  2.9365 -1.8939  1.9282
15279TIP3    H267329   3.694   6.076   0.407  1.0987  0.4489 -0.7401
15280TIP3   OH267330   1.455   4.594  17.125  0.0991 -0.1041  0.5639
15280TIP3    H167331   1.373   4.638  17.102 -0.6058 -2.0259 -0.9557
15280TIP3    H267332   1.499   4.582  17.041  1.2713 -0.3545  1.2033
15281TIP3   OH267333   3.576   1.678   2.504 -0.3410  0.0699 -0.2489
15281TIP3    H167334   3.556   1.592   2.541  1.3100 -0.7813 -1.2150
15281TIP3    H267335   3.495   1.727   2.513 -1.4677 -1.7263 -0.0315
15282TIP3   OH267336   2.891   3.027  10.398 -0.4008 -0.0914  0.5327
15282TIP3    H167337   2.882   3.010  10.491 -0.0327 -1.0879  0.3980
15282TIP3    H267338   2.949   2.958  10.366 -2.0085 -0.9287 -0.7571
15283TIP3   OH267339   4.998   0.762   5.042 -0.1697 -0.5735  0.5707
15283TIP3    H167340   4.965   0.721   4.962  0.3852 -1.6134  0.8515
15283TIP3    H267341   4.967   0.852   5.038 -0.6372 -0.7716 -0.5304
15284TIP3   OH267342   5.409   1.016  11.526  0.3331  0.4938  0.1017
15284TIP3    H167343   5.475   0.948  11.516  1.3199  1.3076  0.8214
15284TIP3    H267344   5.413   1.039  11.619 -1.4165  0.1242  0.2969
15285TIP3   OH267345   4.732   2.726   1.625 -0.5039  0.8191  0.0835
15285TIP3    H167346   4.655   2.672   1.604  0.2183  0.2054 -1.1304
15285TIP3    H267347   4.794   2.665   1.664  0.0723  0.8854 -0.6942
15286TIP3   OH267348   2.814   1.915  11.686  0.3306 -0.4591  0.4144
15286TIP3    H167349   2.764   1.845  11.645 -1.3738  1.1047 -0.3066
15286TIP3    H267350   2.788   1.994  11.639  2.4355  0.6440  0.9791
15287TIP3   OH267351   4.299   5.446  16.284 -0.2186 -0.3588  0.1794
15287TIP3    H167352   4.273   5.380  16.348  0.5434 -0.2927  0.5707
15287TIP3    H267353   4.387   5.420  16.258 -0.5380 -0.4025 -0.8773
15288TIP3   OH267354   1.507   0.442  11.585 -0.6812  0.2871  0.0645
15288TIP3    H167355   1.434   0.449  11.646 -0.8489  2.9925 -0.3243
15288TIP3    H267356   1.585   0.441  11.641 -0.8812 -3.6235  0.5422
15289TIP3   OH267357   2.477   2.158   4.470  0.1268  0.1507  0.0936
15289TIP3    H167358   2.432   2.149   4.385  0.9828 -0.4000 -0.3143
15289TIP3    H267359   2.416   2.209   4.524 -0.3445  0.6922 -0.9190
15290TIP3   OH267360   3.555   4.811   2.487  0.0751 -0.3151  0.4357
15290TIP3    H167361   3.484   4.811   2.552  0.0806 -1.3887  0.4600
15290TIP3    H267362   3.618   4.875   2.520 -0.9395  0.7703  0.3375
15291TIP3   OH267363   2.545   6.403   2.069  0.8242  0.2824  0.1759
15291TIP3    H167364   2.631   6.445   2.057 -0.2071  1.8426 -2.6530
15291TIP3    H267365   2.559   6.312   2.042  1.6331  0.4728 -0.0974
15292TIP3   OH267366   0.830   6.791   2.768 -0.0412 -0.4659 -0.3587
15292TIP3    H167367   0.818   6.775   2.675 -0.5445  1.3800 -0.6445
15292TIP3    H267368   0.782   6.872   2.785 -1.9447 -1.9331  1.9645
15293TIP3   OH267369   4.649   3.705   3.625  0.3503 -0.5299  0.1777
15293TIP3    H167370   4.561   3.739   3.642 -0.0920 -1.8789  0.7973
15293TIP3    H267371   4.675   3.665   3.709  1.5897 -0.0812  0.0247
15294TIP3   OH267372   2.730   3.568   3.369  0.4393  0.2792  0.2119
15294TIP3    H167373   2.642   3.604   3.378 -0.4308 -0.8607 -2.4800
15294TIP3    H267374   2.782   3.640   3.333  1.3816  1.7125  3.9774
15295TIP3   OH267375   1.844   5.549   2.728  0.0082 -0.2967  0.0597
15295TIP3    H167376   1.858   5.459   2.756 -0.0026 -0.1654  0.4827
15295TIP3    H267377   1.916   5.598   2.765  0.2759 -0.2047 -0.5630
15296TIP3   OH267378   4.678   1.704  11.067 -0.1215 -0.2826 -0.2377
15296TIP3    H167379   4.738   1.647  11.019  1.2126  0.7640  0.1336
15296TIP3    H267380   4.596   1.699  11.018  0.9038 -0.0155 -2.0905
15297TIP3   OH267381   1.702   4.901  14.739  0.3002  0.1903 -0.6516
15297TIP3    H167382   1.640   4.877  14.808  0.4260  0.7116 -0.3536
15297TIP3    H267383   1.740   4.818  14.710  1.0589  0.0563  0.6697
15298TIP3   OH267384   5.897   3.751   3.445 -0.1778  0.1169 -0.6161
15298TIP3    H167385   5.834   3.690   3.406 -0.9854 -0.0549  0.9012
15298TIP3    H267386   5.970   3.695   3.472 -0.6758 -0.1181  0.2744
15299TIP3   OH267387   1.359   2.336  12.703 -0.1625  0.1726 -0.2045
15299TIP3    H167388   1.331   2.368  12.617 -0.8537 -0.3300 -0.1780
15299TIP3    H267389   1.411   2.258  12.684  0.8901  0.8651 -0.2303
15300TIP3   OH267390   0.070   0.996  11.880 -0.9382 -0.2311 -0.4889
15300TIP3    H167391  -0.003   0.944  11.847 -0.1595 -1.6431 -0.1055
15300TIP3    H267392   0.030   1.059  11.940 -2.0943  0.7719 -2.2529
15301TIP3   OH267393   4.049   1.715   1.371  0.2558  0.8339 -0.1737
15301TIP3    H167394   4.072   1.664   1.449  2.3969  2.3218  0.2868
15301TIP3    H267395   3.993   1.785   1.404 -1.5666 -0.3583 -0.5854
15302TIP3   OH267396   5.577   0.362   5.394  0.6667  0.2144  0.3663
15302TIP3    H167397   5.589   0.295   5.462 -0.3059  1.1599  1.5342
15302TIP3    H267398   5.499   0.410   5.423  1.0515  1.5174 -0.7101
15303TIP3   OH267399   1.872   0.739   5.597  0.1717  1.2505  0.2621
15303TIP3    H167400   1.776   0.746   5.599  0.0243 -0.5208  0.6584
15303TIP3    H267401   1.902   0.797   5.667 -0.8202 -0.4320  2.2042
15304TIP3   OH267402   5.857   2.429   2.251 -0.3953 -0.4151  0.3189
15304TIP3    H167403   5.941   2.450   2.211 -1.0693 -0.8576 -1.4120
15304TIP3    H267404   5.815   2.514   2.265 -0.1398 -0.2466  0.0746
15305TIP3   OH267405   2.444   1.797   4.553 -0.5715 -0.4362  0.5320
15305TIP3    H167406   2.390   1.874   4.538  0.3540  0.2974  0.8159
15305TIP3    H267407   2.452   1.755   4.468  0.4013  0.8117 -0.0265
15306TIP3   OH267408   2.718   1.497   1.514 -0.3435 -0.3356 -0.0615
15306TIP3    H167409   2.723   1.507   1.419  0.5686  1.0418  0.0948
15306TIP3    H267410   2.624   1.496   1.533 -0.5338 -0.0617 -0.9250
15307TIP3   OH267411   4.885   6.434  10.967  0.1217 -0.2252  0.0697
15307TIP3    H167412   4.800   6.394  10.982  0.2517  0.3335  2.8162
15307TIP3    H267413   4.913   6.401  10.881 -2.2514 -1.4289 -0.3089
15308TIP3   OH267414   0.205   5.497   4.761 -0.0105 -0.5805  0.3229
15308TIP3    H167415   0.169   5.445   4.688 -2.1935  0.1992  0.7623
15308TIP3    H267416   0.137   5.493   4.828  2.1340 -1.6247  2.5525
15309TIP3   OH267417   6.429   5.335  13.305  0.2641  0.1477 -0.5381
15309TIP3    H167418   6.371   5.295  13.239 -1.0347  2.5373 -0.9944
15309TIP3    H267419   6.370   5.356  13.378  1.5766 -1.9052  1.2120
15310TIP3   OH267420   3.159   1.404   0.829 -0.4851  0.1544 -0.0437
15310TIP3    H167421   3.093   1.390   0.897 -0.3697  0.9753  0.2535
15310TIP3    H267422   3.221   1.332   0.839 -2.5045 -1.9589 -1.7936
15311TIP3   OH267423   3.343   4.176  13.666 -0.3594  0.0302 -0.1014
15311TIP3    H167424   3.323   4.179  13.760  0.8088 -0.2441  0.1698
15311TIP3    H267425   3.434   4.147  13.662 -0.1065  0.9169 -1.2968
15312TIP3   OH267426   4.499   5.239   4.337 -0.2700 -0.9311  0.6356
15312TIP3    H167427   4.454   5.318   4.366 -0.0598 -0.3212 -0.5989
15312TIP3    H267428   4.534   5.200   4.417 -0.7782 -0.0241  1.3189
15313TIP3   OH267429   3.302   4.568  10.258  0.0719  0.0173  0.0415
15313TIP3    H167430   3.266   4.527  10.336  0.9944 -0.0098  0.4671
15313TIP3    H267431   3.391   4.534  10.251  0.9050  1.9325  0.4495
15314TIP3   OH267432   1.584   2.297   4.989  0.1520  0.0830  0.2865
15314TIP3    H167433   1.519   2.358   5.023 -0.2931  0.7426 -1.5899
15314TIP3    H267434   1.548   2.269   4.905  2.4002  0.7550 -1.0038
15315TIP3   OH267435   0.397   6.215   4.369  0.8138  0.1334 -0.6543
15315TIP3    H167436   0.368   6.167   4.446  0.4970 -0.4701 -1.1353
15315TIP3    H267437   0.364   6.304   4.382 -0.0497 -0.1933 -0.5197
15316TIP3   OH267438   4.871   5.725   4.426 -0.3281 -0.6545 -0.0649
15316TIP3    H167439   4.782   5.759   4.435 -0.3793 -1.2892  2.4896
15316TIP3    H267440   4.926   5.788   4.473  0.7080 -0.0348 -1.9707
15317TIP3   OH267441   0.468   2.465  12.012  0.0050 -0.6818  0.3394
15317TIP3    H167442   0.489   2.372  12.005 -0.9644 -1.1557  2.6292
15317TIP3    H267443   0.523   2.496  12.084  0.8821  0.7327 -0.8994
15318TIP3   OH267444   0.553   5.896  12.576 -0.4554  0.1800  0.1116
15318TIP3    H167445   0.483   5.950  12.614  0.3677  1.0113  0.4688
15318TIP3    H267446   0.545   5.909  12.482  0.0397  1.3402  0.2112
15319TIP3   OH267447   5.570   0.545  11.518 -0.0832 -0.2005  0.2152
15319TIP3    H167448   5.542   0.595  11.595  0.9409  0.2065  0.3501
15319TIP3    H267449   5.522   0.584  11.445 -1.4019 -0.8840  0.6900
15320TIP3   OH267450   6.247   5.463  15.306 -0.5597  0.4790 -0.2091
15320TIP3    H167451   6.229   5.373  15.333 -2.2643 -0.2554 -3.3070
15320TIP3    H267452   6.342   5.471  15.313 -0.2893 -1.7735 -0.3518
15321TIP3   OH267453   6.165   6.057   3.125 -0.0577  0.3442  0.0228
15321TIP3    H167454   6.137   6.109   3.200 -1.1948 -1.2747  0.7924
15321TIP3    H267455   6.165   6.118   3.051 -0.7333  1.5500  0.9933
15322TIP3   OH267456   0.649   2.681  13.975  0.0933 -0.3506  0.3562
15322TIP3    H167457   0.734   2.643  13.996  0.3127  0.9493  2.0870
15322TIP3    H267458   0.660   2.720  13.889  0.9561 -1.0331  0.1494
15323TIP3   OH267459   6.640   1.451  12.664 -0.2080  0.6706 -0.3514
15323TIP3    H167460   6.735   1.459  12.656  0.0119 -2.4447 -2.4499
15323TIP3    H267461   6.607   1.538  12.641  2.0535  1.2059 -1.9007
15324TIP3   OH267462   1.287   6.024  15.202 -0.3357 -0.3738 -0.6222
15324TIP3    H167463   1.206   5.976  15.218  0.4144 -2.5875 -2.7777
15324TIP3    H267464   1.356   5.963  15.225  0.7550  1.0209 -0.0360
15325TIP3   OH267465   2.371   6.057  13.074  0.7513 -0.5995  0.0463
15325TIP3    H167466   2.289   6.073  13.121  0.4866  1.0029 -0.8867
15325TIP3    H267467   2.408   5.980  13.117 -0.9752 -1.0530  0.8254
15326TIP3   OH267468   0.442   3.026  12.433  0.2648  0.0640  0.1580
15326TIP3    H167469   0.473   2.955  12.489  0.1553 -0.0526  0.0685
15326TIP3    H267470   0.409   3.092  12.495 -0.3607 -0.2976  0.2111
15327TIP3   OH267471   4.132   1.641  13.857  0.4585  0.5791  0.2982
15327TIP3    H167472   4.189   1.578  13.902 -0.4095 -0.1720  0.3687
15327TIP3    H267473   4.193   1.704  13.818  1.2656  1.1801  2.3681
15328TIP3   OH267474   1.742   0.667  12.738 -0.2511 -0.1449  0.4358
15328TIP3    H167475   1.832   0.699  12.748  1.7315 -3.2385 -3.9688
15328TIP3    H267476   1.701   0.729  12.679  0.3240 -0.6369 -0.5038
15329TIP3   OH267477   2.801   0.316   1.167 -0.8206 -0.4013 -0.3497
15329TIP3    H167478   2.895   0.330   1.165 -0.7976 -0.6034 -1.8019
15329TIP3    H267479   2.784   0.276   1.252  0.3689 -0.1398  0.0187
15330TIP3   OH267480   6.275   5.768  16.225 -0.5089  0.1286 -0.0011
15330TIP3    H167481   6.324   5.849  16.208  1.1278 -1.1979 -2.2050
15330TIP3    H267482   6.317   5.731  16.303  0.4287  0.1800 -0.4697
15331TIP3   OH267483   1.244   1.805   1.567  0.2255 -0.0771  0.0618
15331TIP3    H167484   1.324   1.831   1.613  0.6305 -2.3500  0.7645
15331TIP3    H267485   1.201   1.744   1.626  0.0456 -2.0353 -1.9614
15332TIP3   OH267486   0.314   3.932  15.449 -1.0883  0.1774 -0.1002
15332TIP3    H167487   0.343   3.858  15.503 -1.8020 -0.8302 -1.0399
15332TIP3    H267488   0.309   4.006  15.509 -0.3825 -0.5464  0.8801
15333TIP3   OH267489   2.779   0.597  12.967  0.1680 -0.3964  0.4840
15333TIP3    H167490   2.745   0.678  12.930  0.7863 -0.6678 -0.7286
15333TIP3    H267491   2.702   0.543  12.983 -0.0864 -0.6255 -1.3114
15334TIP3   OH267492   5.019   5.014   6.020 -0.2891  0.2204  0.1587
15334TIP3    H167493   5.000   5.091   6.075 -0.5539  0.5977 -0.4475
15334TIP3    H267494   4.957   4.947   6.051 -0.4007  0.4123  0.3572
15335TIP3   OH267495   3.599   5.734   1.979  0.5338 -0.2060  0.0085
15335TIP3    H167496   3.587   5.808   1.921  0.4594  0.5161  0.9144
15335TIP3    H267497   3.527   5.674   1.958  1.0595 -0.4073 -1.2773
15336TIP3   OH267498   5.227   4.178  11.161 -0.2175  0.1623  0.4990
15336TIP3    H167499   5.133   4.174  11.143 -0.6857  3.6209  1.3252
15336TIP3    H267500   5.265   4.206  11.078 -0.1446  0.2844  0.5736
15337TIP3   OH267501   0.917   5.031   4.836  0.3505  0.0756  0.6773
15337TIP3    H167502   1.012   5.024   4.824  0.2043 -1.1672  0.0005
15337TIP3    H267503   0.883   5.038   4.747 -0.2356 -0.4333  0.8545
15338TIP3   OH267504   4.303   2.576  13.125  0.1631  0.5349  0.0704
15338TIP3    H167505   4.353   2.509  13.171 -1.7267 -0.1944  1.2202
15338TIP3    H267506   4.292   2.646  13.189 -0.6007  0.4996 -0.0098
15339TIP3   OH267507   0.355   2.218   2.134 -0.3176 -0.0159 -0.4011
15339TIP3    H167508   0.294   2.191   2.066 -0.7048 -1.2413  0.3987
15339TIP3    H267509   0.299   2.246   2.206 -0.0623 -2.4340  0.8628
15340TIP3   OH267510   4.948   0.147  13.669 -0.4812  0.2641 -0.5163
15340TIP3    H167511   4.864   0.179  13.702  0.5016  1.4435  1.0248
15340TIP3    H267512   5.005   0.225  13.669  1.6720 -1.1098  2.2261
15341TIP3   OH267513   3.144   2.837  14.388 -0.3727  0.2662  0.3729
15341TIP3    H167514   3.130   2.771  14.456 -2.2782  1.1771  0.9264
15341TIP3    H267515   3.185   2.910  14.433 -1.4618  0.7952  0.5515
15342TIP3   OH267516   3.054   4.672  16.466 -0.1212 -0.3289  0.6191
15342TIP3    H167517   3.061   4.581  16.493 -0.1644 -0.5731 -0.1597
15342TIP3    H267518   3.137   4.712  16.493 -0.0743 -0.6129  0.9002
15343TIP3   OH267519   3.934   3.156   4.166  0.1245 -0.1284  0.1678
15343TIP3    H167520   3.981   3.100   4.103 -0.1672  2.0693 -2.1775
15343TIP3    H267521   3.998   3.175   4.234  0.9397 -1.3747 -0.2090
15344TIP3   OH267522   0.456   2.128  14.038 -0.0666 -0.2189 -0.0744
15344TIP3    H167523   0.365   2.148  14.057 -0.0655 -0.0666 -0.2228
15344TIP3    H267524   0.498   2.124  14.124 -0.3773 -1.1169  0.0459
15345TIP3   OH267525   6.262   4.975  11.883  0.8435  0.1228 -0.0775
15345TIP3    H167526   6.272   4.925  11.964  0.5129  0.5556  0.2346
15345TIP3    H267527   6.256   4.909  11.815  1.7538 -0.2402  0.1723
15346TIP3   OH267528   0.407   0.932   1.279  0.2647  0.2024  0.0003
15346TIP3    H167529   0.355   0.867   1.232  0.1667  1.3960 -1.6492
15346TIP3    H267530   0.497   0.911   1.257  0.1958  1.0574 -1.1957
15347TIP3   OH267531   3.172   6.227   0.455 -0.1535 -0.0320  0.2159
15347TIP3    H167532   3.259   6.239   0.495 -0.2450  0.5693  0.2394
15347TIP3    H267533   3.185   6.160   0.388  0.3971  0.2681  0.0176
15348TIP3   OH267534   4.310   5.188   4.935  0.0587  0.2805  0.2410
15348TIP3    H167535   4.335   5.113   4.989  1.1167 -0.5262 -1.2883
15348TIP3    H267536   4.360   5.261   4.970 -0.4658  0.1418  1.3165
15349TIP3   OH267537   4.769   0.641  12.189 -0.0108 -0.2501  0.3440
15349TIP3    H167538   4.776   0.712  12.253  0.2039  0.7822 -0.7983
15349TIP3    H267539   4.708   0.579  12.229  0.9530 -0.1797  2.0468
15350TIP3   OH267540   0.931   4.852   0.642  0.4841  0.2342  0.1807
15350TIP3    H167541   0.981   4.814   0.714  1.9000 -0.9980 -1.3745
15350TIP3    H267542   0.885   4.778   0.603  0.1933  0.7797 -0.5293
15351TIP3   OH267543   4.957   2.926  15.231  0.2805  0.0645 -0.0592
15351TIP3    H167544   4.911   3.006  15.253 -1.9042 -1.0922 -0.1840
15351TIP3    H267545   4.922   2.899  15.147  0.0863 -1.6233  0.5071
15352TIP3   OH267546   0.700   6.773   6.103 -0.3259 -0.5559 -0.3237
15352TIP3    H167547   0.616   6.763   6.058 -1.0832 -1.1870  1.1540
15352TIP3    H267548   0.743   6.688   6.092 -0.0861 -0.3936 -0.6598
15353TIP3   OH267549   1.142   4.423   6.107 -0.3480 -0.4293 -0.3400
15353TIP3    H167550   1.085   4.460   6.175 -1.1151 -0.9301 -0.6929
15353TIP3    H267551   1.090   4.353   6.068 -0.5144  0.8010 -2.4593
15354TIP3   OH267552   5.787   3.956   0.998  0.5212  0.2261  0.3074
15354TIP3    H167553   5.865   4.009   1.017  1.7104 -2.4538  3.8904
15354TIP3    H267554   5.822   3.877   0.955 -0.3244 -0.5350  0.9933
15355TIP3   OH267555   0.655   0.467  13.508  0.8670 -0.0576  0.3460
15355TIP3    H167556   0.730   0.522  13.533  0.9664 -0.1826  0.3258
15355TIP3    H267557   0.619   0.436  13.592 -0.8860  2.2433  0.5354
15356TIP3   OH267558   6.167   6.181   2.548  0.2997  0.5365 -0.0966
15356TIP3    H167559   6.130   6.241   2.484  1.0847  0.6463 -0.4563
15356TIP3    H267560   6.222   6.236   2.604 -0.0237  0.3667  0.4033
15357TIP3   OH267561   5.978   3.769  16.480 -0.0849  0.3759  0.4448
15357TIP3    H167562   6.073   3.775  16.483  0.0145 -1.0819  2.1743
15357TIP3    H267563   5.960   3.693  16.425 -0.2667  0.6974  0.0537
15358TIP3   OH267564   1.011   2.831  11.850 -0.2361  0.2036 -0.1200
15358TIP3    H167565   1.008   2.737  11.830 -0.4511  0.4045 -1.0452
15358TIP3    H267566   1.006   2.874  11.765 -0.6914  1.0717  0.3393
15359TIP3   OH267567   0.723   5.313  12.986 -0.8047  0.0862 -0.4747
15359TIP3    H167568   0.788   5.311  13.056 -1.8911  1.2729  0.6200
15359TIP3    H267569   0.773   5.333  12.907  0.5211 -1.8166 -0.1808
15360TIP3   OH267570   2.061   0.038   6.171 -0.3180  0.1731 -0.8677
15360TIP3    H167571   2.027   0.087   6.096 -0.4878  1.3113 -0.0702
15360TIP3    H267572   2.110  -0.034   6.132  1.8426  2.2054 -2.1708
15361TIP3   OH267573   3.725   5.595  13.457 -0.0788  0.3358  0.2786
15361TIP3    H167574   3.703   5.547  13.537  0.9866 -0.3452  0.1829
15361TIP3    H267575   3.761   5.528  13.398 -2.8681  0.3424 -1.6650
15362TIP3   OH267576   2.415   4.104  12.164 -0.1135  0.1111 -0.3434
15362TIP3    H167577   2.424   4.192  12.129 -1.9427  0.5448  0.1563
15362TIP3    H267578   2.402   4.117  12.258  0.7889 -0.7831 -0.0741
15363TIP3   OH267579   3.445   2.878   3.162  0.5158 -0.2388 -0.6458
15363TIP3    H167580   3.527   2.847   3.125 -0.9072 -1.1863 -3.3203
15363TIP3    H267581   3.407   2.801   3.204  0.5136 -0.0798 -0.3534
15364TIP3   OH267582   4.529   3.495   2.095 -0.8507 -0.2547 -0.1714
15364TIP3    H167583   4.443   3.466   2.064 -0.3790 -1.6295 -0.2590
15364TIP3    H267584   4.533   3.466   2.187  0.2254 -1.9748 -0.6933
15365TIP3   OH267585   2.600   2.267   2.025  0.0389 -0.0912  0.1537
15365TIP3    H167586   2.590   2.316   1.943 -1.1787 -0.1365  0.2616
15365TIP3    H267587   2.586   2.332   2.094 -0.3898 -0.3450  0.3090
15366TIP3   OH267588   4.867   4.215  12.751  0.5015 -0.2424  0.4851
15366TIP3    H167589   4.858   4.305  12.722  0.9007  0.3066  1.9981
15366TIP3    H267590   4.844   4.163  12.674 -0.3551  1.1340 -0.2324
15367TIP3   OH267591   1.267   3.487  15.428 -0.5835 -0.3411 -0.4547
15367TIP3    H167592   1.264   3.533  15.344  1.8167  1.0049  0.0812
15367TIP3    H267593   1.283   3.395  15.404  0.5472  0.0893 -1.5075
15368TIP3   OH267594   0.097   5.289   2.959  0.3651 -0.1013 -0.2661
15368TIP3    H167595   0.103   5.199   2.927 -0.2813 -0.0418 -0.5610
15368TIP3    H267596   0.048   5.336   2.892  0.1426  0.3292  0.1851
15369TIP3   OH267597   5.440   0.515  13.066  0.7890 -0.0934 -0.2388
15369TIP3    H167598   5.407   0.432  13.030  0.4413 -0.7761  1.5416
15369TIP3    H267599   5.535   0.510  13.054  0.6504 -0.0760 -1.4553
15370TIP3   OH267600   2.438   5.182   0.349 -0.7658  1.0310 -0.0667
15370TIP3    H167601   2.396   5.265   0.371 -1.2592  0.4581  1.2608
15370TIP3    H267602   2.523   5.207   0.312 -0.4470  2.1256  1.3128
15371TIP3   OH267603   0.543   4.639   6.274  0.6743  0.8816 -0.5428
15371TIP3    H167604   0.592   4.607   6.350 -1.3758  1.9814  1.3498
15371TIP3    H267605   0.462   4.588   6.274  0.7283  0.7296 -2.1985
15372TIP3   OH267606   5.965   2.997   5.145  0.1950 -0.2432  0.2771
15372TIP3    H167607   6.054   2.968   5.124  0.1783 -0.5954  0.6761
15372TIP3    H267608   5.972   3.037   5.231  0.4394  2.0393 -0.7254
15373TIP3   OH267609   3.881   1.332   3.947  0.5934 -0.2888  0.1750
15373TIP3    H167610   3.846   1.412   3.908  0.5046 -0.3988  0.0260
15373TIP3    H267611   3.969   1.323   3.910  0.4304 -0.5060 -0.1657
15374TIP3   OH267612   2.159   2.830  13.150  0.0462 -0.3834 -0.4140
15374TIP3    H167613   2.169   2.874  13.234 -0.0172 -0.2779 -0.4625
15374TIP3    H267614   2.175   2.737  13.170 -0.5418 -0.4370 -0.1759
15375TIP3   OH267615   2.922   5.513  14.956 -0.5682  0.6293  0.7100
15375TIP3    H167616   2.827   5.516  14.961 -0.7660 -2.4027  0.5040
15375TIP3    H267617   2.942   5.425  14.926  2.2964  1.6271 -0.7308
15376TIP3   OH267618   0.466   3.658  16.044 -0.3749  0.5098  0.7468
15376TIP3    H167619   0.546   3.636  16.091 -0.5326 -1.9188  0.0074
15376TIP3    H267620   0.417   3.712  16.105  1.2105  0.9035  1.7360
15377TIP3   OH267621   4.010   4.035  15.993 -0.2701  0.3559  0.2412
15377TIP3    H167622   4.042   4.042  15.903  1.5614  0.8513  0.8822
15377TIP3    H267623   3.927   3.988  15.985 -0.2862  0.6141 -1.7221
15378TIP3   OH267624   6.524   3.339   2.254 -0.1149 -0.5275  0.1794
15378TIP3    H167625   6.585   3.265   2.263  0.9025  0.0827 -1.2383
15378TIP3    H267626   6.444   3.300   2.219  0.8268 -0.8604 -1.7849
15379TIP3   OH267627   2.719   4.624   0.842  0.4453  0.3855  0.6136
15379TIP3    H167628   2.726   4.672   0.925 -2.4364  1.5073  0.3340
15379TIP3    H267629   2.699   4.534   0.868  2.3890  0.0655  1.1155
15380TIP3   OH267630   1.736   5.062   2.807  0.8826 -0.1563 -0.3525
15380TIP3    H167631   1.686   5.003   2.864 -0.2549 -0.3838 -1.5664
15380TIP3    H267632   1.736   5.019   2.722 -0.2029  1.7068 -1.3525
15381TIP3   OH267633   3.365   4.473   0.359 -0.0781  0.4258  0.4948
15381TIP3    H167634   3.370   4.512   0.446 -1.1504 -0.7678  1.1255
15381TIP3    H267635   3.299   4.526   0.313 -0.9153 -0.0992  1.0660
15382TIP3   OH267636   3.006   5.951  11.567  0.6957 -0.3926 -1.1329
15382TIP3    H167637   3.039   5.866  11.596  2.1977  1.1967  2.3863
15382TIP3    H267638   3.084   5.996  11.532  0.8552  0.8473  0.6717
15383TIP3   OH267639   5.690   2.799   0.767  0.8926  0.3224  0.3010
15383TIP3    H167640   5.666   2.878   0.815  0.3982  0.1280  0.3824
15383TIP3    H267641   5.693   2.730   0.834  0.0618  0.0234  0.0463
15384TIP3   OH267642   3.937   3.358  10.999  0.5513  0.7259 -0.6553
15384TIP3    H167643   4.018   3.396  11.032 -0.1069  2.2982 -0.7566
15384TIP3    H267644   3.965   3.295  10.933  1.7255  0.1768  0.3269
15385TIP3   OH267645   2.992   3.494   3.519  0.1899  0.4648  0.0514
15385TIP3    H167646   2.919   3.527   3.467  0.8297  0.1994 -1.0305
15385TIP3    H267647   3.070   3.522   3.472  0.7947  0.4919  1.0415
15386TIP3   OH267648   4.243   3.404  12.781  0.3173  0.4132  0.2363
15386TIP3    H167649   4.328   3.363  12.764 -0.0930 -0.3699 -0.0037
15386TIP3    H267650   4.261   3.498  12.780  0.6587  0.4260 -2.8934
15387TIP3   OH267651   0.788   3.489  11.715  0.0207 -0.0452  0.1713
15387TIP3    H167652   0.694   3.498  11.697 -0.0331 -0.1792  0.3829
15387TIP3    H267653   0.800   3.397  11.735  0.5408 -0.4201 -1.7449
15388TIP3   OH267654   6.274   2.384  16.683  0.1269  0.0506 -0.3752
15388TIP3    H167655   6.257   2.317  16.616  2.1205 -0.6502 -0.2603
15388TIP3    H267656   6.260   2.467  16.638  2.3073 -0.3771 -2.0374
15389TIP3   OH267657   0.249   4.052   3.004 -0.4285 -0.0065  0.1119
15389TIP3    H167658   0.338   4.082   2.986 -0.6100 -0.0365 -0.9140
15389TIP3    H267659   0.195   4.095   2.938 -0.7725 -2.1303 -1.0962
15390TIP3   OH267660   3.675   6.283  14.685 -0.1453  0.5569  0.1146
15390TIP3    H167661   3.588   6.258  14.654 -0.9081  0.8598  1.9197
15390TIP3    H267662   3.732   6.268  14.609 -1.4670 -1.2351 -0.5897
15391TIP3   OH267663   3.809   0.172  15.604  0.2405 -0.0068  0.6333
15391TIP3    H167664   3.873   0.243  15.610  0.3646 -0.0669  0.0939
15391TIP3    H267665   3.804   0.137  15.693  0.7150  0.2087  0.7502
15392TIP3   OH267666   1.457   2.181   4.752 -0.0911 -0.2733  0.6453
15392TIP3    H167667   1.532   2.152   4.700 -1.0245 -0.1015 -0.8485
15392TIP3    H267668   1.388   2.117   4.734 -0.2832 -0.5158  2.1155
15393TIP3   OH267669   4.072   4.532   0.722 -0.7110  0.0657 -0.1719
15393TIP3    H167670   4.145   4.533   0.783 -1.6973  1.9432  1.0779
15393TIP3    H267671   4.102   4.582   0.647 -0.9480  1.5415  0.6861
15394TIP3   OH267672   6.181   6.501  12.632 -0.3659 -0.3547  0.3843
15394TIP3    H167673   6.229   6.579  12.663  0.9834 -0.6481 -0.8522
15394TIP3    H267674   6.106   6.537  12.584 -0.2804  0.1731  0.6349
15395TIP3   OH267675   0.234   0.713  13.963  0.1520  0.4558 -0.4950
15395TIP3    H167676   0.194   0.626  13.961  0.9826 -0.0151  1.1967
15395TIP3    H267677   0.283   0.715  14.045  0.9518  2.1803 -0.9587
15396TIP3   OH267678   3.163   2.728   3.789  0.2273 -0.3058 -0.3718
15396TIP3    H167679   3.151   2.780   3.710  0.4439  0.8470  0.3257
15396TIP3    H267680   3.083   2.676   3.796  0.9786 -1.8796 -2.3442
15397TIP3   OH267681   5.197   1.201  15.582 -0.2504 -0.1320 -0.1071
15397TIP3    H167682   5.110   1.161  15.583 -0.9125  1.2367  1.6218
15397TIP3    H267683   5.180   1.295  15.569  1.0896 -0.0019 -1.2651
15398TIP3   OH267684   0.290   2.814  13.765 -0.3623  0.2244  0.4420
15398TIP3    H167685   0.350   2.739  13.766  1.7336  1.7816  1.6312
15398TIP3    H267686   0.296   2.850  13.677 -0.8974 -0.6322  0.0529
15399TIP3   OH267687   1.301   0.733  15.875 -0.8275  0.7022  0.4386
15399TIP3    H167688   1.307   0.643  15.844 -1.5047  0.1256  1.9312
15399TIP3    H267689   1.209   0.746  15.894 -0.4587  1.0765  2.0609
15400TIP3   OH267690   0.072   1.528  11.415  0.4484  0.1413  0.1971
15400TIP3    H167691   0.041   1.595  11.354  0.8614 -0.8789 -1.1954
15400TIP3    H267692   0.045   1.445  11.375  1.9298 -0.6237  0.6955
15401TIP3   OH267693   2.788   3.584  13.155 -0.4961 -0.0871 -0.1639
15401TIP3    H167694   2.704   3.610  13.117 -0.5978 -1.4979 -0.9712
15401TIP3    H267695   2.785   3.618  13.244 -0.2145  3.3648 -1.3391
15402TIP3   OH267696   6.554   2.263   5.529  0.1820 -0.2005  0.4362
15402TIP3    H167697   6.594   2.190   5.483 -0.6769 -0.1842 -0.3563
15402TIP3    H267698   6.628   2.318   5.556  0.7319 -0.5026 -0.4331
15403TIP3   OH267699   1.386   0.234   2.628 -0.1546 -0.5948 -0.5126
15403TIP3    H167700   1.390   0.325   2.597 -3.5044  0.0572  0.6448
15403TIP3    H267701   1.445   0.233   2.703 -1.1915  1.0734  0.3843
15404TIP3   OH267702   1.462   0.546  12.853 -0.2030 -0.0239  0.3581
15404TIP3    H167703   1.428   0.634  12.867 -0.3315  0.3707 -1.9618
15404TIP3    H267704   1.385   0.490  12.854 -0.4218  0.2448 -0.4847
15405TIP3   OH267705   5.366   2.223  14.842 -0.5197  0.0666  0.0031
15405TIP3    H167706   5.344   2.183  14.927 -0.2107  0.3654  0.2296
15405TIP3    H267707   5.337   2.314  14.851  0.2645  0.3155  0.0988
15406TIP3   OH267708   2.501   6.379   3.924  0.1181 -0.2903 -0.1500
15406TIP3    H167709   2.559   6.341   3.990  0.6985 -0.4216 -0.7279
15406TIP3    H267710   2.524   6.472   3.924 -1.0782  0.0259  1.0367
15407TIP3   OH267711   4.683   3.872  11.719  0.5560  0.2880 -0.1276
15407TIP3    H167712   4.614   3.808  11.737  1.6424 -1.0343 -0.4839
15407TIP3    H267713   4.639   3.940  11.667 -0.2806 -0.9960 -1.1692
15408TIP3   OH267714   5.910   2.879  13.500  0.0599 -0.3807 -0.1912
15408TIP3    H167715   5.875   2.829  13.426 -0.0390 -1.2919  0.4558
15408TIP3    H267716   6.002   2.852  13.505  0.0096 -0.4888  0.1544
15409TIP3   OH267717   4.823   5.323  16.522 -0.2053  0.2179  0.8902
15409TIP3    H167718   4.756   5.381  16.486  0.8829  1.6741  1.1149
15409TIP3    H267719   4.882   5.307  16.449 -1.4830 -2.2465  0.2799
15410TIP3   OH267720   6.482   6.719  16.409  0.1711 -0.0768  0.0225
15410TIP3    H167721   6.419   6.654  16.442 -0.4552  0.2019 -0.6135
15410TIP3    H267722   6.546   6.668  16.360  0.4808 -0.3691  0.7183
15411TIP3   OH267723   2.600   1.440   0.053 -0.0398  0.3261 -0.2853
15411TIP3    H167724   2.558   1.478  -0.024  1.1851  0.1671 -1.0608
15411TIP3    H267725   2.642   1.515   0.096  3.1560 -0.1132 -2.3120
15412TIP3   OH267726   0.462   3.478  14.670  0.2300 -0.0705 -1.1593
15412TIP3    H167727   0.547   3.519  14.653  0.1999  0.9098  0.7209
15412TIP3    H267728   0.484   3.397  14.716  0.1779  0.0745 -0.8718
15413TIP3   OH267729   0.043   5.264   3.729  0.0322 -0.0592 -0.2369
15413TIP3    H167730  -0.051   5.277   3.743 -0.0783 -1.7284  0.8997
15413TIP3    H267731   0.076   5.350   3.702 -1.5055  1.0488  1.2227
15414TIP3   OH267732   3.895   0.033  12.236 -0.6026  0.9021  0.7107
15414TIP3    H167733   3.828   0.047  12.302 -1.0816  1.2439  0.1598
15414TIP3    H267734   3.860  -0.036  12.180 -0.6584  1.3248  0.2168
15415TIP3   OH267735   4.149   0.290   0.636  0.4516 -0.1917  0.1411
15415TIP3    H167736   4.154   0.385   0.647  0.3660 -0.0017 -1.3146
15415TIP3    H267737   4.226   0.257   0.683 -1.2643  0.2416  3.6454
15416TIP3   OH267738   3.924   1.765  16.090  0.0932  0.4697 -0.0369
15416TIP3    H167739   3.902   1.842  16.038  1.4145  0.1891 -1.0522
15416TIP3    H267740   3.892   1.691  16.038  3.3407  0.0315 -1.6670
15417TIP3   OH267741   0.645   5.413  11.139  0.0477  0.3128  0.2615
15417TIP3    H167742   0.618   5.433  11.229 -1.1839  1.0285 -0.2422
15417TIP3    H267743   0.658   5.318  11.139  0.0468  0.2992  1.1974
15418TIP3   OH267744   2.877   2.774   1.978 -0.3430  0.2443  0.8435
15418TIP3    H167745   2.801   2.824   1.948  0.3233  0.0823 -1.2853
15418TIP3    H267746   2.839   2.695   2.018 -1.3096 -0.0928 -0.6600
15419TIP3   OH267747   0.085   4.200   5.695  0.9051  0.1910 -0.4247
15419TIP3    H167748   0.001   4.164   5.667  0.8497  0.1853 -0.2491
15419TIP3    H267749   0.093   4.283   5.647 -0.6986  1.8491  1.9872
15420TIP3   OH267750   0.436   2.656  16.153  0.1179  0.6903  0.1792
15420TIP3    H167751   0.370   2.725  16.163  0.5570  0.9724  1.3182
15420TIP3    H267752   0.495   2.670  16.227  0.9283 -0.1328 -0.3021
15421TIP3   OH267753   6.203   3.034  17.079  0.2702 -0.1736 -0.0963
15421TIP3    H167754   6.276   3.089  17.111  0.0735  0.6556 -1.0220
15421TIP3    H267755   6.246   2.961  17.035  0.5390 -0.1520  0.1225
15422TIP3   OH267756   1.840   5.041   0.134 -0.7738  0.1802  0.0232
15422TIP3    H167757   1.827   5.136   0.141 -2.3869  0.2668 -2.6434
15422TIP3    H267758   1.863   5.027   0.042 -1.4518 -2.0802  0.1351
15423TIP3   OH267759   3.871   0.245   2.576 -0.3019  0.3062 -0.0493
15423TIP3    H167760   3.876   0.212   2.666  0.3571 -0.5615 -0.3804
15423TIP3    H267761   3.871   0.340   2.585 -1.9780  0.2415  0.9338
15424TIP3   OH267762   1.997   5.036  12.479 -0.5233  0.2029 -0.1857
15424TIP3    H167763   1.928   5.083  12.433  0.5624  0.9603 -1.1020
15424TIP3    H267764   2.076   5.055  12.429  0.4543 -0.1585  1.1577
15425TIP3   OH267765   5.364   6.447  11.246  0.3573  0.4965  0.0716
15425TIP3    H167766   5.274   6.423  11.225  0.7298  0.1771 -1.2806
15425TIP3    H267767   5.359   6.485  11.334 -1.0401  0.2166  0.1397
15426TIP3   OH267768   0.083   5.984  16.219  0.0894  0.6102 -0.3512
15426TIP3    H167769   0.096   6.061  16.163  1.6976  0.5233 -0.1551
15426TIP3    H267770   0.159   5.929  16.200  0.1142  0.0942  1.1321
15427TIP3   OH267771   2.924   0.029   6.081 -0.5428  0.2385  0.8206
15427TIP3    H167772   2.908  -0.019   6.162  0.4840  1.5110  1.8205
15427TIP3    H267773   2.855   0.000   6.022 -1.3255 -0.7074  2.1497
15428TIP3   OH267774   3.549   2.160  15.093 -0.5048 -0.0539  0.0395
15428TIP3    H167775   3.530   2.185  15.003  0.2232 -0.7031 -0.3035
15428TIP3    H267776   3.555   2.064  15.091  1.6151  0.0242  0.3370
15429TIP3   OH267777   0.697   2.413  10.894  0.2208 -0.2027 -0.0910
15429TIP3    H167778   0.709   2.466  10.973  1.8168  1.2066 -1.2060
15429TIP3    H267779   0.637   2.464  10.840  1.4080  0.3226 -0.9741
15430TIP3   OH267780   1.543   4.697  13.559 -0.2357  0.1776  0.0629
15430TIP3    H167781   1.524   4.610  13.595  1.3829 -0.2318  0.0249
15430TIP3    H267782   1.559   4.681  13.466  0.4602  0.4320  0.1291
15431TIP3   OH267783   6.209   0.539   1.125 -0.4693 -0.7547  0.3600
15431TIP3    H167784   6.274   0.493   1.071  0.5706  2.1767 -1.1084
15431TIP3    H267785   6.260   0.572   1.199 -0.7949 -0.4964  0.4672
15432TIP3   OH267786   2.540   1.641  15.183  0.4627 -0.0090  0.0659
15432TIP3    H167787   2.583   1.689  15.253  0.4831 -0.4536  0.3661
15432TIP3    H267788   2.448   1.635  15.210  0.5339 -0.4620  0.2172
15433TIP3   OH267789   3.674   0.182  11.386  0.3343 -0.0255  0.0413
15433TIP3    H167790   3.733   0.194  11.460 -0.1983  0.3762  0.4045
15433TIP3    H267791   3.711   0.108  11.338  0.7430 -0.2204  0.6440
15434TIP3   OH267792   1.128   2.428  16.755 -0.1905 -0.0275  0.4717
15434TIP3    H167793   1.166   2.349  16.717 -1.2715 -0.1562 -0.4129
15434TIP3    H267794   1.132   2.414  16.849 -0.1435 -1.0307  0.3285
15435TIP3   OH267795   3.858   3.420   4.768  0.0283  0.4964 -0.0197
15435TIP3    H167796   3.903   3.340   4.795  2.4710  1.1124 -1.8805
15435TIP3    H267797   3.913   3.491   4.802 -1.2755  1.3795  0.3149
15436TIP3   OH267798   3.990   5.562   0.193 -0.2666 -0.2530  0.2899
15436TIP3    H167799   3.955   5.649   0.209 -1.9098 -0.7558 -0.3339
15436TIP3    H267800   4.065   5.576   0.135 -1.1674  0.6852 -0.6928
15437TIP3   OH267801   4.637   5.932  14.498 -0.0463  0.3766  0.0684
15437TIP3    H167802   4.609   5.866  14.435  1.7281 -0.3128 -0.0317
15437TIP3    H267803   4.557   5.952  14.547 -0.8096 -1.2474 -0.4268
15438TIP3   OH267804   4.602   1.703   0.306  0.0382 -0.0011  0.1126
15438TIP3    H167805   4.665   1.631   0.305  1.2420  0.9520  1.4446
15438TIP3    H267806   4.591   1.723   0.399 -2.5407 -0.3447 -0.0621
15439TIP3   OH267807   1.029   2.936  11.589  0.3370  0.2893 -0.1941
15439TIP3    H167808   0.965   2.913  11.522  1.0654  1.7749 -1.4882
15439TIP3    H267809   1.098   2.871  11.580 -0.4073 -0.5934  0.3720
15440TIP3   OH267810   0.153   3.450   0.503  0.5849 -0.1616 -0.0882
15440TIP3    H167811   0.228   3.454   0.563  0.7737  1.9917 -0.3940
15440TIP3    H267812   0.192   3.436   0.416  0.4745 -0.9454 -0.0197
15441TIP3   OH267813   1.683   2.931  13.236  0.8845 -0.3516 -0.1975
15441TIP3    H167814   1.740   2.977  13.297 -0.4178  1.1956 -0.0798
15441TIP3    H267815   1.608   2.904  13.289 -0.5806  1.5992 -1.1505
15442TIP3   OH267816   4.190   5.489   2.464 -0.2761 -0.1888 -0.3452
15442TIP3    H167817   4.176   5.494   2.558 -1.7644  1.0179 -0.5799
15442TIP3    H267818   4.223   5.576   2.440  0.4025 -0.5906 -0.8924
15443TIP3   OH267819   3.037   1.913  11.255 -0.2154 -0.6362 -0.0064
15443TIP3    H167820   2.998   1.903  11.168  1.4627 -1.2281 -0.7331
15443TIP3    H267821   3.027   1.826  11.295  0.0167 -0.6782 -0.0414
15444TIP3   OH267822   3.665   4.175  15.309 -0.5658  0.8419 -0.3429
15444TIP3    H167823   3.616   4.215  15.237 -1.8427  0.7194  0.4307
15444TIP3    H267824   3.708   4.248  15.353 -1.5679  1.1921  0.0769
15445TIP3   OH267825   2.470   1.987  15.582 -0.2014  0.1178 -0.1381
15445TIP3    H167826   2.480   1.893  15.570 -4.3164 -0.3969 -1.3440
15445TIP3    H267827   2.461   2.022  15.493  1.9657  1.8371  0.2479
15446TIP3   OH267828   1.926   1.658   1.412  0.2214  0.2895 -0.1722
15446TIP3    H167829   1.934   1.727   1.346 -1.4010  0.2791 -0.4002
15446TIP3    H267830   1.991   1.682   1.479  1.4359  0.6597 -1.4187
15447TIP3   OH267831   4.755   3.568  15.932 -0.2695 -0.4414 -0.0565
15447TIP3    H167832   4.817   3.499  15.909 -1.1166 -0.5830 -2.0999
15447TIP3    H267833   4.679   3.521  15.967  0.7251 -0.2632  2.5453
15448TIP3   OH267834   0.459   6.191  17.180 -0.3981  0.1373  0.0872
15448TIP3    H167835   0.508   6.114  17.208  0.3441  1.0423  1.4195
15448TIP3    H267836   0.466   6.192  17.085 -0.0562 -1.1937  0.0872
15449TIP3   OH267837   5.824   5.544   1.612 -0.5190  0.5753  0.1258
15449TIP3    H167838   5.888   5.574   1.547  0.8737  0.7719  1.5438
15449TIP3    H267839   5.871   5.478   1.662 -2.2021 -0.9811 -0.2552
15450TIP3   OH267840   3.489   2.293  14.864  0.3274 -0.5575  0.1747
15450TIP3    H167841   3.513   2.384  14.882 -2.4717 -0.0640  2.0618
15450TIP3    H267842   3.397   2.297  14.838  1.1580 -2.5353 -3.8309
15451TIP3   OH267843   4.174   1.487  12.875 -0.2754 -0.6468 -0.4832
15451TIP3    H167844   4.089   1.520  12.845  0.6220  0.4008 -1.9879
15451TIP3    H267845   4.235   1.508  12.804  1.0485 -2.3856  0.0637
15452TIP3   OH267846   0.333   3.157  13.962 -0.0088  0.0043 -0.4273
15452TIP3    H167847   0.336   3.247  13.995 -0.3737 -0.0786 -0.1605
15452TIP3    H267848   0.352   3.165  13.869  0.5373  0.2964 -0.2936
15453TIP3   OH267849   0.496   4.923  14.854 -0.2983  0.0184  0.2664
15453TIP3    H167850   0.559   4.928  14.782 -2.1287 -1.7186 -1.6136
15453TIP3    H267851   0.505   4.834  14.887 -1.6659 -0.2456 -0.0117
15454TIP3   OH267852   0.259   0.938   2.282  0.2420  0.2850 -0.2170
15454TIP3    H167853   0.295   0.851   2.262  1.0372  0.7342 -0.7786
15454TIP3    H267854   0.320   0.999   2.241 -1.4559  1.0675 -1.7307
15455TIP3   OH267855   0.393   1.565   2.791 -0.2813 -0.1806  0.4468
15455TIP3    H167856   0.426   1.485   2.750 -0.4760  0.7546 -1.6513
15455TIP3    H267857   0.320   1.535   2.846  0.2806 -1.5494  0.4862
15456TIP3   OH267858   0.340   0.695  16.113 -0.2183 -0.3179  0.1162
15456TIP3    H167859   0.247   0.717  16.121 -0.4299 -1.2112  0.2920
15456TIP3    H267860   0.362   0.716  16.023 -0.6883 -0.4269 -0.0281
15457TIP3   OH267861   1.045   2.355   3.877 -0.0187 -0.2705  0.4148
15457TIP3    H167862   1.071   2.403   3.798 -0.0761 -0.8721  0.0275
15457TIP3    H267863   1.095   2.396   3.947 -0.9713  1.1702  0.2994
15458TIP3   OH267864   3.324   3.025  11.659  0.0808  0.3366 -0.1519
15458TIP3    H167865   3.230   3.008  11.656  0.3730 -1.5114  0.1711
15458TIP3    H267866   3.330   3.120  11.667 -1.7627  0.4775  0.0988
15459TIP3   OH267867   3.869   3.171   3.528  0.0171  0.1883  0.2552
15459TIP3    H167868   3.785   3.144   3.565 -0.1746  0.8023  0.2775
15459TIP3    H267869   3.848   3.206   3.441  0.2777  0.1340  0.1681
15460TIP3   OH267870   5.091   3.082  11.434  0.1162 -0.1879 -0.5142
15460TIP3    H167871   5.003   3.118  11.420  0.3999  1.6208  1.7244
15460TIP3    H267872   5.078   3.005  11.488 -0.2059 -1.2391 -2.0313
15461TIP3   OH267873   4.798   1.924  10.895  0.1650  0.4228 -0.3403
15461TIP3    H167874   4.719   1.952  10.848  0.0774  0.1170 -0.3780
15461TIP3    H267875   4.764   1.872  10.969  0.2214  2.1565  0.9610
15462TIP3   OH267876   6.626   6.096  15.566  0.2560 -0.4082 -0.2630
15462TIP3    H167877   6.635   6.042  15.488 -1.2753 -1.2135  0.0706
15462TIP3    H267878   6.537   6.077  15.598  0.0297  1.5730  0.4277
15463TIP3   OH267879   5.833   5.438  13.149 -0.1348 -0.0181 -0.5471
15463TIP3    H167880   5.833   5.515  13.092 -0.2357 -0.1809 -0.7671
15463TIP3    H267881   5.755   5.449  13.204  0.2437  0.4007 -0.0825
15464TIP3   OH267882   6.087   3.803  12.239  0.3281 -0.4107 -0.1121
15464TIP3    H167883   6.058   3.757  12.160 -0.7584 -0.4962  0.3221
15464TIP3    H267884   6.014   3.795  12.300  0.0876  1.8588 -0.0085
15465TIP3   OH267885   3.572   3.556  17.153 -0.0882 -0.0611 -0.5510
15465TIP3    H167886   3.644   3.575  17.093 -0.8464  1.1656 -1.1278
15465TIP3    H267887   3.496   3.544  17.095 -0.1158 -2.7646 -0.0636
15466TIP3   OH267888   5.335   2.945  13.608  0.5870 -0.3071 -0.0778
15466TIP3    H167889   5.241   2.928  13.617  0.3230  0.4986 -1.1285
15466TIP3    H267890   5.361   2.985  13.691 -0.4666  1.4383 -0.5387
15467TIP3   OH267891   5.849   5.663  12.570  0.0889 -0.2475 -0.4814
15467TIP3    H167892   5.936   5.671  12.531  0.3954  0.2409  0.2720
15467TIP3    H267893   5.831   5.569  12.570  1.5464 -0.5929  1.2553
15468TIP3   OH267894   6.147   2.184   3.163  0.6955  0.6805 -0.4878
15468TIP3    H167895   6.084   2.241   3.207 -0.2830 -0.3571 -0.5031
15468TIP3    H267896   6.140   2.101   3.209 -0.0240 -0.3051 -2.2850
15469TIP3   OH267897   2.317   1.931   2.775  0.4313  0.0917 -0.1533
15469TIP3    H167898   2.365   1.900   2.852  2.2225  0.4863 -1.0634
15469TIP3    H267899   2.321   1.857   2.713 -0.4784 -0.0065 -0.1066
15470TIP3   OH267900   1.824   3.329  13.948 -0.1349 -0.2275 -0.0242
15470TIP3    H167901   1.830   3.240  13.983  1.2560 -0.7755 -1.5147
15470TIP3    H267902   1.912   3.365  13.959 -0.6833  1.0029  0.5715
15471TIP3   OH267903   0.566   1.654  15.980 -0.6348 -0.3081  0.0178
15471TIP3    H167904   0.657   1.630  15.967 -0.6653 -0.1619 -0.4831
15471TIP3    H267905   0.568   1.717  16.053  0.1943  2.8569 -2.4870
15472TIP3   OH267906   4.308   1.037  13.744 -0.1887 -0.1305 -0.4998
15472TIP3    H167907   4.337   0.946  13.747  0.4854  0.0713 -0.5832
15472TIP3    H267908   4.346   1.072  13.663 -2.4449 -0.4077 -1.7482
15473TIP3   OH267909   6.706   1.900  16.775  0.0241 -0.1589 -0.0542
15473TIP3    H167910   6.642   1.971  16.774  2.5335  2.3498  1.3872
15473TIP3    H267911   6.714   1.875  16.867  0.0451 -1.5476 -0.4001
15474TIP3   OH267912   0.320   3.316  15.570  0.3066  0.1991 -0.0229
15474TIP3    H167913   0.287   3.345  15.484  0.7377 -1.1067 -0.6512
15474TIP3    H267914   0.397   3.370  15.585  0.9300 -0.3740 -1.0408
15475TIP3   OH267915   3.327   2.584   5.422 -0.2186 -0.5829  0.5881
15475TIP3    H167916   3.405   2.528   5.417  0.5069  0.3102  1.4492
15475TIP3    H267917   3.358   2.670   5.393 -0.8268 -0.1785  1.1091
15476TIP3   OH267918   5.554   6.749  15.717 -0.1238 -0.2148  0.3666
15476TIP3    H167919   5.515   6.837  15.717  0.1321 -0.0936  1.0029
15476TIP3    H267920   5.647   6.764  15.737 -0.0514 -0.6226  0.3453
15477TIP3   OH267921   6.357   1.385   1.191 -0.0170 -0.0134  0.0894
15477TIP3    H167922   6.430   1.385   1.253 -0.4446  1.1666  0.6326
15477TIP3    H267923   6.337   1.292   1.176  1.5670 -0.3501 -0.0630
15478TIP3   OH267924   2.909   1.575   6.050  0.4584  0.0876 -0.4585
15478TIP3    H167925   2.894   1.662   6.014  0.0131  0.8567  1.4673
15478TIP3    H267926   2.959   1.590   6.130 -1.2643 -1.2126  0.9550
15479TIP3   OH267927   1.327   3.381   5.392 -0.1625 -0.6001  0.4837
15479TIP3    H167928   1.347   3.406   5.302  0.0330  0.1169  0.7215
15479TIP3    H267929   1.231   3.375   5.394 -0.1526 -0.8626  0.1654
15480TIP3   OH267930   3.354   0.333   3.089  0.3393 -0.1767 -0.1891
15480TIP3    H167931   3.417   0.268   3.118  1.9511  2.0869  1.7050
15480TIP3    H267932   3.399   0.382   3.021  0.6888  1.4313  1.1450
15481TIP3   OH267933   5.278   0.160  17.132  0.7044  0.1965  0.1392
15481TIP3    H167934   5.217   0.201  17.070 -0.9254 -0.8167  0.9868
15481TIP3    H267935   5.361   0.205  17.117 -0.1600  1.4307 -1.3001
15482TIP3   OH267936   6.485   0.255  13.950  0.1622  0.6129  0.2646
15482TIP3    H167937   6.563   0.277  14.001  0.7915 -1.4516  0.2940
15482TIP3    H267938   6.411   0.281  14.005  0.8249 -1.4532  2.2721
15483TIP3   OH267939   0.670   4.583  15.744  0.2404  0.2545 -0.1107
15483TIP3    H167940   0.594   4.586  15.801  1.7665  0.1533  2.0487
15483TIP3    H267941   0.715   4.666  15.758 -1.1980  1.9753 -4.1004
15484TIP3   OH267942   4.444   4.349  12.839 -0.1782  0.3950 -0.1378
15484TIP3    H167943   4.449   4.425  12.781 -1.9095 -0.3903 -1.4333
15484TIP3    H267944   4.350   4.336  12.852 -0.4714 -4.3597 -4.0326
15485TIP3   OH267945   4.668   5.742   6.014 -0.0767  0.0623  0.0164
15485TIP3    H167946   4.733   5.675   6.036 -0.7436 -0.4061  0.6052
15485TIP3    H267947   4.716   5.824   6.020  0.1403 -0.1618  1.8284
15486TIP3   OH267948   0.040   2.603  16.396 -0.3151 -0.2282 -0.1480
15486TIP3    H167949   0.093   2.524  16.405 -1.1714 -0.6594  1.3020
15486TIP3    H267950  -0.026   2.580  16.330  1.6555  0.5721 -2.5838
15487TIP3   OH267951   4.204   1.568   6.379 -0.1252  0.4116  0.2522
15487TIP3    H167952   4.192   1.595   6.288  0.6807  0.2737  0.0919
15487TIP3    H267953   4.222   1.474   6.374  0.0247  0.4223  0.5425
15488TIP3   OH267954   5.698   5.049  13.098 -0.6065  0.4066 -0.1609
15488TIP3    H167955   5.741   4.980  13.148  1.6035  1.2876 -0.7397
15488TIP3    H267956   5.651   5.100  13.164 -0.0291 -0.0520  0.6282
15489TIP3   OH267957   3.201   0.902   2.347 -0.2219 -0.1828  0.1435
15489TIP3    H167958   3.124   0.943   2.387  0.2596  1.4037 -0.4976
15489TIP3    H267959   3.263   0.973   2.334  1.4894 -1.4719  0.8584
15490TIP3   OH267960   2.936   0.796  16.070 -0.4056 -0.4008 -0.2921
15490TIP3    H167961   2.958   0.809  15.977 -0.5629 -0.5576 -0.3516
15490TIP3    H267962   3.004   0.737  16.102 -0.6422 -0.7553 -0.4375
15491TIP3   OH267963   4.336   6.138  13.789 -0.1638  0.9080 -0.5096
15491TIP3    H167964   4.386   6.219  13.776 -1.9723  1.8870 -2.0199
15491TIP3    H267965   4.356   6.111  13.878  4.4540  0.1488 -1.5002
15492TIP3   OH267966   0.966   6.140   1.546  0.5451  0.3178 -0.4430
15492TIP3    H167967   1.050   6.105   1.577  0.5265 -0.5797 -1.3306
15492TIP3    H267968   0.910   6.142   1.623  0.1811 -2.7631 -0.4957
15493TIP3   OH267969   0.381   2.640  12.718 -0.0452 -0.1485 -0.5679
15493TIP3    H167970   0.361   2.729  12.691  0.6197  0.1561 -0.0720
15493TIP3    H267971   0.421   2.649  12.805 -0.3715 -0.9600 -0.3180
15494TIP3   OH267972   0.077   0.934   1.908  0.3442 -0.3401 -0.2549
15494TIP3    H167973   0.151   0.926   1.847  1.5728 -0.6961  1.2119
15494TIP3    H267974   0.087   1.022   1.946  1.4151 -1.2132  1.6156
15495TIP3   OH267975   0.401   0.927  10.889 -0.2693 -0.7131 -0.9533
15495TIP3    H167976   0.446   0.981  10.824 -0.8189  0.9891  0.0218
15495TIP3    H267977   0.309   0.951  10.880 -0.4437 -1.0348 -0.0931
15496TIP3   OH267978   6.162   6.690  17.123 -0.5813  0.0041  0.6338
15496TIP3    H167979   6.082   6.672  17.075 -0.3241  0.4653  0.0117
15496TIP3    H267980   6.232   6.661  17.064 -0.1654  2.3949 -0.1896
15497TIP3   OH267981   3.492   3.562   4.863  0.2778 -0.3689 -0.3194
15497TIP3    H167982   3.491   3.540   4.770 -1.1197  1.0357 -0.6790
15497TIP3    H267983   3.411   3.523   4.897  0.8684 -1.0230  0.3670
15498TIP3   OH267984   2.970   4.519   5.032  0.4740 -0.2373 -0.0337
15498TIP3    H167985   3.028   4.458   5.079  1.1171 -0.6924 -1.3701
15498TIP3    H267986   2.909   4.462   4.986  0.1525  0.1905 -0.1332
15499TIP3   OH267987   4.882   4.576  11.034 -0.1304  0.4316 -0.3029
15499TIP3    H167988   4.934   4.607  10.960  2.6886 -2.7889  0.0895
15499TIP3    H267989   4.816   4.519  10.995  1.0737 -0.9108 -0.4682
15500TIP3   OH267990   3.021   3.454  12.564  0.1035  0.2118  0.5816
15500TIP3    H167991   3.102   3.404  12.573  0.3353  0.6506  1.0065
15500TIP3    H267992   2.978   3.445  12.649  0.0915  0.6275  0.6243
15501TIP3   OH267993   1.104   4.175   1.047 -0.5756  0.4767  0.0172
15501TIP3    H167994   1.094   4.183   1.142 -1.9436 -0.4157 -0.0282
15501TIP3    H267995   1.162   4.100   1.035 -2.2150 -0.8878  0.1594
15502TIP3   OH267996   5.701   4.218  11.459 -0.3817 -0.4919 -0.1072
15502TIP3    H167997   5.697   4.313  11.475  1.8264 -0.1756 -1.1022
15502TIP3    H267998   5.651   4.205  11.379  1.3560  0.2913 -1.4019
15503TIP3   OH267999   1.424   5.033   2.277 -0.6989  0.4316  0.3842
15503TIP3    H168000   1.511   4.994   2.268 -0.2480  1.5692 -0.4716
15503TIP3    H268001   1.389   4.996   2.358  0.0484 -1.0388  0.0664
15504TIP3   OH268002   5.220   5.327   4.454  0.9774 -0.3480 -0.3583
15504TIP3    H168003   5.273   5.280   4.518  0.1844 -1.8873 -0.7984
15504TIP3    H268004   5.177   5.259   4.403  0.0263  0.8565 -1.2290
15505TIP3   OH268005   4.626   6.413  13.131 -0.3901 -0.1918  0.4545
15505TIP3    H168006   4.721   6.400  13.134 -0.3546  0.2864  1.8710
15505TIP3    H268007   4.615   6.504  13.103 -0.4890 -0.7274 -1.3678
15506TIP3   OH268008   2.854   5.747   0.792  0.1082  0.5858 -0.1784
15506TIP3    H168009   2.886   5.837   0.783  2.8209 -0.3861 -1.5415
15506TIP3    H268010   2.821   5.725   0.705  1.2514 -0.2966 -0.4148
15507TIP3   OH268011   3.601   4.025  12.651 -0.0985  0.4304 -0.1969
15507TIP3    H168012   3.525   3.968  12.666  0.4893 -0.9453 -2.0348
15507TIP3    H268013   3.650   3.981  12.581  2.3516  1.3195  0.8599
15508TIP3   OH268014   0.042   4.163  12.297 -0.6761  0.4024 -0.2435
15508TIP3    H168015  -0.050   4.141  12.313 -0.4412 -0.0830  0.4739
15508TIP3    H268016   0.045   4.186  12.204 -0.8467 -3.2270 -1.3059
15509TIP3   OH268017   3.395   3.208   0.745  0.1113  0.3484 -0.4562
15509TIP3    H168018   3.401   3.263   0.667  0.5814 -0.4454 -1.0064
15509TIP3    H268019   3.410   3.119   0.712  0.8434  0.0530  0.6145
15510TIP3   OH268020   3.967   3.983   4.641 -0.4203 -0.3779 -0.0994
15510TIP3    H168021   3.921   3.933   4.708 -1.0832  1.3250  0.7785
15510TIP3    H268022   4.042   3.928   4.616  0.1533 -0.8510  2.4195
15511TIP3   OH268023   2.910   2.262  14.924  0.6866  0.6723 -0.1613
15511TIP3    H168024   2.900   2.239  14.831  1.4967 -1.1088  0.1637
15511TIP3    H268025   2.981   2.326  14.925  0.2995  1.1256 -0.8137
15512TIP3   OH268026   2.262   5.423  14.162 -0.3284  0.1119  0.2932
15512TIP3    H168027   2.250   5.440  14.069 -0.7849 -1.0943  0.1110
15512TIP3    H268028   2.355   5.440  14.179 -0.0568 -0.4981 -0.5638
15513TIP3   OH268029   3.695   2.748  14.915 -0.1421  0.1162  0.5255
15513TIP3    H168030   3.691   2.662  14.955 -1.8714  0.2086  0.6197
15513TIP3    H268031   3.739   2.734  14.832  0.7455 -0.6147  1.1003
15514TIP3   OH268032   6.556   0.203  11.424 -0.4816  0.1271  0.2721
15514TIP3    H168033   6.522   0.114  11.424  0.2252 -0.1500  0.2794
15514TIP3    H268034   6.605   0.211  11.506 -0.8327  0.6380  0.4381
15515TIP3   OH268035   3.136   2.402  14.934  0.4204  0.1125  0.4226
15515TIP3    H168036   3.203   2.463  14.902  0.3772 -0.3033 -0.4959
15515TIP3    H268037   3.144   2.326  14.876 -0.1798 -0.3495  0.9391
15516TIP3   OH268038   6.719   1.893  14.746  0.0281 -0.7087  0.1228
15516TIP3    H168039   6.780   1.966  14.744 -0.3305 -0.4128 -0.3939
15516TIP3    H268040   6.663   1.909  14.822 -1.0033  0.3689 -0.8050
15517TIP3   OH268041   3.875   2.626  13.701 -0.5562  0.6023  0.1302
15517TIP3    H168042   3.932   2.655  13.773 -1.9723  1.3130  1.0171
15517TIP3    H268043   3.888   2.532  13.696 -2.8028 -0.0786  3.5996
15518TIP3   OH268044   4.335   0.025  13.117 -0.1684 -0.3829  0.2845
15518TIP3    H168045   4.401   0.093  13.106 -0.1434 -0.6532 -1.5965
15518TIP3    H268046   4.357  -0.017  13.200  2.2482 -0.6854 -0.4395
15519TIP3   OH268047   2.356   4.679   3.532  0.0886  0.1329  0.0120
15519TIP3    H168048   2.344   4.589   3.564 -1.4010 -0.1809 -1.2994
15519TIP3    H268049   2.322   4.677   3.442 -0.7308  2.1751  0.2231
15520TIP3   OH268050   6.035   4.740  13.890  0.0779 -0.0185 -0.5011
15520TIP3    H168051   6.001   4.801  13.956 -1.6045 -2.4388  1.0942
15520TIP3    H268052   6.122   4.772  13.870  0.8605  0.7263  3.2507
15521TIP3   OH268053   2.333   3.531   3.805 -0.4514  0.3649 -0.2670
15521TIP3    H168054   2.298   3.546   3.893 -0.1988  0.6477 -0.2141
15521TIP3    H268055   2.378   3.613   3.782 -1.3933  0.6783 -1.0748
15522TIP3   OH268056   2.180   4.715   1.073  0.4344 -0.0312 -0.1468
15522TIP3    H168057   2.213   4.794   1.116  1.9153 -1.0932  0.7593
15522TIP3    H268058   2.088   4.710   1.099  0.0857  1.7685 -0.8450
15523TIP3   OH268059   0.529   4.693   1.037 -0.3777 -0.3136  0.4639
15523TIP3    H168060   0.611   4.655   1.005 -0.2968  1.6258 -1.9368
15523TIP3    H268061   0.488   4.622   1.087  0.9674 -2.6558 -1.5057
15524TIP3   OH268062   0.569   6.122  15.868  0.1215  0.3870 -0.4113
15524TIP3    H168063   0.539   6.064  15.938 -1.6001  2.5144  0.7722
15524TIP3    H268064   0.563   6.210  15.906  1.9762  1.4286 -2.3142
15525TIP3   OH268065   4.443   3.702  12.399  0.2841 -0.5471 -0.1115
15525TIP3    H168066   4.516   3.698  12.338  1.3811 -1.4338  1.1798
15525TIP3    H268067   4.372   3.745  12.351  1.4036 -0.3717 -1.6525
15526TIP3   OH268068   1.323   3.284   3.789 -0.0734 -0.3997 -0.9171
15526TIP3    H168069   1.342   3.220   3.856  1.0147  0.4260 -0.4078
15526TIP3    H268070   1.234   3.314   3.808  1.3188  2.3290  2.3887
15527TIP3   OH268071   0.027   0.838  13.361  0.3721 -0.2313 -0.5981
15527TIP3    H168072  -0.051   0.875  13.320  0.6709  1.4638  0.2424
15527TIP3    H268073   0.042   0.894  13.437  0.2097 -2.8562  1.5048
15528TIP3   OH268074   5.390   6.593   4.859  0.3046  0.0282 -0.4935
15528TIP3    H168075   5.422   6.522   4.803 -1.2226 -2.0733  1.1040
15528TIP3    H268076   5.414   6.566   4.948 -0.3662  1.5126  0.1728
15529TIP3   OH268077   0.760   5.347  16.543 -0.6987  0.4735 -0.3138
15529TIP3    H168078   0.708   5.413  16.496 -0.5131 -0.2945 -1.6156
15529TIP3    H268079   0.815   5.399  16.602 -0.6019  1.4859 -1.2637
15530TIP3   OH268080   1.077   2.470   2.582  0.5280  0.2162 -0.0804
15530TIP3    H168081   1.073   2.541   2.519  1.5750 -0.7483 -1.3067
15530TIP3    H268082   1.166   2.435   2.573 -0.9410 -3.5076 -2.1643
15531TIP3   OH268083   2.948   1.519   1.698  0.6899  0.3492 -0.2992
15531TIP3    H168084   2.891   1.504   1.623  0.7489  0.8009 -0.4329
15531TIP3    H268085   2.907   1.590   1.746  1.4430  1.0812 -0.7129
15532TIP3   OH268086   2.701   3.592  17.147  0.0142  1.0406  0.0327
15532TIP3    H168087   2.769   3.582  17.081  0.3242 -0.3126  0.5116
15532TIP3    H268088   2.728   3.669  17.198  1.7376 -0.0206  0.8118
15533TIP3   OH268089   5.487   4.904  11.979  0.0095  0.7333  0.2545
15533TIP3    H168090   5.408   4.956  11.971 -1.4274 -0.9542  2.1972
15533TIP3    H268091   5.461   4.816  11.952  0.0679 -0.6860  4.1178
15534TIP3   OH268092   5.198   5.829   1.677  0.1692 -0.1633  0.4526
15534TIP3    H168093   5.139   5.880   1.733  1.5622  1.1286  0.8084
15534TIP3    H268094   5.142   5.799   1.605 -0.9714  0.8345  0.8752
15535TIP3   OH268095   3.040   3.795  16.868  0.0472  0.2488 -0.0195
15535TIP3    H168096   3.042   3.752  16.782  0.9613 -1.5385  0.8529
15535TIP3    H268097   3.118   3.851  16.869 -0.2927  0.7520 -0.5564
15536TIP3   OH268098   4.070   1.782  12.954  0.2462 -0.0917 -0.5287
15536TIP3    H168099   4.124   1.845  12.907  0.7159 -0.8739 -1.0568
15536TIP3    H268100   4.132   1.732  13.006 -0.2970  0.9962  1.2522
15537TIP3   OH268101   4.240   0.404   2.948  0.8522 -0.5187 -0.2115
15537TIP3    H168102   4.251   0.346   2.873 -0.2548  1.2512 -1.8230
15537TIP3    H268103   4.146   0.404   2.966  0.5697  1.8825 -1.2703
15538TIP3   OH268104   5.855   0.205  11.227 -0.5453  0.0950  0.2715
15538TIP3    H168105   5.790   0.216  11.296  1.2077  0.0372  2.0023
15538TIP3    H268106   5.918   0.276  11.241  0.7259 -0.8981 -0.2310
15539TIP3   OH268107   1.189   5.762   3.983  0.1186  0.2248 -0.4541
15539TIP3    H168108   1.186   5.858   3.990  2.2670  0.3024  0.0420
15539TIP3    H268109   1.265   5.744   3.929  1.3597 -1.2407  1.6276
15540TIP3   OH268110   3.184   0.705   4.750  0.8486 -0.4881 -0.1804
15540TIP3    H168111   3.174   0.715   4.655 -0.9830  0.2464  0.0467
15540TIP3    H268112   3.127   0.631   4.772 -0.1609  0.4688  0.5414
15541TIP3   OH268113   3.878   3.160  14.225 -0.2497 -0.1834 -0.7634
15541TIP3    H168114   3.959   3.109  14.220  0.0392  0.3595 -3.6369
15541TIP3    H268115   3.895   3.225  14.293  0.8938 -1.3821  0.1625
15542TIP3   OH268116   5.297   6.233  11.461 -0.4872 -0.4996  0.1114
15542TIP3    H168117   5.274   6.140  11.455 -0.4527 -0.5991  1.3738
15542TIP3    H268118   5.284   6.266  11.372  3.4889 -2.5899 -1.5085
15543TIP3   OH268119   5.270   2.813  11.173  0.4421  0.1552  0.2922
15543TIP3    H168120   5.274   2.909  11.171  0.5942  0.2060  1.6043
15543TIP3    H268121   5.279   2.786  11.082  0.7489  1.3828 -0.0599
15544TIP3   OH268122   5.865   3.839  12.613 -1.0295  0.2822 -0.2456
15544TIP3    H168123   5.850   3.805  12.525 -0.0996  1.5830 -0.9402
15544TIP3    H268124   5.778   3.843  12.653 -1.6992  1.2784 -1.7150
15545TIP3   OH268125   1.746   3.362  15.274  0.2306 -0.2990 -0.4610
15545TIP3    H168126   1.828   3.315  15.291  0.9456  1.1036  0.1344
15545TIP3    H268127   1.750   3.385  15.182  0.5827 -0.0976 -0.3953
15546TIP3   OH268128   5.758   5.011  15.043 -0.1889 -0.1584  0.5743
15546TIP3    H168129   5.821   5.068  14.999 -0.6547  0.3801  0.5978
15546TIP3    H268130   5.688   4.999  14.980 -0.0825 -0.7413  0.5565
15547TIP3   OH268131   2.967   2.842  15.220  0.0205  0.7570 -0.0397
15547TIP3    H168132   3.005   2.795  15.146 -0.5381 -0.2397  0.2946
15547TIP3    H268133   2.877   2.862  15.192  0.5851  2.7312 -0.6607
15548TIP3   OH268134   6.603   3.825  16.007 -0.1013 -0.8780 -0.6657
15548TIP3    H168135   6.603   3.921  16.007 -0.2384 -0.8716  0.0473
15548TIP3    H268136   6.695   3.800  16.017  0.0451 -0.8362 -1.7961
15549TIP3   OH268137   4.334   6.649  14.683 -0.3314  0.2629  0.0315
15549TIP3    H168138   4.247   6.656  14.644 -0.5930 -0.1127  0.5358
15549TIP3    H268139   4.392   6.629  14.609 -0.6984  0.3262 -0.2791
15550TIP3   OH268140   2.697   4.506   2.675  0.4467 -0.0245  0.5971
15550TIP3    H168141   2.718   4.450   2.749  0.2255  0.6307  1.1645
15550TIP3    H268142   2.603   4.525   2.685  0.8933  1.9855  1.5119
15551TIP3   OH268143   3.842   3.475   2.319  0.8371  0.2796  0.4068
15551TIP3    H168144   3.852   3.565   2.350  0.1754  0.6016 -0.2742
15551TIP3    H268145   3.931   3.443   2.308  1.1238  1.4289 -0.9122
15552TIP3   OH268146   6.037   5.623   3.935  0.1547 -0.2176 -0.0736
15552TIP3    H168147   5.978   5.586   4.000 -0.7108  0.0295 -0.6964
15552TIP3    H268148   6.008   5.713   3.924  0.8128 -0.0161 -0.2112
15553TIP3   OH268149   4.145   3.267   0.121 -0.2007  0.0003 -0.3419
15553TIP3    H168150   4.073   3.328   0.136  0.6311  1.0135 -0.3342
15553TIP3    H268151   4.224   3.321   0.127  0.4992 -0.7546 -2.0452
15554TIP3   OH268152   1.537   1.675  12.698 -0.1890  0.1533 -0.3533
15554TIP3    H168153   1.563   1.730  12.772  0.5430  1.0201 -1.2168
15554TIP3    H268154   1.602   1.605  12.697 -1.0830 -0.7391  0.7072
15555TIP3   OH268155   5.094   4.184   5.921  0.0102 -0.0178 -0.7205
15555TIP3    H168156   5.006   4.209   5.950 -0.4857 -1.9379 -0.4337
15555TIP3    H268157   5.105   4.094   5.953  1.8264 -0.0487 -1.3288
15556TIP3   OH268158   5.593   3.069  16.827 -0.6536  0.2044  0.2958
15556TIP3    H168159   5.683   3.096  16.846 -1.0689 -0.2396  3.6149
15556TIP3    H268160   5.599   2.974  16.813 -0.6397  0.0041  1.4853
15557TIP3   OH268161   6.176   2.705  13.925  0.4796 -0.0863  0.0271
15557TIP3    H168162   6.228   2.628  13.947 -0.6410 -0.1371  3.0844
15557TIP3    H268163   6.089   2.671  13.904  0.3145  0.2395  0.1597
15558TIP3   OH268164   3.325   0.654  14.899 -0.3254 -0.2172 -0.5024
15558TIP3    H168165   3.407   0.698  14.878 -0.7389  0.2630 -1.1295
15558TIP3    H268166   3.263   0.684  14.833 -1.6345  1.1820  1.2495
15559TIP3   OH268167   6.537   5.091   0.939 -0.0954  0.4772  0.3051
15559TIP3    H168168   6.611   5.049   0.895 -1.7953 -2.7703  0.1831
15559TIP3    H268169   6.572   5.120   1.023  1.5101 -0.1418 -0.1106
15560TIP3   OH268170   6.272   3.697  17.158 -0.0386 -0.1544  0.1506
15560TIP3    H168171   6.203   3.727  17.218  0.0995 -0.3729  0.4230
15560TIP3    H268172   6.249   3.605  17.140  1.1998 -0.8371  1.7510
15561TIP3   OH268173   3.312   5.856  11.369 -0.4737 -0.0601  0.1455
15561TIP3    H168174   3.329   5.913  11.294  1.4961 -0.6836  0.0877
15561TIP3    H268175   3.288   5.772  11.331 -1.7028  0.2166  0.2465
15562TIP3   OH268176   1.280   4.054  12.150 -0.0335 -0.6776  0.2270
15562TIP3    H168177   1.370   4.042  12.178 -0.0669 -1.2629  0.0848
15562TIP3    H268178   1.276   4.018  12.062  0.2603  1.8570 -0.8984
15563TIP3   OH268179   5.998   1.148   3.726 -0.1368 -0.2023 -0.3004
15563TIP3    H168180   6.012   1.087   3.798 -0.5391  1.4386  1.2684
15563TIP3    H268181   6.074   1.207   3.730 -0.3597  0.1352 -0.9555
15564TIP3   OH268182   2.459   5.497  14.369  0.2330  0.2409  0.1398
15564TIP3    H168183   2.381   5.503  14.423 -0.4858  0.3383 -0.8873
15564TIP3    H268184   2.456   5.576  14.314  0.5099 -0.2657 -0.6151
15565TIP3   OH268185   0.910   3.775  14.925  0.6500  0.8000  0.1692
15565TIP3    H168186   0.989   3.770  14.871 -0.1615 -1.1249 -0.9203
15565TIP3    H268187   0.932   3.726  15.004  0.7780  0.8988  0.1963
15566TIP3   OH268188   3.870   2.319   5.841 -0.1237 -0.0472  0.0399
15566TIP3    H168189   3.858   2.414   5.840 -1.8309 -0.2116  0.5088
15566TIP3    H268190   3.888   2.299   5.933  0.4524 -0.1579 -0.0961
15567TIP3   OH268191   6.212   2.865   1.116  0.0176 -0.1755  0.2712
15567TIP3    H168192   6.200   2.859   1.021  0.9336  1.1642  0.0457
15567TIP3    H268193   6.144   2.925   1.145  0.9978  1.0459  0.1380
15568TIP3   OH268194   1.765   5.201  13.111  0.4924 -0.4701 -0.2561
15568TIP3    H168195   1.746   5.263  13.181 -1.4239 -0.7021 -0.5221
15568TIP3    H268196   1.753   5.251  13.031 -0.5259 -1.0283 -0.4629
15569TIP3   OH268197   1.988   1.553   0.504 -0.3514  0.6047  0.1326
15569TIP3    H168198   1.954   1.465   0.518  0.2009 -0.0553 -2.2707
15569TIP3    H268199   1.949   1.605   0.575 -0.5584 -1.5667  1.7026
15570TIP3   OH268200   2.011   5.984   2.996  0.4448  0.3413 -0.4469
15570TIP3    H168201   2.056   6.058   3.035 -2.0193  1.7968 -0.1427
15570TIP3    H268202   1.993   5.925   3.069 -0.8160  1.2440 -0.0033
15571TIP3   OH268203   5.233   1.631  11.072  0.1649 -0.1262  0.0184
15571TIP3    H168204   5.276   1.696  11.128  0.7707  0.4078 -1.0254
15571TIP3    H268205   5.282   1.635  10.990 -2.7354  1.5687 -1.7916
15572TIP3   OH268206   1.509   0.994  12.082 -0.2386  0.2473  0.6192
15572TIP3    H168207   1.470   1.077  12.055 -0.3553  0.1074  0.3579
15572TIP3    H268208   1.555   0.963  12.004 -1.7535 -0.8608  0.1228
15573TIP3   OH268209   6.771   3.576  13.531  0.6153 -0.0249 -0.2504
15573TIP3    H168210   6.699   3.562  13.470  0.0334 -0.0631  0.4287
15573TIP3    H268211   6.772   3.670  13.547 -0.7538 -0.2500  1.4549
15574TIP3   OH268212   4.647   0.346  14.973 -0.3306 -0.1208  0.1719
15574TIP3    H168213   4.724   0.324  14.921 -0.4709  0.6788 -0.3859
15574TIP3    H268214   4.587   0.272  14.960 -0.2129 -0.0962 -0.5041
15575TIP3   OH268215   0.277   2.350  11.841 -0.1315 -0.5045  0.0615
15575TIP3    H168216   0.215   2.377  11.908 -2.8872 -0.3049 -2.3402
15575TIP3    H268217   0.345   2.417  11.842  0.1345 -0.7332  2.8132
15576TIP3   OH268218   4.686   5.929  10.663 -0.1035 -0.1870  0.5309
15576TIP3    H168219   4.681   5.961  10.573 -1.7930 -1.8924 -0.0448
15576TIP3    H268220   4.628   5.987  10.713 -0.6209 -0.3720  0.1460
15577TIP3   OH268221   3.359   4.790  15.257  0.4462 -0.0106  0.0018
15577TIP3    H168222   3.342   4.854  15.325 -1.9621  0.2614 -0.7586
15577TIP3    H268223   3.444   4.815  15.221  0.9250  0.9112  1.6730
15578TIP3   OH268224   3.819   0.304  14.824  0.0142  0.0626 -0.1129
15578TIP3    H168225   3.852   0.379  14.776 -1.1481  0.4797 -0.2931
15578TIP3    H268226   3.755   0.341  14.885  1.3947 -0.4456  1.7650
15579TIP3   OH268227   1.065   1.720   1.294  0.6237  0.3677 -0.2348
15579TIP3    H168228   0.990   1.770   1.327 -0.2142 -0.0572 -1.4587
15579TIP3    H268229   1.130   1.726   1.364  0.4145  2.8576 -0.1575
15580TIP3   OH268230   4.657   3.623   2.587  0.0149  0.4726  0.1507
15580TIP3    H168231   4.621   3.707   2.616 -0.0790  0.4793  0.0168
15580TIP3    H268232   4.752   3.634   2.593  0.0082  0.6705 -0.0979
15581TIP3   OH268233   2.426   6.423  16.697 -0.2653 -0.4524  0.2060
15581TIP3    H168234   2.368   6.346  16.703 -0.6094 -0.1498  0.8571
15581TIP3    H268235   2.387   6.487  16.757 -0.1938  0.3734 -0.6040
15582TIP3   OH268236   0.257   3.424   5.298  0.1828 -0.1718  0.2620
15582TIP3    H168237   0.162   3.429   5.286  0.4477  0.5251 -1.9715
15582TIP3    H268238   0.288   3.512   5.278  1.5936 -1.2391 -2.8414
15583TIP3   OH268239   1.547   1.110  12.463 -0.3101  0.0123 -0.2751
15583TIP3    H168240   1.561   1.197  12.424  0.6802 -0.1130 -0.2359
15583TIP3    H268241   1.454   1.108  12.485 -0.3926  0.9845 -0.4810
15584TIP3   OH268242   3.019   3.863   2.174 -0.3213  0.2772 -0.5408
15584TIP3    H168243   3.087   3.814   2.128 -0.2256  1.4951 -1.7415
15584TIP3    H268244   3.049   3.954   2.173 -0.7493  0.4805  1.1718
15585TIP3   OH268245   3.064   1.820   4.989  0.1463 -0.0726 -0.3466
15585TIP3    H168246   3.117   1.758   4.938  0.2000 -0.5261  0.2533
15585TIP3    H268247   3.128   1.878   5.031  0.0967  0.3982 -0.9013
15586TIP3   OH268248   1.154   6.747   3.705 -0.1049  0.0627  0.2709
15586TIP3    H168249   1.154   6.840   3.729 -0.8407 -0.3935  2.2653
15586TIP3    H268250   1.199   6.744   3.621  2.0142  1.9638  1.2221
15587TIP3   OH268251   1.647   6.709   0.045  0.0058  0.0579  0.2524
15587TIP3    H168252   1.625   6.656  -0.032 -1.6469 -0.9651  1.3491
15587TIP3    H268253   1.577   6.774   0.049  1.3786  1.6249 -0.4102
15588TIP3   OH268254   2.685   6.766   0.060  0.6709  0.0561 -0.0645
15588TIP3    H168255   2.758   6.717   0.098  0.0145 -2.0612 -1.3546
15588TIP3    H268256   2.713   6.784  -0.030 -0.6166 -1.3851 -0.7919
15589TIP3   OH268257   3.553   3.548   3.289  0.0245  0.0525  0.0209
15589TIP3    H168258   3.648   3.561   3.288  0.1632 -0.6994  1.0014
15589TIP3    H268259   3.539   3.484   3.359 -1.2097  0.1589 -0.1073
15590TIP3   OH268260   0.034   5.415   0.842  0.0512 -0.2205 -0.4720
15590TIP3    H168261   0.128   5.402   0.846 -0.0209 -0.5139  0.9315
15590TIP3    H268262  -0.002   5.327   0.830 -0.0596 -0.1589 -0.5977
15591TIP3   OH268263   5.285   0.298   4.983 -0.3824 -0.8677 -0.2766
15591TIP3    H168264   5.317   0.237   5.050 -0.0843 -2.7734 -2.0883
15591TIP3    H268265   5.363   0.322   4.934 -0.9223 -1.2840 -1.3546
15592TIP3   OH268266   3.654   2.884   5.187 -0.0800 -0.3067 -0.4422
15592TIP3    H168267   3.687   2.972   5.169  0.1296 -0.2403  0.2366
15592TIP3    H268268   3.666   2.837   5.104 -0.2074  0.3029 -0.8119
15593TIP3   OH268269   4.789   4.121  11.442 -0.0674  0.3169 -0.1274
15593TIP3    H168270   4.861   4.170  11.483 -0.5908  1.0065 -0.0148
15593TIP3    H268271   4.732   4.096  11.515 -0.1704  0.1538 -0.2628
15594TIP3   OH268272   3.086   0.890   3.160 -0.4440  0.6371  0.1462
15594TIP3    H168273   3.070   0.926   3.073 -0.2300 -1.0432 -0.6336
15594TIP3    H268274   3.010   0.834   3.177  0.5938 -0.8529  0.0241
15595TIP3   OH268275   5.630   5.923  12.327 -0.3817 -0.6620 -0.3092
15595TIP3    H168276   5.702   5.885  12.276  0.2200 -0.0071  0.0256
15595TIP3    H268277   5.646   6.018  12.323 -2.4265 -0.3255 -1.9907
15596TIP3   OH268278   6.173   1.253   6.092  0.8100 -0.5083 -0.4746
15596TIP3    H168279   6.188   1.325   6.153  0.3412  1.2760 -2.3575
15596TIP3    H268280   6.144   1.180   6.147 -1.9760  1.6864  1.2502
15597TIP3   OH268281   5.373   1.446  16.741  0.3152  0.1817 -0.3314
15597TIP3    H168282   5.455   1.436  16.693  1.0168  1.5981  0.5071
15597TIP3    H268283   5.393   1.417  16.830 -0.6932 -1.4625 -0.6025
15598TIP3   OH268284   6.059   2.405  12.212  0.1855 -0.2068  0.3073
15598TIP3    H168285   6.053   2.389  12.118  0.0842  0.6702  0.1579
15598TIP3    H268286   6.047   2.499  12.221 -2.7621 -0.5868  1.4442
15599TIP3   OH268287   4.140   3.217   3.848 -0.0114 -0.4746  0.3324
15599TIP3    H168288   4.142   3.186   3.939  0.2870  1.9394  1.2257
15599TIP3    H268289   4.185   3.301   3.851 -2.3752  0.9706 -1.5160
15600TIP3   OH268290   1.410   6.211  13.741 -0.0213  0.6386 -0.8057
15600TIP3    H168291   1.342   6.201  13.808  2.7046  1.5822  2.4216
15600TIP3    H268292   1.422   6.306  13.733  0.6441  0.4986 -1.6140
15601TIP3   OH268293   3.902   3.512   1.587 -0.3382  0.1591  0.1768
15601TIP3    H168294   3.929   3.494   1.677 -0.7696 -0.2527  0.2250
15601TIP3    H268295   3.981   3.498   1.535 -0.2691 -0.3080  0.4056
15602TIP3   OH268296   2.559   1.072  16.500 -0.3164  0.3523 -0.0024
15602TIP3    H168297   2.580   1.106  16.587  1.5097 -0.5192 -0.0510
15602TIP3    H268298   2.479   1.022  16.512  0.2451 -0.2649  1.3417
15603TIP3   OH268299   5.498   0.206  15.682  0.8608  0.1241 -0.4328
15603TIP3    H168300   5.435   0.247  15.741  0.8361  0.0817 -0.4292
15603TIP3    H268301   5.471   0.236  15.595  1.7243  1.2940 -0.3248
15604TIP3   OH268302   3.914   3.096   2.562 -0.2531 -0.8009  0.8979
15604TIP3    H168303   3.855   3.148   2.507  0.5783  0.0223  0.7513
15604TIP3    H268304   4.001   3.114   2.527  0.2617 -0.5693  2.2306
15605TIP3   OH268305   3.115   6.600  12.158 -0.1435 -0.7078  0.1468
15605TIP3    H168306   3.179   6.667  12.134 -0.5330 -0.4807 -0.2837
15605TIP3    H268307   3.039   6.650  12.190 -0.5936 -0.9206 -0.5604
15606TIP3   OH268308   3.590   3.006   2.794  0.6748 -0.1092  0.0603
15606TIP3    H168309   3.580   3.086   2.743  1.7839  0.5909  0.8939
15606TIP3    H268310   3.623   2.942   2.732 -1.3431 -0.2879 -0.8963
15607TIP3   OH268311   3.771   1.489  13.431  0.8444 -0.0709 -0.1672
15607TIP3    H168312   3.713   1.460  13.501  0.0632 -0.1390 -0.8251
15607TIP3    H268313   3.721   1.474  13.351  1.3615  0.8661 -0.6820
15608TIP3   OH268314   6.407   3.196  14.853 -0.2982 -0.3500 -0.5293
15608TIP3    H168315   6.474   3.158  14.796 -0.2784 -0.1055 -0.6740
15608TIP3    H268316   6.362   3.121  14.891 -0.5128 -0.5229 -1.1041
15609TIP3   OH268317   4.567   1.202   0.245 -0.3502  0.2291  0.2071
15609TIP3    H168318   4.519   1.265   0.299 -1.4975 -1.5676  1.3787
15609TIP3    H268319   4.508   1.182   0.173 -0.1112  0.2323  0.0077
15610TIP3   OH268320   4.727   0.710   2.700  0.8588 -0.2500  0.0157
15610TIP3    H168321   4.667   0.783   2.683 -1.4143 -2.2204 -0.9782
15610TIP3    H268322   4.699   0.675   2.784 -0.3897 -2.0230 -1.0795
15611TIP3   OH268323   6.305   5.505  11.586  0.2785 -0.0638  0.7580
15611TIP3    H168324   6.340   5.594  11.588  0.5797 -0.1965  1.5505
15611TIP3    H268325   6.288   5.484  11.678 -1.1856 -0.2770  0.4662
15612TIP3   OH268326   6.431   5.619   3.096  0.1183  0.1803 -0.0512
15612TIP3    H168327   6.365   5.555   3.124  0.9142 -0.5492  0.2145
15612TIP3    H268328   6.383   5.701   3.089 -1.3277 -0.7294 -2.0000
15613TIP3   OH268329   3.911   1.471   0.797 -0.3517 -0.3223  0.0726
15613TIP3    H168330   3.971   1.422   0.853 -0.5722  0.3653  0.9319
15613TIP3    H268331   3.935   1.447   0.708  0.5761 -0.7732  0.4429
15614TIP3   OH268332   0.133   4.600   3.015 -0.1482 -0.1222  0.4515
15614TIP3    H168333   0.140   4.536   3.086 -1.2428 -0.9864 -0.1942
15614TIP3    H268334   0.039   4.606   2.998  0.0858  0.2430 -0.7665
15615TIP3   OH268335   1.684   5.824   4.557 -0.0713  0.0746 -0.4751
15615TIP3    H168336   1.675   5.892   4.490 -1.1786 -0.4347 -0.8657
15615TIP3    H268337   1.778   5.806   4.560  0.2425  1.5492 -0.4268
15616TIP3   OH268338   3.731   1.778   0.460 -0.0877 -0.2767  0.1238
15616TIP3    H168339   3.709   1.756   0.369 -1.2015  1.6654 -0.1408
15616TIP3    H268340   3.817   1.820   0.455  0.1943 -0.8573  0.0769
15617TIP3   OH268341   3.364   2.090   0.681 -0.0243 -0.3849  0.2219
15617TIP3    H168342   3.376   2.052   0.768 -1.4781 -0.1002  0.5835
15617TIP3    H268343   3.339   2.017   0.626  1.7328 -0.7148 -0.1812
15618TIP3   OH268344   1.167   0.388   5.148 -0.0739  0.3679  0.2191
15618TIP3    H168345   1.156   0.309   5.202  1.8223 -0.9085 -1.1322
15618TIP3    H268346   1.237   0.437   5.191  0.9940 -0.3331 -0.6727
15619TIP3   OH268347   4.036   4.560   3.424  0.6874  0.1177  0.0104
15619TIP3    H168348   4.117   4.599   3.457  0.1374  1.6323 -0.3467
15619TIP3    H268349   3.969   4.586   3.488  0.4386 -1.0118  0.2349
15620TIP3   OH268350   0.840   1.347  13.570  0.2430  0.2861  0.3292
15620TIP3    H168351   0.837   1.253  13.586  0.8954 -0.0794 -1.4032
15620TIP3    H268352   0.895   1.356  13.492  0.2559  2.1159  0.5005
15621TIP3   OH268353   0.713   5.603   5.186  0.0549  0.0753  0.6309
15621TIP3    H168354   0.754   5.651   5.114 -0.6277  4.0595  2.5548
15621TIP3    H268355   0.641   5.556   5.146  0.4168  1.1559 -1.4464
15622TIP3   OH268356   3.033   1.735  15.938 -0.3011 -0.1244  0.4527
15622TIP3    H168357   3.062   1.696  16.020 -1.0349 -1.0082  0.2995
15622TIP3    H268358   3.091   1.699  15.871 -0.6327 -0.5400  0.3862
15623TIP3   OH268359   1.669   0.607  12.370 -0.1539  0.0398  1.0518
15623TIP3    H168360   1.657   0.642  12.458 -0.8314  1.1670  0.5432
15623TIP3    H268361   1.599   0.649  12.318  1.2564  0.7282 -0.3792
15624TIP3   OH268362   2.028   1.718   0.301  0.1815 -0.3827 -0.3960
15624TIP3    H168363   2.017   1.650   0.367  0.4313 -2.5318 -2.4263
15624TIP3    H268364   2.091   1.779   0.339  0.4311 -1.6162  1.2687
15625TIP3   OH268365   6.659   3.558  14.543  0.1411 -0.3702 -0.2743
15625TIP3    H168366   6.748   3.553  14.507  0.5685  0.5702  0.5962
15625TIP3    H268367   6.602   3.548  14.467  1.0074 -0.1673 -0.9718
15626TIP3   OH268368   4.208   6.583  12.507  0.1306 -0.0647 -0.2882
15626TIP3    H168369   4.148   6.600  12.580 -0.3579  2.0644 -1.1130
15626TIP3    H268370   4.152   6.547  12.438 -0.2700  1.8918 -1.0464
15627TIP3   OH268371   5.999   6.075   5.837 -0.5016 -0.0142  0.1285
15627TIP3    H168372   5.938   6.010   5.801 -0.3666 -0.1968  0.2300
15627TIP3    H268373   6.075   6.070   5.779 -0.5555  0.1692  0.0402
15628TIP3   OH268374   4.067   2.055   3.617  0.1223  0.1306 -0.5008
15628TIP3    H168375   4.076   2.085   3.526  0.6239  0.8734 -0.2159
15628TIP3    H268376   4.060   1.960   3.610 -1.9227  0.2975 -1.4703
15629TIP3   OH268377   6.545   5.878   2.125 -0.9981  0.6651  0.4230
15629TIP3    H168378   6.492   5.888   2.045  0.0515  0.1940 -0.3661
15629TIP3    H268379   6.482   5.885   2.197 -2.1674 -0.0889 -0.4828
15630TIP3   OH268380   6.713   4.431   5.759  0.0341 -0.3173 -0.3594
15630TIP3    H168381   6.699   4.347   5.714 -0.0004  0.0206 -0.9842
15630TIP3    H268382   6.626   4.470   5.763  0.4201  0.9176 -2.5316
15631TIP3   OH268383   5.340   4.788  12.560 -0.4161 -0.0980 -0.3853
15631TIP3    H168384   5.277   4.757  12.625 -1.1119 -1.0774 -1.4771
15631TIP3    H268385   5.314   4.744  12.479 -0.6584  2.4150 -1.7619
15632TIP3   OH268386   1.897   2.612   4.448 -0.7301  0.7566  0.0199
15632TIP3    H168387   1.832   2.550   4.416 -0.1511  0.0928  0.0947
15632TIP3    H268388   1.912   2.586   4.539 -0.3340  0.8759 -0.0099
15633TIP3   OH268389   5.951   5.033  11.439  0.1897 -0.4042  0.2646
15633TIP3    H168390   5.960   5.072  11.352 -2.0020  0.8686  0.5416
15633TIP3    H268391   5.921   5.105  11.495  2.8996 -0.8189  2.4593
15634TIP3   OH268392   2.411   6.483  12.315 -0.1367 -0.6381  0.2758
15634TIP3    H168393   2.437   6.459  12.404  1.2104  0.2347  0.1563
15634TIP3    H268394   2.375   6.403  12.277  0.2847 -1.3036  1.2482
15635TIP3   OH268395   4.553   0.846   3.069  0.3215  0.1474 -0.3971
15635TIP3    H168396   4.612   0.920   3.052 -0.1634  0.4588 -0.7677
15635TIP3    H268397   4.528   0.856   3.161 -1.2122  1.5659 -0.8943
15636TIP3   OH268398   3.651   4.536   2.518 -0.2917  0.1041 -0.8330
15636TIP3    H168399   3.745   4.532   2.504  0.0482  0.5668  1.0376
15636TIP3    H268400   3.627   4.626   2.494  0.0102  0.4291  0.0549
15637TIP3   OH268401   4.599   0.754  11.257 -0.4582  0.2924  0.1681
15637TIP3    H168402   4.599   0.848  11.242  0.7385  0.3749  0.6095
15637TIP3    H268403   4.578   0.745  11.350  2.4391  0.3226  0.9284
15638TIP3   OH268404   5.159   3.031   3.665  0.5468  0.1099  0.0585
15638TIP3    H168405   5.199   2.987   3.590 -0.3894 -0.5621 -0.0628
15638TIP3    H268406   5.104   3.099   3.626 -2.1128 -1.9608 -0.1046
15639TIP3   OH268407   4.780   2.466   3.574  0.1460  0.4681 -0.2631
15639TIP3    H168408   4.867   2.493   3.603  1.0997 -0.0404 -2.4820
15639TIP3    H268409   4.796   2.404   3.503 -2.0417 -0.4753 -0.0159
15640TIP3   OH268410   5.335   4.983   1.589 -0.1468  0.5671  0.5802
15640TIP3    H168411   5.341   4.981   1.685 -0.8649 -1.5287  0.6240
15640TIP3    H268412   5.276   4.911   1.567  1.4824 -0.2427 -1.5450
15641TIP3   OH268413   1.567   6.346  16.749  0.9508  0.8621  0.1448
15641TIP3    H168414   1.568   6.253  16.725 -0.9192  0.7433  0.3902
15641TIP3    H268415   1.503   6.386  16.690 -0.1093  1.4926  1.6360
15642TIP3   OH268416   2.238   0.746   3.694 -0.1008 -0.1943  0.7658
15642TIP3    H168417   2.195   0.825   3.661  1.0083 -0.0349 -0.3757
15642TIP3    H268418   2.180   0.715   3.764 -2.5851 -0.5114 -1.2622
15643TIP3   OH268419   6.510   6.547  12.770  0.7989 -0.3601  0.0174
15643TIP3    H168420   6.515   6.633  12.728 -1.7321 -0.8081 -1.4027
15643TIP3    H268421   6.535   6.562  12.861  0.8184  1.7844 -0.3016
15644TIP3   OH268422   2.145   4.346  14.227  0.5649  0.1622  0.3423
15644TIP3    H168423   2.144   4.370  14.320 -1.3122 -0.4813  0.5293
15644TIP3    H268424   2.172   4.254  14.227  1.9428  0.5388  0.1001
15645TIP3   OH268425   5.020   6.564   3.596  0.1292  0.9975 -0.2568
15645TIP3    H168426   5.114   6.572   3.582  0.2679  1.5885  0.8501
15645TIP3    H268427   4.995   6.647   3.639 -0.8460  0.7550 -0.3242
15646TIP3   OH268428   2.875   6.142   6.703  0.0113  0.2676  0.7250
15646TIP3    H168429   2.847   6.054   6.727  0.2037 -0.2346 -0.7504
15646TIP3    H268430   2.892   6.186   6.786  0.4066 -1.2515  1.4787
15647TIP3   OH268431   3.993   6.502  15.588  0.0618  0.3457 -0.4256
15647TIP3    H168432   3.998   6.513  15.682 -3.0417  1.9837 -0.3214
15647TIP3    H268433   3.958   6.414  15.576 -0.1734  0.3826 -0.0211
15648TIP3   OH268434   1.763   4.676  16.981 -0.3036 -0.4437 -0.3618
15648TIP3    H168435   1.701   4.651  17.051 -1.5544 -0.3362 -1.3925
15648TIP3    H268436   1.747   4.612  16.912 -0.6494  0.7447 -1.4111
15649TIP3   OH268437   0.210   2.089  11.822  0.0741  0.2895 -0.4607
15649TIP3    H168438   0.218   2.183  11.808  1.0473  0.4520  0.9930
15649TIP3    H268439   0.274   2.050  11.762  3.7602  0.9322  2.6664
15650TIP3   OH268440   1.076   4.827   4.510 -0.2384  0.4546  0.4546
15650TIP3    H168441   1.051   4.784   4.592  1.3578  0.6741  1.1162
15650TIP3    H268442   1.102   4.756   4.452  0.6172  0.3767  0.9007
15651TIP3   OH268443   1.304   2.703   5.439  0.1091 -0.6688  0.0113
15651TIP3    H168444   1.246   2.736   5.507 -0.5123 -1.2762 -0.2193
15651TIP3    H268445   1.314   2.776   5.379 -0.5567 -0.6141 -0.0381
15652TIP3   OH268446   4.408   3.093  12.583  0.1318  0.6297  0.0110
15652TIP3    H168447   4.470   3.166  12.587 -0.1861  1.0153 -1.4506
15652TIP3    H268448   4.462   3.019  12.553  0.0889  0.7386 -0.3471
15653TIP3   OH268449   2.638   1.864   5.745  0.2688 -0.6499  0.2754
15653TIP3    H168450   2.634   1.957   5.723  1.3125 -0.3919  1.1321
15653TIP3    H268451   2.590   1.821   5.673  0.7516  0.4442 -0.7434
15654TIP3   OH268452   4.921   1.795  17.035  0.0604 -0.3968  0.5647
15654TIP3    H168453   4.919   1.701  17.020 -0.7782 -0.3063  0.0234
15654TIP3    H268454   4.876   1.807  17.118  0.7200 -0.5157  0.9500
15655TIP3   OH268455   5.051   0.256  12.307  0.2347 -0.1951 -0.2674
15655TIP3    H168456   5.126   0.313  12.287 -0.4513  0.7474 -0.2553
15655TIP3    H268457   5.088   0.168  12.313  1.0542 -0.0421 -2.1810
15656TIP3   OH268458   3.317   2.022   1.711  0.3153  0.1149  0.4953
15656TIP3    H168459   3.234   2.043   1.754  1.0308 -0.0153  1.9724
15656TIP3    H268460   3.301   2.041   1.618 -1.6501 -0.7860  0.6020
15657TIP3   OH268461   3.236   0.697  11.538 -0.0091 -0.6340  0.0099
15657TIP3    H168462   3.228   0.732  11.449  2.9189  0.8685  0.2287
15657TIP3    H268463   3.213   0.605  11.529 -1.5961 -0.1325 -1.9054
15658TIP3   OH268464   3.490   4.471   2.129 -0.7278 -0.4837  0.2508
15658TIP3    H168465   3.419   4.475   2.065 -0.3010 -1.9320 -0.3379
15658TIP3    H268466   3.453   4.425   2.204 -0.9517  0.4102  0.7044
15659TIP3   OH268467   2.306   4.334  13.016 -0.2583 -0.0412  0.0632
15659TIP3    H168468   2.268   4.248  12.999 -2.2878  0.3951  1.9477
15659TIP3    H268469   2.315   4.338  13.111 -0.7773  2.0388  0.0755
15660TIP3   OH268470   2.386   5.491   5.161  0.4033 -0.7743 -0.0220
15660TIP3    H168471   2.399   5.428   5.090 -0.0041 -2.0539  0.9965
15660TIP3    H268472   2.474   5.504   5.198  1.1528  1.9879 -2.3492
15661TIP3   OH268473   6.449   5.867  10.874  0.3364 -0.4173  0.3450
15661TIP3    H168474   6.505   5.930  10.829  0.1766 -0.3298  0.2671
15661TIP3    H268475   6.509   5.798  10.903  0.3713 -0.7815 -0.5400
15662TIP3   OH268476   4.332   4.818   3.275  0.3366 -0.6660 -0.1123
15662TIP3    H168477   4.366   4.890   3.221 -0.9949  1.7265  2.0354
15662TIP3    H268478   4.254   4.788   3.227  0.3884 -0.0624 -0.5902
15663TIP3   OH268479   2.066   0.269  11.955 -0.2998  0.3589 -0.2967
15663TIP3    H168480   2.036   0.306  11.872  2.5549  1.1828 -1.0654
15663TIP3    H268481   2.159   0.252  11.941  0.0519 -0.3841  2.4599
15664TIP3   OH268482   4.440   1.512  13.666 -0.3630 -0.2017  0.8917
15664TIP3    H168483   4.507   1.568  13.706  0.0206 -1.3896  1.9714
15664TIP3    H268484   4.485   1.429  13.649 -0.7881 -0.0655 -1.1558
15665TIP3   OH268485   6.045   0.585  15.077 -0.3200  0.1033  0.2185
15665TIP3    H168486   6.038   0.495  15.045 -0.0611  0.4623 -0.8940
15665TIP3    H268487   6.119   0.583  15.138 -2.2150 -1.0693  2.5881
15666TIP3   OH268488   4.050   5.808   5.707  0.1791  0.2129 -0.6128
15666TIP3    H168489   3.975   5.749   5.702 -0.3245  0.6766  0.7967
15666TIP3    H268490   4.101   5.775   5.781  0.1422  1.2285 -0.1136
15667TIP3   OH268491   2.054   4.744  16.770 -0.0598 -0.0352  0.2288
15667TIP3    H168492   2.138   4.769  16.810  1.0326  0.4810 -2.2377
15667TIP3    H268493   2.022   4.673  16.826  2.8862 -1.4649  0.2963
15668TIP3   OH268494   6.014   5.400  11.946 -0.9557  0.0862  0.6008
15668TIP3    H168495   5.923   5.375  11.936 -0.8540 -1.0063  2.0502
15668TIP3    H268496   6.012   5.478  12.001 -1.0791  1.2234 -0.9459
15669TIP3   OH268497   3.107   3.014   2.302 -0.0524  0.0520  0.3576
15669TIP3    H168498   3.174   3.017   2.371  1.3067 -0.9158 -0.8401
15669TIP3    H268499   3.102   3.103   2.269 -0.6933  0.5219  1.6377
15670TIP3   OH268500   0.444   0.186   0.516  0.4650  0.2547 -0.5212
15670TIP3    H168501   0.356   0.155   0.537  0.4722  0.7315  0.2548
15670TIP3    H268502   0.441   0.280   0.536  0.2892  0.9322 -3.2346
15671TIP3   OH268503   5.238   0.490  11.874  0.2262  0.7024  0.0870
15671TIP3    H168504   5.280   0.405  11.884 -3.2093 -0.9703  2.0033
15671TIP3    H268505   5.251   0.534  11.959 -0.4716  0.8345  0.1325
15672TIP3   OH268506   3.557   0.306   3.455  0.4222 -0.2121  0.8160
15672TIP3    H168507   3.522   0.225   3.493 -1.7685  0.5765  0.6173
15672TIP3    H268508   3.505   0.376   3.496  0.3014  0.8930 -1.0933
15673TIP3   OH268509   4.914   4.652  14.605  0.2107 -0.4879 -0.1798
15673TIP3    H168510   4.995   4.601  14.600  0.3603 -0.2198 -0.4866
15673TIP3    H268511   4.920   4.698  14.689  1.1780  0.8641 -0.9500
15674TIP3   OH268512   4.397   4.419   4.168  0.4618  0.2526  0.6570
15674TIP3    H168513   4.373   4.388   4.255 -0.0833 -1.5419 -0.0744
15674TIP3    H268514   4.316   4.412   4.117  1.1269 -0.2188 -0.3686
15675TIP3   OH268515   0.228   6.637  10.909  0.2883  0.8661  0.0887
15675TIP3    H168516   0.258   6.551  10.939 -0.8713 -0.5702 -2.5229
15675TIP3    H268517   0.135   6.625  10.892  0.0993  2.6721 -0.3752
15676TIP3   OH268518   4.653   2.874  15.322  0.0450  0.3974  0.2335
15676TIP3    H168519   4.650   2.969  15.322  0.4034  0.4181 -0.7876
15676TIP3    H268520   4.746   2.852  15.317 -0.1053  0.0471 -2.3020
15677TIP3   OH268521   2.006   2.587  14.274 -0.0389  0.4522  0.8068
15677TIP3    H168522   2.025   2.586  14.180  2.2993  0.0207  1.2198
15677TIP3    H268523   1.971   2.674  14.291 -3.5166 -0.4173 -0.9030
15678TIP3   OH268524   0.621   3.963  11.361 -0.1428  0.1619 -0.2249
15678TIP3    H168525   0.550   4.010  11.316 -0.7164  1.0507  1.5051
15678TIP3    H268526   0.699   4.014  11.340 -0.1152 -0.3329 -1.4427
15679TIP3   OH268527   1.710   4.216   5.833  0.0564 -0.4844 -0.0949
15679TIP3    H168528   1.729   4.127   5.805  0.2144 -0.9025  1.2618
15679TIP3    H268529   1.623   4.234   5.798  0.0802 -1.1245 -0.4928
15680TIP3   OH268530   2.501   4.873   5.122 -0.0009 -0.0754 -0.1575
15680TIP3    H168531   2.410   4.852   5.140 -0.3563  0.8051 -0.8724
15680TIP3    H268532   2.548   4.846   5.200 -1.2297  1.8696  1.3419
15681TIP3   OH268533   1.326   6.775  17.007  0.3665 -0.0247  0.4023
15681TIP3    H168534   1.288   6.824  16.934  0.7850  1.7913  1.3397
15681TIP3    H268535   1.348   6.842  17.071  1.0888 -1.4671  1.7130
15682TIP3   OH268536   5.765   1.870  17.009 -0.1700  0.2358 -0.5443
15682TIP3    H168537   5.753   1.776  17.024 -1.6185  0.4175 -0.4113
15682TIP3    H268538   5.684   1.910  17.041  0.4683  1.5507 -0.4948
15683TIP3   OH268539   4.612   1.905   4.612  0.3135 -0.2221  0.2465
15683TIP3    H168540   4.690   1.911   4.558 -0.5562 -0.1884 -1.0397
15683TIP3    H268541   4.559   1.981   4.587  0.4624  0.5645  2.1197
15684TIP3   OH268542   1.506   1.385   6.173 -0.5159 -0.1285 -0.0232
15684TIP3    H168543   1.547   1.302   6.148 -1.0008 -0.9376  1.7178
15684TIP3    H268544   1.445   1.362   6.242 -2.4216  1.3600 -1.1216
15685TIP3   OH268545   2.667   0.176  13.307  0.0143 -0.5081 -0.1681
15685TIP3    H168546   2.582   0.136  13.288  0.1018 -0.4931 -0.6077
15685TIP3    H268547   2.717   0.164  13.226  0.3553 -0.3219  0.0140
15686TIP3   OH268548   4.907   3.844  14.224 -0.0089 -0.0059 -0.4567
15686TIP3    H168549   4.833   3.787  14.203  0.4677 -0.9111  0.2917
15686TIP3    H268550   4.870   3.933  14.217 -0.5145 -0.3231 -2.5177
15687TIP3   OH268551   5.899   6.488   3.113  0.6685  0.0329  0.2906
15687TIP3    H168552   5.818   6.507   3.065 -0.3627 -1.4524  1.3053
15687TIP3    H268553   5.966   6.540   3.071 -0.6230  0.4770 -1.3027
15688TIP3   OH268554   5.096   6.260  16.179  0.6307  0.4164 -0.7235
15688TIP3    H168555   5.169   6.268  16.240  0.7162 -0.1794 -0.7414
15688TIP3    H268556   5.136   6.231  16.096  0.1455 -2.6209 -0.0347
15689TIP3   OH268557   4.312   0.243  13.365 -0.2324  0.0233 -0.0822
15689TIP3    H168558   4.290   0.291  13.444 -2.0221 -1.1794  0.1928
15689TIP3    H268559   4.405   0.223  13.375 -0.3744  0.0817  1.6071
15690TIP3   OH268560   5.210   5.366  12.264 -0.0130 -0.4756 -0.2640
15690TIP3    H168561   5.295   5.330  12.289  0.8328 -0.0569 -2.3555
15690TIP3    H268562   5.199   5.442  12.321  1.1574 -0.3496 -0.1746
15691TIP3   OH268563   0.061   0.908   3.113 -0.1879  0.4527 -0.0595
15691TIP3    H168564   0.063   0.909   3.018 -1.3953  0.7017 -0.1006
15691TIP3    H268565   0.143   0.949   3.140  0.1274  0.4411 -0.9894
15692TIP3   OH268566   3.702   4.305   2.946 -0.4132  0.1322 -0.7466
15692TIP3    H168567   3.676   4.275   3.034  1.1136  0.7660 -0.0350
15692TIP3    H268568   3.720   4.398   2.957 -1.9746  0.6493 -2.1928
15693TIP3   OH268569   3.195   2.137  10.436 -0.3197 -0.0719 -0.1999
15693TIP3    H168570   3.170   2.053  10.398 -0.1660 -0.1419 -0.1501
15693TIP3    H268571   3.290   2.130  10.448 -0.2591  0.2253 -0.4867
15694TIP3   OH268572   2.533   5.251  13.802 -0.4795 -0.3063  0.1768
15694TIP3    H168573   2.479   5.180  13.766 -3.5253  2.0960 -0.3905
15694TIP3    H268574   2.526   5.241  13.897 -1.1470 -0.5852  0.1044
15695TIP3   OH268575   0.244   5.238  13.035 -0.3200  0.2295  0.3629
15695TIP3    H168576   0.256   5.237  12.940 -0.8953 -1.5982  0.2748
15695TIP3    H268577   0.268   5.150  13.063 -0.3712  0.6810  1.8961
15696TIP3   OH268578   4.251   0.267  11.629  0.7263  0.1622 -0.1297
15696TIP3    H168579   4.285   0.335  11.687  0.3158  0.4362 -0.2028
15696TIP3    H268580   4.158   0.289  11.617 -0.4205 -2.3967  2.7155
15697TIP3   OH268581   4.710   2.152  12.818 -0.7677 -0.0670  0.1479
15697TIP3    H168582   4.648   2.194  12.758 -0.5211  1.0946  0.6771
15697TIP3    H268583   4.655   2.096  12.873 -1.3843  0.9263  0.5880
15698TIP3   OH268584   0.850   3.302  12.960 -0.2688 -0.6205  0.0061
15698TIP3    H168585   0.789   3.280  13.030 -0.9608  0.4703 -0.2294
15698TIP3    H268586   0.831   3.394  12.939  1.4204 -0.2588 -0.1031
15699TIP3   OH268587   5.903   6.328   0.231 -0.2201 -0.1358 -0.1195
15699TIP3    H168588   5.993   6.333   0.200 -0.4168  0.6567 -0.5825
15699TIP3    H268589   5.888   6.413   0.274 -1.3091  0.4767 -1.6309
15700TIP3   OH268590   5.402   6.401  14.360  0.1172 -0.3268 -0.1716
15700TIP3    H168591   5.479   6.457  14.351  0.5139 -0.7875  0.2657
15700TIP3    H268592   5.373   6.386  14.270  1.2614 -1.1105 -0.4360
15701TIP3   OH268593   3.549   4.384  13.484  0.1423  0.5434 -0.6949
15701TIP3    H168594   3.622   4.323  13.493  0.1873  0.7315  0.3569
15701TIP3    H268595   3.585   4.468  13.513 -1.4169 -0.0444  3.6120
15702TIP3   OH268596   2.664   6.527   5.147  0.3247  0.3532 -0.3923
15702TIP3    H168597   2.640   6.515   5.238 -1.2586  0.3279 -0.7835
15702TIP3    H268598   2.597   6.585   5.111  0.4250 -0.3063 -1.7380
15703TIP3   OH268599   5.873   4.691   0.575  0.4238  0.0392 -0.1102
15703TIP3    H168600   5.912   4.767   0.532  0.4657 -0.2600 -0.6112
15703TIP3    H268601   5.935   4.668   0.644  0.8353 -0.0615 -0.5080
15704TIP3   OH268602   3.129   4.764  13.128 -0.1525  0.3444  0.0490
15704TIP3    H168603   3.198   4.703  13.155  0.5758 -0.1447 -2.6124
15704TIP3    H268604   3.132   4.834  13.194  0.4577 -1.3737  1.9749
15705TIP3   OH268605   6.474   2.857   1.243  0.9154  0.1375  0.4786
15705TIP3    H168606   6.510   2.819   1.163  1.7529 -2.3545  1.9479
15705TIP3    H268607   6.379   2.859   1.228  0.8296 -2.4818  0.2075
15706TIP3   OH268608   0.207   5.612  16.849 -0.0308  0.5411 -0.2992
15706TIP3    H168609   0.154   5.692  16.859  2.2355  2.2857 -1.3348
15706TIP3    H268610   0.295   5.644  16.832  1.6839 -2.1953  2.4045
15707TIP3   OH268611   4.449   4.295   5.077 -0.1164 -0.2089 -0.3975
15707TIP3    H168612   4.449   4.389   5.059 -1.0377 -0.4319 -1.7002
15707TIP3    H268613   4.541   4.271   5.080  0.1167  0.3746 -2.1471
15708TIP3   OH268614   3.312   5.334  15.306 -0.2034  0.5705 -0.1314
15708TIP3    H168615   3.313   5.249  15.351 -0.5883  0.3137 -0.5990
15708TIP3    H268616   3.385   5.329  15.244 -1.8154 -0.5030 -2.0909
15709TIP3   OH268617   4.247   3.109   3.212  0.0109 -0.0575 -0.1318
15709TIP3    H168618   4.300   3.029   3.215  1.1062  0.6893  1.4591
15709TIP3    H268619   4.257   3.141   3.122  2.7955  0.3721  0.2674
15710TIP3   OH268620   2.213   5.730  12.697 -0.1445  0.2486  0.3672
15710TIP3    H168621   2.289   5.709  12.643  0.5898 -2.1772  2.1489
15710TIP3    H268622   2.245   5.726  12.787 -1.5773  3.0255  1.1130
15711TIP3   OH268623   1.545   2.800  12.639  0.0735 -0.1006  0.2901
15711TIP3    H168624   1.637   2.816  12.615  0.3472 -1.4455  0.3715
15711TIP3    H268625   1.497   2.809  12.557 -0.4441  4.9605  0.8613
15712TIP3   OH268626   1.360   2.522   2.056 -0.8856  0.1706  0.1270
15712TIP3    H168627   1.394   2.463   1.988  0.5281  1.3333 -0.2173
15712TIP3    H268628   1.265   2.510   2.052 -0.6783 -1.6204 -0.3349
15713TIP3   OH268629   3.668   2.235   1.487  0.2345  0.4592 -0.4842
15713TIP3    H168630   3.707   2.171   1.546  2.2201  1.1591 -0.9673
15713TIP3    H268631   3.687   2.320   1.527 -1.4968  0.8322 -0.3595
15714TIP3   OH268632   5.070   1.768  12.055 -0.4452 -0.0726 -0.0825
15714TIP3    H168633   5.134   1.829  12.018 -1.5126 -0.0742 -2.0979
15714TIP3    H268634   5.122   1.699  12.095  0.7894  0.6969 -0.3303
15715TIP3   OH268635   2.712   3.262   0.624  0.1972 -0.1665 -0.2861
15715TIP3    H168636   2.650   3.189   0.629 -0.2122  0.2302  0.4407
15715TIP3    H268637   2.676   3.319   0.556  0.1906 -0.3382 -0.4270
15716TIP3   OH268638   0.918   2.678  14.035 -0.0358 -0.0428 -0.2063
15716TIP3    H168639   0.969   2.678  13.954 -0.0544  0.1187 -0.2182
15716TIP3    H268640   0.910   2.771  14.058  1.5484 -0.1431  0.9741
15717TIP3   OH268641   4.374   1.479   5.831  0.1301  0.3817 -1.1448
15717TIP3    H168642   4.338   1.391   5.844 -1.1070  0.9441 -0.5943
15717TIP3    H268643   4.461   1.476   5.871 -0.6019 -0.1077  0.4747
15718TIP3   OH268644   0.074   5.704   3.926  0.6144 -0.1544 -0.9046
15718TIP3    H168645   0.065   5.707   4.021 -0.6825  0.8790 -1.0370
15718TIP3    H268646   0.168   5.711   3.911  0.8962 -1.0067  0.3032
15719TIP3   OH268647   2.145   3.763   6.926 -0.2415  0.1119  0.1787
15719TIP3    H168648   2.082   3.832   6.947  0.5871  0.7686  0.5717
15719TIP3    H268649   2.177   3.786   6.838 -1.4271 -0.9029 -0.5430
15720TIP3   OH268650   5.058   0.261   4.611  0.2900  0.3684 -0.3437
15720TIP3    H168651   5.066   0.322   4.537 -2.3754  1.6122  0.2877
15720TIP3    H268652   5.143   0.265   4.654  0.8859  2.0234 -1.5527
15721TIP3   OH268653   1.144   1.545   1.099 -0.6151 -0.9612  0.2979
15721TIP3    H168654   1.060   1.508   1.073 -1.9778  0.7477  1.9922
15721TIP3    H268655   1.122   1.625   1.146  2.0688  1.1435 -1.6622
15722TIP3   OH268656   2.441   4.033  11.098 -0.7524  0.1742 -0.3345
15722TIP3    H168657   2.443   4.119  11.139 -0.0936 -0.7673  1.7391
15722TIP3    H268658   2.531   4.000  11.106 -0.7255 -0.3109 -2.0706
15723TIP3   OH268659   1.421   4.692   2.247  0.1685  0.3225  0.1505
15723TIP3    H168660   1.472   4.625   2.292  0.9260 -1.1405 -2.6472
15723TIP3    H268661   1.357   4.721   2.312  0.4017 -2.4564  1.7830
15724TIP3   OH268662   0.668   2.336  14.004 -0.7538 -0.6098  0.4756
15724TIP3    H168663   0.584   2.377  13.985  0.4462  1.3987 -0.8272
15724TIP3    H268664   0.667   2.254  13.954 -1.0881  0.4719 -1.3727
15725TIP3   OH268665   4.215   1.792   3.785  0.3079  0.5540 -0.6834
15725TIP3    H168666   4.209   1.806   3.880  1.1363  0.9275 -0.6778
15725TIP3    H268667   4.124   1.793   3.755  0.0535  0.7012  0.0726
15726TIP3   OH268668   6.812   4.300  15.272  0.5875 -0.2134  0.1265
15726TIP3    H168669   6.746   4.237  15.302  0.8846 -0.2352  0.7630
15726TIP3    H268670   6.892   4.248  15.262  0.8568  0.0679  0.7442
15727TIP3   OH268671   1.580   4.506   2.350 -0.3698  0.5453 -0.3238
15727TIP3    H168672   1.574   4.440   2.280  0.1443  0.4396 -0.2725
15727TIP3    H268673   1.660   4.484   2.397  1.0235  2.5016 -1.6408
15728TIP3   OH268674   6.499   2.886  14.676  0.6842  0.1349 -0.2182
15728TIP3    H168675   6.538   2.819  14.619  1.3176  0.0906  0.2532
15728TIP3    H268676   6.526   2.969  14.638 -0.8829  0.1689 -1.3519
15729TIP3   OH268677   5.915   5.128  11.188  0.4001 -0.4750  0.4627
15729TIP3    H168678   5.944   5.209  11.146  1.0598 -1.4716 -1.0954
15729TIP3    H268679   5.824   5.145  11.212 -0.5883 -0.2798 -2.8345
15730TIP3   OH268680   3.957   4.974   2.253 -0.6050 -0.5864 -0.4669
15730TIP3    H168681   3.956   4.888   2.296 -0.8873  0.0374  0.7857
15730TIP3    H268682   3.882   4.972   2.194 -0.0559 -1.5503 -1.1705
15731TIP3   OH268683   0.654   3.952   3.509 -0.3257 -0.2611 -0.3188
15731TIP3    H168684   0.563   3.951   3.537 -0.4243 -1.1531 -0.6648
15731TIP3    H268685   0.653   3.918   3.420  0.7832 -4.4584  1.0693
15732TIP3   OH268686   1.901   5.645   4.178 -0.4599  0.4256 -0.3553
15732TIP3    H168687   1.947   5.614   4.256 -0.4468  1.4606  0.0699
15732TIP3    H268688   1.808   5.642   4.203 -0.4174  1.3738 -0.0540
15733TIP3   OH268689   0.725   6.542   5.799  0.2306 -0.3651  0.1057
15733TIP3    H168690   0.633   6.520   5.813  0.1567  0.6536  1.5708
15733TIP3    H268691   0.730   6.567   5.707 -0.4155 -2.7298 -0.6446
15734TIP3   OH268692   3.379   2.460  12.825 -0.2094  0.0797 -0.7802
15734TIP3    H168693   3.311   2.430  12.884  1.0929  1.5659  1.6450
15734TIP3    H268694   3.444   2.390  12.826 -0.8966 -0.5961 -1.7668
15735TIP3   OH268695   1.897   3.655  12.246 -0.3326 -0.1398  0.1667
15735TIP3    H168696   1.860   3.734  12.207 -4.0831 -1.3848  0.7067
15735TIP3    H268697   1.894   3.590  12.176  1.9371 -0.1029 -0.0376
15736TIP3   OH268698   5.882   5.756  13.981  0.0603  0.0234  0.2929
15736TIP3    H168699   5.975   5.734  13.981 -0.0127 -0.2805  0.5711
15736TIP3    H268700   5.853   5.733  13.893  1.0451  3.5371 -1.1454
15737TIP3   OH268701   0.543   0.833   0.988 -0.0561 -0.0255  0.0739
15737TIP3    H168702   0.610   0.834   1.057 -0.8990 -2.5193  1.0079
15737TIP3    H268703   0.498   0.917   0.998 -0.2947 -0.3822  2.7647
15738TIP3   OH268704   3.256   2.102   2.562  0.1795 -0.0377 -0.2439
15738TIP3    H168705   3.202   2.150   2.624 -0.7409  0.5912 -1.4764
15738TIP3    H268706   3.339   2.151   2.560 -0.1409  0.5199 -0.2219
15739TIP3   OH268707   5.413   2.736   0.705 -0.9982 -0.1667 -0.0646
15739TIP3    H168708   5.342   2.756   0.766 -0.9436  0.5783 -0.2367
15739TIP3    H268709   5.449   2.821   0.682  0.7843 -0.5969  0.9933
15740TIP3   OH268710   1.827   3.918  12.143 -0.2458  0.1055  0.1525
15740TIP3    H168711   1.793   3.964  12.065 -0.2881 -1.3412 -0.7111
15740TIP3    H268712   1.921   3.934  12.141  0.0245 -1.4130 -1.2621
15741TIP3   OH268713   0.050   5.690  15.898 -0.1578  0.0824 -0.5287
15741TIP3    H168714   0.002   5.766  15.932 -1.4027 -1.3934  1.2114
15741TIP3    H268715  -0.007   5.616  15.917  1.3393 -1.3843 -1.5439
15742TIP3   OH268716   6.753   6.440  11.314 -0.0566 -0.5608  0.4768
15742TIP3    H168717   6.796   6.458  11.230  1.3112 -3.8392  0.2967
15742TIP3    H268718   6.773   6.515  11.369  1.4129  0.3967 -1.2648
15743TIP3   OH268719   5.982   6.069   1.969 -0.0205  0.1202 -0.3135
15743TIP3    H168720   5.928   6.133   1.923  1.6692  2.3169  0.5714
15743TIP3    H268721   5.998   6.000   1.904 -1.1848  0.9865 -1.5858
15744TIP3   OH268722   3.917   1.149  16.911 -0.3608  0.2601 -0.4255
15744TIP3    H168723   3.976   1.075  16.896  0.0087  0.4865 -0.1199
15744TIP3    H268724   3.904   1.188  16.825 -0.2150  0.0954 -0.5221
15745TIP3   OH268725   5.278   4.957  16.697 -0.2878 -0.6368  0.1077
15745TIP3    H168726   5.193   4.913  16.708 -2.9823  3.1758 -2.5252
15745TIP3    H268727   5.295   4.952  16.603  2.8612 -1.7419  0.6244
15746TIP3   OH268728   0.752   1.771   6.461  0.4371  0.0504  0.1557
15746TIP3    H168729   0.707   1.759   6.378 -0.0297 -0.5700  0.4967
15746TIP3    H268730   0.844   1.783   6.437  0.4871 -1.2780 -0.3847
15747TIP3   OH268731   5.860   6.430   1.221 -0.1154  0.1090 -0.2555
15747TIP3    H168732   5.847   6.381   1.140 -0.9231 -1.1083  0.5760
15747TIP3    H268733   5.952   6.415   1.244 -0.0655 -0.1052 -0.5845
15748TIP3   OH268734   5.056   2.131  16.995 -0.2407 -0.2831  0.5185
15748TIP3    H168735   5.136   2.154  17.043 -0.7841  2.6452  0.1712
15748TIP3    H268736   4.990   2.118  17.064 -0.5763  2.1039  0.7231
15749TIP3   OH268737   3.972   0.336   3.050  0.4441  0.1640 -0.2341
15749TIP3    H168738   3.897   0.392   3.031 -0.5286 -0.4967  1.4738
15749TIP3    H268739   3.966   0.266   2.986 -0.3812  0.1336 -0.1346
15750TIP3   OH268740   2.123   3.595  16.011 -0.3941  0.3325  0.6593
15750TIP3    H168741   2.151   3.642  15.932 -0.2711  1.6250  1.4515
15750TIP3    H268742   2.030   3.577  15.997 -0.6326  1.4952  0.6535
15751TIP3   OH268743   2.914   6.254   0.730 -0.0361 -0.6442 -0.3316
15751TIP3    H168744   2.913   6.341   0.691 -1.0473 -0.1286  0.7837
15751TIP3    H268745   2.995   6.251   0.781 -0.8155  0.3323  1.0410
15752TIP3   OH268746   4.599   6.287   2.990 -0.0741 -0.0601 -0.2932
15752TIP3    H168747   4.668   6.224   2.970  0.2931  0.7211 -1.5606
15752TIP3    H268748   4.627   6.368   2.948 -2.4851 -0.1084 -2.1750
15753TIP3   OH268749   6.464   4.016   5.476 -0.4617  0.5224 -0.5452
15753TIP3    H168750   6.526   3.946   5.495 -0.4195  0.5489 -0.5830
15753TIP3    H268751   6.392   3.974   5.430 -0.9275  0.3200  0.3472
15754TIP3   OH268752   3.157   2.235   2.175  0.2333  0.1997 -0.9569
15754TIP3    H168753   3.067   2.265   2.163  0.1421  0.4123  0.1971
15754TIP3    H268754   3.196   2.297   2.237  0.6485 -0.8883 -0.1020
15755TIP3   OH268755   1.480   5.408   5.058  0.0889  0.0057  0.3177
15755TIP3    H168756   1.550   5.462   5.093  0.0220 -0.9138  1.9657
15755TIP3    H268757   1.493   5.322   5.098 -1.1637 -0.5688 -0.4189
15756TIP3   OH268758   5.269   1.155  14.143 -0.8722 -0.5106 -0.3196
15756TIP3    H168759   5.315   1.143  14.226  0.3621  0.4298 -0.8390
15756TIP3    H268760   5.307   1.234  14.105 -2.2580 -0.2350 -1.2387
15757TIP3   OH268761   3.651   2.028   3.835  0.2306  0.5729 -0.0322
15757TIP3    H168762   3.731   2.048   3.785  0.7434 -2.6098 -0.6728
15757TIP3    H268763   3.589   1.997   3.769  0.6980 -3.0889  1.0421
15758TIP3   OH268764   4.343   1.997   5.416  0.0774  0.1572  0.1761
15758TIP3    H168765   4.261   2.039   5.443  0.5317  1.2015 -0.0031
15758TIP3    H268766   4.324   1.960   5.330  0.2891  2.0499 -0.7483
15759TIP3   OH268767   4.233   4.813   1.810 -0.6404  0.1641 -0.1676
15759TIP3    H168768   4.279   4.889   1.845  1.0814 -0.7540 -0.3215
15759TIP3    H268769   4.188   4.775   1.885 -1.3900  1.2240 -0.0615
15760TIP3   OH268770   4.397   4.134   2.373 -0.4168 -0.0939  0.2287
15760TIP3    H168771   4.444   4.051   2.374 -0.2401 -0.0518 -1.3445
15760TIP3    H268772   4.343   4.133   2.452  0.5841 -1.0987  0.9274
15761TIP3   OH268773   4.416   4.382   2.970  0.2595  0.0852 -0.0900
15761TIP3    H168774   4.443   4.378   2.878  1.8411  0.5710  0.3333
15761TIP3    H268775   4.485   4.431   3.014  0.2102 -1.2785  1.6140
15762TIP3   OH268776   5.025   1.982  11.027  0.3339  0.5750  0.2485
15762TIP3    H168777   5.096   1.940  10.979 -0.3685 -1.9144  1.2145
15762TIP3    H268778   4.948   1.972  10.971  0.1089  0.3102  0.5970
15763TIP3   OH268779   5.483   3.311   4.114 -0.1808  0.1758  0.0593
15763TIP3    H168780   5.479   3.270   4.201 -1.8721 -1.5241 -0.7444
15763TIP3    H268781   5.446   3.398   4.128 -0.3764 -0.0464  1.0581
15764TIP3   OH268782   3.045   4.696  15.681  0.1684 -0.0911  0.5064
15764TIP3    H168783   3.089   4.690  15.766  0.7876  1.3049  0.3108
15764TIP3    H268784   3.103   4.649  15.621 -0.3442 -1.2113  0.8636
15765TIP3   OH268785   0.006   1.454   4.911  0.6222 -0.1854  0.3339
15765TIP3    H168786  -0.032   1.440   4.997 -1.2309 -1.5863 -0.6358
15765TIP3    H268787   0.097   1.474   4.928 -0.0730  1.3508  2.6985
15766TIP3   OH268788   4.448   6.264  12.710 -0.8758 -0.4304 -0.0235
15766TIP3    H168789   4.499   6.291  12.787 -1.0816  0.1481 -0.0832
15766TIP3    H268790   4.483   6.178  12.687  1.6841  0.8623 -1.4274
15767TIP3   OH268791   2.660   5.527   5.237 -0.2790  0.0036  0.8569
15767TIP3    H168792   2.740   5.482   5.263 -0.6935 -1.6494 -0.5838
15767TIP3    H268793   2.670   5.615   5.273  1.5288 -0.5820  1.9221
15768TIP3   OH268794   5.462   5.498  14.023  0.4061  0.4172 -0.2322
15768TIP3    H168795   5.445   5.431  13.958  1.7307 -1.4260  1.2132
15768TIP3    H268796   5.557   5.508  14.024  0.3544  0.9865  0.8567
15769TIP3   OH268797   4.876   6.230  11.870  0.7513  0.1867 -0.1467
15769TIP3    H168798   4.883   6.322  11.843  1.3362  0.7158  1.6799
15769TIP3    H268799   4.915   6.227  11.957  0.7516 -1.8137 -0.1658
15770TIP3   OH268800   3.852   4.671   3.641 -0.3736  0.2660 -0.4518
15770TIP3    H168801   3.924   4.644   3.699  1.9755  0.2107 -3.1647
15770TIP3    H268802   3.863   4.765   3.631 -1.9699  0.6109  0.5968
15771TIP3   OH268803   5.704   0.231   3.463 -0.0915 -0.0535 -0.2446
15771TIP3    H168804   5.676   0.322   3.448  1.5219  0.4712 -0.2358
15771TIP3    H268805   5.751   0.235   3.546  2.1132 -0.3879 -1.4120
15772TIP3   OH268806   2.909   4.898   4.844  0.0701 -0.1985 -0.4938
15772TIP3    H168807   2.921   4.992   4.856 -2.5207  0.2790 -1.0857
15772TIP3    H268808   2.814   4.886   4.838  0.3209 -2.8630 -0.4297
15773TIP3   OH268809   3.465   4.096  11.707 -0.1961  0.2574 -0.5971
15773TIP3    H168810   3.558   4.078  11.693 -0.1696  1.1568 -1.7372
15773TIP3    H268811   3.463   4.182  11.748 -0.5429  0.6748 -1.4671
15774TIP3   OH268812   0.807   6.322  12.741 -0.1712  0.0791 -0.0208
15774TIP3    H168813   0.844   6.308  12.654 -0.6846  2.1443 -0.6247
15774TIP3    H268814   0.729   6.374  12.726 -1.2138 -0.9323  1.5647
15775TIP3   OH268815   0.391   0.357   1.508  0.2222  0.2818  0.2243
15775TIP3    H168816   0.440   0.275   1.508 -1.9257 -1.1924 -2.5118
15775TIP3    H268817   0.413   0.399   1.424 -2.2765  0.0142 -0.6825
15776TIP3   OH268818   3.945   0.968   1.392 -0.7396  0.2043  0.0684
15776TIP3    H168819   3.899   1.022   1.328 -1.1202  1.3094  1.2448
15776TIP3    H268820   3.908   0.994   1.477  0.3773 -0.5869  0.8213
15777TIP3   OH268821   3.169   0.946  14.145  0.0467  0.2770  0.0832
15777TIP3    H168822   3.187   0.889  14.220 -1.1818  0.6433  0.6818
15777TIP3    H268823   3.146   1.030  14.184 -0.5438  0.4931 -0.7005
15778TIP3   OH268824   3.858   5.277   4.190 -0.7158  0.0688 -0.2574
15778TIP3    H168825   3.829   5.282   4.099  0.3802  3.5948 -0.5952
15778TIP3    H268826   3.813   5.349   4.234  1.0284  0.3501  1.2219
15779TIP3   OH268827   2.295   4.121  10.681 -0.3259  0.2667  0.0488
15779TIP3    H168828   2.285   4.081  10.595  0.2235  0.7071 -0.2230
15779TIP3    H268829   2.286   4.047  10.742  2.2770 -0.6073 -0.4990
15780TIP3   OH268830   1.732   3.907  10.414 -0.1853 -0.6951  0.3253
15780TIP3    H168831   1.720   3.930  10.322  1.0609  0.3589  0.3826
15780TIP3    H268832   1.705   3.816  10.420 -0.9298 -0.5859 -0.9406
15781TIP3   OH268833   3.913   5.892   3.072  0.5247  0.1750 -0.1008
15781TIP3    H168834   3.829   5.931   3.048 -0.0746 -0.4753  0.8695
15781TIP3    H268835   3.969   5.906   2.995 -1.2661 -1.7582 -1.8802
15782TIP3   OH268836   2.147   0.699   3.232  0.2076 -0.0346 -0.2582
15782TIP3    H168837   2.151   0.603   3.225  0.0217  0.0234 -1.3188
15782TIP3    H268838   2.095   0.715   3.311 -1.1548 -0.8235 -0.9561
15783TIP3   OH268839   0.525   6.047  12.334  0.4386 -0.1281 -0.1018
15783TIP3    H168840   0.464   6.057  12.261  2.9063  2.4227 -2.0468
15783TIP3    H268841   0.600   6.001  12.296  1.5868  0.8212  0.9363
15784TIP3   OH268842   5.079   2.102   3.279 -0.6055  0.6365 -0.4680
15784TIP3    H168843   5.109   2.176   3.226 -0.6082  0.1123 -1.2149
15784TIP3    H268844   4.985   2.097   3.261 -0.4307 -0.1802 -1.2419
15785TIP3   OH268845   2.802   3.747   4.702 -0.2534 -0.1419  0.3931
15785TIP3    H168846   2.889   3.753   4.742 -0.2974  0.0494  0.4607
15785TIP3    H268847   2.766   3.835   4.709 -0.2537 -0.0994 -0.0905
15786TIP3   OH268848   4.573   3.842  14.644 -0.2885 -0.3285  0.2946
15786TIP3    H168849   4.528   3.840  14.728  0.1265  0.3667  0.5420
15786TIP3    H268850   4.530   3.775  14.592 -1.2932  0.0017  0.6817
15787TIP3   OH268851   2.974   0.285   4.067 -0.0366  0.5526  0.4599
15787TIP3    H168852   2.948   0.334   3.989  1.0343  0.0288 -0.2611
15787TIP3    H268853   3.036   0.220   4.034 -0.6115 -0.5953  1.5476
15788TIP3   OH268854   4.280   3.493  16.864 -0.7966 -0.4386  0.0702
15788TIP3    H168855   4.214   3.551  16.902  0.4943 -0.1058  1.9045
15788TIP3    H268856   4.323   3.452  16.939 -0.1140 -2.0292 -1.1269
15789TIP3   OH268857   4.928   3.199   5.370 -0.2224  0.2136 -0.0854
15789TIP3    H168858   4.954   3.214   5.461  1.3645 -1.7583 -0.1414
15789TIP3    H268859   4.996   3.242   5.318 -0.3903  0.2135 -0.3043
15790TIP3   OH268860   1.941   3.167   4.470 -0.4192 -0.1878  0.2759
15790TIP3    H168861   2.021   3.129   4.507 -0.9288 -0.7113  0.8778
15790TIP3    H268862   1.956   3.168   4.375  0.1034 -0.7499  0.3462
15791TIP3   OH268863   5.066   2.922  13.662 -0.0937  0.2254  0.3777
15791TIP3    H168864   5.064   2.922  13.758  0.1304  2.8433  0.4517
15791TIP3    H268865   5.051   3.013  13.638  2.4008  0.1503 -2.0036
15792TIP3   OH268866   4.827   5.545  14.678 -0.0961 -0.6417  0.6968
15792TIP3    H168867   4.822   5.551  14.773 -0.7755  0.8555  0.5955
15792TIP3    H268868   4.863   5.629  14.650  0.0291 -1.0285 -0.3756
15793TIP3   OH268869   0.524   2.416   2.041  0.1319 -0.1740  0.1195
15793TIP3    H168870   0.555   2.356   1.973 -1.6958  0.6223 -1.5171
15793TIP3    H268871   0.456   2.366   2.087  0.2417 -0.1516  0.3072
15794TIP3   OH268872   3.853   6.029  13.660  0.0869  0.3090 -0.2034
15794TIP3    H168873   3.872   5.938  13.684  1.2135  0.8592  1.1320
15794TIP3    H268874   3.914   6.048  13.589  1.2276  0.5744  0.8066
15795TIP3   OH268875   3.926   2.464  13.444 -0.6423  0.4811  1.1544
15795TIP3    H168876   3.987   2.537  13.448 -1.6286  1.4731 -0.5631
15795TIP3    H268877   3.968   2.400  13.386 -0.1239  0.0064  2.0360
15796TIP3   OH268878   6.478   0.816   6.088 -0.4201 -0.4164 -0.1646
15796TIP3    H168879   6.426   0.753   6.138  0.7946 -0.3370  1.3053
15796TIP3    H268880   6.415   0.882   6.059 -1.1404 -0.1366  1.8536
15797TIP3   OH268881   1.618   0.916   0.580  0.1024  0.0120  0.7901
15797TIP3    H168882   1.607   0.826   0.550 -1.6218 -0.0713  1.5452
15797TIP3    H268883   1.603   0.969   0.502 -1.1481 -0.3031  0.7934
15798TIP3   OH268884   1.218   2.959  13.051 -0.5536  1.1560 -0.1508
15798TIP3    H168885   1.166   2.928  12.977  2.0437 -2.9079 -0.5973
15798TIP3    H268886   1.286   3.013  13.010  0.6991 -0.8330 -0.8732
15799TIP3   OH268887   0.692   5.284  15.641 -0.3773 -0.6198  0.3010
15799TIP3    H168888   0.680   5.364  15.590  1.5302  0.9439  2.1061
15799TIP3    H268889   0.713   5.217  15.576  0.8627  1.0398 -1.1169
15800TIP3   OH268890   6.459   2.495  12.142 -0.0860 -0.2373  0.3516
15800TIP3    H168891   6.450   2.402  12.125 -2.6008 -0.0700  0.3182
15800TIP3    H268892   6.410   2.537  12.072  2.4472  1.2616 -0.6453
15801TIP3   OH268893   1.084   2.723   2.449 -0.2304 -0.3486 -0.2571
15801TIP3    H168894   1.090   2.781   2.525 -0.9782  1.1812 -1.3128
15801TIP3    H268895   1.085   2.782   2.373  1.0580 -1.8580 -1.4825
15802TIP3   OH268896   5.024   2.242   4.930  0.2905 -0.2674  0.6188
15802TIP3    H168897   5.067   2.158   4.947 -0.6854 -0.6423  1.3637
15802TIP3    H268898   4.933   2.228   4.957 -0.8998 -0.1892 -2.7812
15803TIP3   OH268899   1.417   0.630   4.259 -0.2229  0.4461 -0.5085
15803TIP3    H168900   1.480   0.583   4.204 -0.8878 -1.5551  0.3287
15803TIP3    H268901   1.467   0.653   4.338 -0.3102 -0.4634 -0.1708
15804TIP3   OH268902   2.491   1.692  11.157  0.0736  0.3777 -0.4451
15804TIP3    H168903   2.537   1.626  11.208  0.5802  0.2810 -1.0082
15804TIP3    H268904   2.560   1.738  11.109 -0.0048  2.7096  1.4617
15805TIP3   OH268905   3.277   2.226  13.586  0.5120  0.4580  0.1645
15805TIP3    H168906   3.229   2.144  13.568 -0.4490  0.9736  0.3112
15805TIP3    H268907   3.310   2.214  13.675  0.2449  0.2881  0.2448
15806TIP3   OH268908   6.816   5.806  15.623  0.4969 -0.0053  0.1327
15806TIP3    H168909   6.834   5.766  15.708 -0.1257 -0.6042 -0.0074
15806TIP3    H268910   6.893   5.859  15.605  0.2536  0.8710  1.5019
15807TIP3   OH268911   3.699   3.174   5.162  0.4443  0.2986 -0.0725
15807TIP3    H168912   3.794   3.166   5.159  0.4543  0.2037 -3.2882
15807TIP3    H268913   3.683   3.252   5.215  2.2144 -0.3055  1.4469
15808TIP3   OH268914   6.201   4.699  11.268  0.2907  0.5421 -0.4555
15808TIP3    H168915   6.244   4.763  11.324 -1.3709  0.3857  1.0898
15808TIP3    H268916   6.108   4.709  11.287 -0.2845 -0.0903 -2.6108
15809TIP3   OH268917   2.908   3.249   6.233  0.9500  0.0121  0.0384
15809TIP3    H168918   2.905   3.315   6.302  0.7507  0.4641 -0.3926
15809TIP3    H268919   2.963   3.179   6.268  1.5899  0.6429  0.2979
15810TIP3   OH268920   0.075   6.433  16.074  0.3653  0.2159 -0.1542
15810TIP3    H168921   0.107   6.348  16.044 -1.4510 -0.5628 -0.0421
15810TIP3    H268922   0.048   6.479  15.995  0.9055  0.5079 -0.1734
15811TIP3   OH268923   2.627   5.892   3.081  0.2416 -0.0967  0.4232
15811TIP3    H168924   2.539   5.930   3.087 -0.3876 -1.2428 -0.8480
15811TIP3    H268925   2.614   5.799   3.096  1.1117 -0.3944 -0.5535
15812TIP3   OH268926   3.488   5.740   1.024  0.0273 -0.0750  0.7877
15812TIP3    H168927   3.421   5.806   1.035  0.2426  0.1699  0.6372
15812TIP3    H268928   3.443   5.666   0.984 -0.0697  0.2321  0.3229
15813TIP3   OH268929   1.865   4.824  12.572  0.2976 -0.4553 -0.3868
15813TIP3    H168930   1.913   4.743  12.555  1.4110 -0.3039  1.6753
15813TIP3    H268931   1.923   4.894  12.542  0.6259 -0.3442  0.4620
15814TIP3   OH268932   1.716   3.592  11.072  0.0170  0.1295  0.1726
15814TIP3    H168933   1.661   3.517  11.047  1.9319 -1.4954  0.5226
15814TIP3    H268934   1.657   3.651  11.119 -1.3046 -1.8017  1.0792
15815TIP3   OH268935   2.592   4.137   0.625  0.3127  0.0550 -0.6466
15815TIP3    H168936   2.594   4.136   0.721 -1.8045 -3.5394 -0.4610
15815TIP3    H268937   2.684   4.135   0.599  0.9146  0.4523  1.3390
15816TIP3   OH268938   2.575   5.081   2.698  0.3408 -0.1861  0.8425
15816TIP3    H168939   2.599   5.093   2.606 -2.8155 -0.3015 -0.0909
15816TIP3    H268940   2.605   5.162   2.740 -0.1311  0.8927 -0.7656
15817TIP3   OH268941   1.033   2.366   1.120 -0.0392  0.0784  0.4607
15817TIP3    H168942   0.962   2.404   1.068 -0.5515 -0.1936  0.9565
15817TIP3    H268943   1.064   2.438   1.175  0.0658  0.1927  0.2551
15818TIP3   OH268944   0.693   0.723   6.200 -0.3545  0.0070 -0.5642
15818TIP3    H168945   0.610   0.705   6.244 -0.3393  0.2793 -0.4228
15818TIP3    H268946   0.756   0.738   6.271 -0.1994 -0.1362 -0.6709
15819TIP3   OH268947   1.861   2.775   6.186  0.4531  0.2311  0.1727
15819TIP3    H168948   1.820   2.761   6.101  0.4191  0.2992  0.1782
15819TIP3    H268949   1.806   2.725   6.247 -0.7957  1.8900  0.4878
15820TIP3   OH268950   2.385   0.271   5.942 -0.2043 -0.3252  0.8208
15820TIP3    H168951   2.304   0.312   5.973  0.3152  1.3686  0.0400
15820TIP3    H268952   2.375   0.266   5.847 -0.3209 -2.2472  0.8899
15821TIP3   OH268953   3.048   3.115  12.583  0.2278 -0.2855  0.3623
15821TIP3    H168954   3.098   3.196  12.580  0.6384 -0.5630 -1.5095
15821TIP3    H268955   3.040   3.088  12.491 -2.3781 -0.8518  0.6740
15822TIP3   OH268956   0.538   6.343   0.882 -0.5339  0.0981 -0.0620
15822TIP3    H168957   0.481   6.405   0.836 -0.0771  1.6867  1.3949
15822TIP3    H268958   0.500   6.335   0.969 -0.0678 -1.0038  0.0557
15823TIP3   OH268959   3.031   3.197  13.371  0.3942 -0.5608  0.0496
15823TIP3    H168960   3.038   3.160  13.283 -0.5885 -0.9213  0.1045
15823TIP3    H268961   3.019   3.291  13.357  0.1378 -0.6303 -0.2147
15824TIP3   OH268962   1.353   0.774  12.641  0.2216 -0.8047  0.3619
15824TIP3    H168963   1.289   0.808  12.578  0.5899 -1.1327 -0.2039
15824TIP3    H268964   1.303   0.757  12.720  0.0666  1.2700  0.7525
15825TIP3   OH268965   1.251   4.064  12.767  0.8650  0.1927 -0.4426
15825TIP3    H168966   1.270   4.046  12.859  0.8955  2.7373  0.1231
15825TIP3    H268967   1.335   4.051  12.723  1.2471  0.4681  0.1819
15826TIP3   OH268968   1.163   2.436  13.200 -0.0842  0.1926  0.9554
15826TIP3    H168969   1.208   2.387  13.132 -1.1267  0.2799  0.1884
15826TIP3    H268970   1.098   2.375  13.236  0.1560  0.2875  1.5773
15827TIP3   OH268971   2.600   5.497   5.550  0.3932  0.3290 -0.5935
15827TIP3    H168972   2.661   5.513   5.478  0.9981 -1.1173 -0.4336
15827TIP3    H268973   2.589   5.402   5.552 -0.7886  0.4615  0.2746
15828TIP3   OH268974   3.201   0.318   4.608 -0.0544  0.1476  0.1851
15828TIP3    H168975   3.293   0.294   4.596  0.6155  2.2243  0.6177
15828TIP3    H268976   3.164   0.313   4.520  0.4370 -0.8131  0.0196
15829TIP3   OH268977   2.637   2.060  14.730 -0.0122 -0.2444  0.6966
15829TIP3    H168978   2.574   2.123  14.764  1.7693  1.1944  1.5587
15829TIP3    H268979   2.658   2.091  14.642  0.4404  0.0505  0.9044
15830TIP3   OH268980   1.546   2.463   5.912 -0.3925  0.3318 -0.3382
15830TIP3    H168981   1.493   2.506   5.846 -0.5455  0.4235 -0.1572
15830TIP3    H268982   1.484   2.410   5.962  0.2450 -3.0780 -2.8349
15831TIP3   OH268983   4.473   1.306   6.113  0.2503 -0.1778 -0.4268
15831TIP3    H168984   4.458   1.220   6.074  1.3281 -0.1961 -0.8409
15831TIP3    H268985   4.565   1.304   6.140  0.4235  1.0282 -0.8869
15832TIP3   OH268986   2.725   3.491   4.685  0.5954 -0.1104  0.0139
15832TIP3    H168987   2.756   3.582   4.689  0.8058 -0.1392 -0.7514
15832TIP3    H268988   2.789   3.446   4.631 -0.2175 -0.4091 -0.7368
15833TIP3   OH268989   2.506   5.025   4.850 -0.3202 -0.5888  0.5737
15833TIP3    H168990   2.429   5.005   4.904 -0.5264 -0.6289  0.2707
15833TIP3    H268991   2.548   4.941   4.835  0.2671 -0.4561  1.4543
15834TIP3   OH268992   5.731   2.516   3.171  0.1211 -0.4208  0.3832
15834TIP3    H168993   5.730   2.606   3.205  2.9334  0.8008 -2.2314
15834TIP3    H268994   5.753   2.527   3.078  3.0001 -3.8873  0.4686
15835TIP3   OH268995   1.235   5.605  13.949  0.2416 -0.1014 -0.2272
15835TIP3    H168996   1.182   5.661  13.891  0.1724  0.6097  0.5098
15835TIP3    H268997   1.171   5.552  13.996  0.2333  0.0804 -0.0312
15836TIP3   OH268998   6.167   0.176  13.316 -0.3321 -0.2549 -0.2583
15836TIP3    H168999   6.101   0.121  13.275 -1.0473  0.2639  0.1806
15836TIP3    H269000   6.217   0.211  13.242 -1.5204  0.5570 -0.7179
15837TIP3   OH269001   4.065   3.265  12.985 -0.3031 -0.1135 -0.8254
15837TIP3    H169002   4.099   3.332  12.926  0.7895 -0.1468 -0.2732
15837TIP3    H269003   3.992   3.306  13.030  0.4611  0.7852 -0.3711
15838TIP3   OH269004   3.060   6.508   4.571  0.3496 -0.2178  0.3314
15838TIP3    H169005   3.028   6.426   4.609 -0.9347  0.5140  0.8905
15838TIP3    H269006   3.144   6.523   4.614  0.0175 -0.6121  1.1476
15839TIP3   OH269007   3.945   4.767  16.164  0.4037 -0.2288  0.1730
15839TIP3    H169008   3.998   4.847  16.165 -0.6452  0.5193 -1.0161
15839TIP3    H269009   3.859   4.796  16.134 -0.4829 -1.5374  1.3207
15840TIP3   OH269010   0.217   3.398   4.736  0.4138  0.1463 -0.2528
15840TIP3    H169011   0.226   3.303   4.741  0.0115  0.0623 -0.9549
15840TIP3    H269012   0.173   3.422   4.818  0.8772 -0.2222  0.1054
15841TIP3   OH269013   1.396   2.526  16.617  0.1533 -0.3772  0.1586
15841TIP3    H169014   1.337   2.486  16.680  1.5617  0.1465  1.8910
15841TIP3    H269015   1.450   2.454  16.585 -1.2833 -0.8430 -1.3668
15842TIP3   OH269016   3.221   1.044   3.432 -0.0231  0.2146  1.0204
15842TIP3    H169017   3.196   1.058   3.341 -0.7807  1.3430  1.3773
15842TIP3    H269018   3.171   0.967   3.459 -1.9537  1.4719  1.2393
15843TIP3   OH269019   5.741   1.937  13.483 -0.5231 -0.2200  0.2287
15843TIP3    H169020   5.733   2.032  13.489 -0.6354 -0.3197  2.6408
15843TIP3    H269021   5.660   1.909  13.440  0.7012  0.8781 -3.1047
15844TIP3   OH269022   1.105   1.662   0.346 -0.0166 -0.8076 -0.6456
15844TIP3    H169023   1.194   1.635   0.324 -0.0717 -0.7265 -0.9733
15844TIP3    H269024   1.117   1.734   0.408  0.1442 -0.8905 -0.5790
15845TIP3   OH269025   1.809   5.907   3.659 -0.2254 -0.6337 -0.0384
15845TIP3    H169026   1.790   5.954   3.740 -0.9270  1.3324 -1.2707
15845TIP3    H269027   1.900   5.931   3.639 -0.0076 -1.2267  0.2115
15846TIP3   OH269028   5.349   2.331  15.951  0.0640 -0.8727  0.0417
15846TIP3    H169029   5.361   2.414  15.998 -2.9726 -0.0040 -0.4696
15846TIP3    H269030   5.345   2.265  16.020 -1.5510 -0.0006  0.8375
15847TIP3   OH269031   1.114   1.392   5.437 -0.8490  0.0058 -0.3790
15847TIP3    H169032   1.117   1.357   5.348  1.5023  1.0904 -0.8151
15847TIP3    H269033   1.144   1.483   5.428  1.1636 -0.3552  1.6789
15848TIP3   OH269034   5.580   0.997   4.601 -0.0017  0.4312  0.2702
15848TIP3    H169035   5.605   1.015   4.692 -0.9582 -0.4681  0.7322
15848TIP3    H269036   5.579   0.901   4.595 -0.1512  0.4798 -0.6358
15849TIP3   OH269037   4.791   3.408  15.534 -0.5406 -0.3475 -0.1730
15849TIP3    H169038   4.880   3.390  15.563 -0.2724 -0.1826 -0.8650
15849TIP3    H269039   4.758   3.474  15.595  0.7227  1.5041 -1.3872
15850TIP3   OH269040   4.442   4.135  16.895  0.3367  0.0456 -0.5946
15850TIP3    H169041   4.426   4.048  16.858  2.8138 -1.9506  2.4228
15850TIP3    H269042   4.534   4.153  16.876  0.4219  1.0187  0.5617
15851TIP3   OH269043   4.071   1.552   1.783  0.1528 -0.0967 -0.0375
15851TIP3    H169044   3.986   1.518   1.810  0.9613 -1.4542  0.8897
15851TIP3    H269045   4.069   1.645   1.808 -0.6987 -0.3468  0.8551
15852TIP3   OH269046   3.439   5.763  11.638  0.2247  0.2443  0.0073
15852TIP3    H169047   3.476   5.681  11.604 -0.0780 -0.9029  2.2179
15852TIP3    H269048   3.381   5.794  11.568  1.7368 -0.4267 -1.6175
15853TIP3   OH269049   0.329   5.998   2.941  0.5163 -0.3739  0.1886
15853TIP3    H169050   0.280   6.001   2.860 -1.2682 -0.7238  1.2064
15853TIP3    H269051   0.420   6.010   2.915 -0.0573 -0.0996 -1.7989
15854TIP3   OH269052   3.530   0.999   4.885 -0.6210 -0.1678  0.3597
15854TIP3    H169053   3.456   1.030   4.937  0.7358 -0.2258  2.3961
15854TIP3    H269054   3.596   0.974   4.949  0.4282 -2.0402 -1.3522
15855TIP3   OH269055   3.857   4.346   3.396  0.5379 -0.0172  0.9778
15855TIP3    H169056   3.936   4.399   3.388  0.0605  0.9942  2.5330
15855TIP3    H269057   3.785   4.408   3.384 -0.1060 -1.1500 -1.8275
15856TIP3   OH269058   2.745   3.713   1.909  0.2973 -0.5596 -0.3435
15856TIP3    H169059   2.760   3.706   2.004 -0.1826 -2.1337 -0.3723
15856TIP3    H269060   2.832   3.723   1.872  0.5896 -1.1560  0.1717
15857TIP3   OH269061   2.647   5.660   2.231 -0.2372 -0.0353 -0.2574
15857TIP3    H169062   2.725   5.712   2.250  0.1121 -0.5040 -0.3960
15857TIP3    H269063   2.576   5.704   2.278  0.1759  0.1819  0.1626
15858TIP3   OH269064   5.051   5.377   4.092  0.0800  0.3269  0.2099
15858TIP3    H169065   5.087   5.457   4.132  0.5682  0.7591 -1.0342
15858TIP3    H269066   4.992   5.409   4.024  1.4907 -0.3155 -1.3939
15859TIP3   OH269067   6.671   3.412   0.823 -0.0279 -0.0573  0.1628
15859TIP3    H169068   6.730   3.479   0.860 -0.3104  0.3586 -0.1337
15859TIP3    H269069   6.698   3.405   0.732  0.4610 -0.8614  0.3561
15860TIP3   OH269070   2.031   2.397   0.343  0.3038 -0.2555  0.0489
15860TIP3    H169071   2.037   2.302   0.350  0.6721 -0.1760  0.9041
15860TIP3    H269072   1.938   2.413   0.323  0.4823 -0.8460 -1.3143
15861TIP3   OH269073   2.656   0.510  10.887 -0.2095  0.5454 -0.4059
15861TIP3    H169074   2.592   0.539  10.822  0.7330  2.4452 -0.5729
15861TIP3    H269075   2.606   0.499  10.968 -0.9948  0.4553 -0.8982
15862TIP3   OH269076   6.770   0.247  11.611 -0.3317 -0.1690 -0.5021
15862TIP3    H169077   6.717   0.314  11.654 -0.6595 -0.7382  0.0076
15862TIP3    H269078   6.784   0.180  11.678 -0.0570 -0.6363 -1.0084
15863TIP3   OH269079   3.427   1.600  11.474 -0.1118  0.4493 -0.3054
15863TIP3    H169080   3.437   1.543  11.397 -1.0828  0.6479 -0.5962
15863TIP3    H269081   3.495   1.666  11.463  0.6570 -0.3125 -0.2670
15864TIP3   OH269082   4.421   0.394   3.923  0.3190  0.8882 -0.1341
15864TIP3    H169083   4.347   0.431   3.969  1.7148  3.5301  0.1873
15864TIP3    H269084   4.399   0.403   3.830 -0.2967  0.4225 -0.0375
15865TIP3   OH269085   1.140   3.795  14.785  0.2800  0.3775 -0.6218
15865TIP3    H169086   1.132   3.871  14.728 -0.3004  0.5537 -0.3212
15865TIP3    H269087   1.229   3.798  14.818  0.7699  0.0133 -1.8649
15866TIP3   OH269088   6.706   1.907   2.294  0.6055  0.2517 -0.2782
15866TIP3    H169089   6.799   1.887   2.290  1.0246  0.9621  3.0794
15866TIP3    H269090   6.702   2.000   2.319 -0.9591  0.0181  0.4849
15867TIP3   OH269091   4.225   3.590   3.277 -0.5443  0.2446 -0.8447
15867TIP3    H169092   4.214   3.596   3.372  1.9076 -1.9526 -0.3059
15867TIP3    H269093   4.298   3.648   3.257 -0.2448 -0.2489 -1.2021
15868TIP3   OH269094   5.402   3.506   4.911  0.0029  0.5353 -0.0939
15868TIP3    H169095   5.321   3.541   4.876 -0.8869 -0.5990  0.7728
15868TIP3    H269096   5.411   3.547   4.997  0.0393  0.2256  0.0521
15869TIP3   OH269097   3.571   2.955   0.128 -0.3309 -0.1235 -0.0102
15869TIP3    H169098   3.559   2.862   0.148  0.2767 -0.6852 -1.9842
15869TIP3    H269099   3.495   2.977   0.073  1.0617 -0.3650 -2.1722
15870TIP3   OH269100   6.286   2.541   2.858 -0.2257 -0.3985  0.1795
15870TIP3    H169101   6.322   2.495   2.782  0.9158  1.9672 -0.8205
15870TIP3    H269102   6.323   2.495   2.933  1.0889 -0.9549 -0.7636
15871TIP3   OH269103   6.660   1.865  10.915  0.2438  0.7527 -0.0937
15871TIP3    H169104   6.660   1.771  10.933  2.2847  1.0484  1.9123
15871TIP3    H269105   6.734   1.878  10.854  1.5246  1.2727  1.4943
15872TIP3   OH269106   1.277   1.240  14.442  1.0226 -0.7080 -0.1535
15872TIP3    H169107   1.312   1.157  14.475  0.7882 -0.6041  0.3787
15872TIP3    H269108   1.210   1.214  14.379  1.8748 -0.9053 -0.9880
15873TIP3   OH269109   1.545   5.013  12.773  0.1866 -0.0983 -0.0383
15873TIP3    H169110   1.533   5.060  12.690 -2.7249  0.9494  0.8199
15873TIP3    H269111   1.596   5.073  12.827 -0.0545  0.3226 -0.2689
15874TIP3   OH269112   0.851   6.628  13.368 -0.5192 -0.2650  0.0858
15874TIP3    H169113   0.810   6.677  13.297 -0.1856  0.3650  0.3288
15874TIP3    H269114   0.841   6.536  13.342 -0.8046 -0.0581 -0.5498
15875TIP3   OH269115   2.987   1.161   4.735  0.1823  0.2733 -0.2094
15875TIP3    H169116   2.979   1.068   4.756  1.4602  0.2694  0.3563
15875TIP3    H269117   3.047   1.164   4.661 -0.4359  0.6105 -0.7061
15876TIP3   OH269118   3.938   0.453  13.048 -0.2020  0.3431 -0.8658
15876TIP3    H169119   3.851   0.443  13.087  0.1511  0.6129  0.0205
15876TIP3    H269120   3.948   0.547  13.036  0.1946  0.3589 -0.4236
15877TIP3   OH269121   5.903   0.469  13.717  0.8832 -0.0924  0.3836
15877TIP3    H169122   5.836   0.411  13.755  0.5776 -0.0515 -0.0846
15877TIP3    H269123   5.946   0.415  13.651 -1.0972  0.9311 -1.8731
15878TIP3   OH269124   2.724   2.752  17.144  0.1446  0.0808 -0.1410
15878TIP3    H169125   2.635   2.715  17.147  0.5355 -0.8721  0.2563
15878TIP3    H269126   2.736   2.790  17.231 -0.3036  1.2786 -0.5915
15879TIP3   OH269127   2.056   3.232  15.540 -0.5465  0.2703 -0.0833
15879TIP3    H169128   2.048   3.235  15.445 -0.6672 -1.0849 -0.1271
15879TIP3    H269129   2.033   3.320  15.569  0.0406  0.8623 -1.3428
15880TIP3   OH269130   3.293   3.934  16.857  0.1288  0.0564 -0.2968
15880TIP3    H169131   3.367   3.878  16.881  0.5174  1.0429  0.9489
15880TIP3    H269132   3.327   3.992  16.789 -0.1141 -0.8248 -1.1916
15881TIP3   OH269133   0.770   2.970   4.056 -0.4643  0.1292  0.4017
15881TIP3    H169134   0.695   2.985   3.998 -1.8108 -0.9058  1.7694
15881TIP3    H269135   0.845   3.007   4.009 -1.4376 -0.7747 -2.0386
15882TIP3   OH269136   4.716   5.447   5.595  0.5780 -0.3862  0.1174
15882TIP3    H169137   4.695   5.540   5.589  0.2521 -0.5098 -0.8995
15882TIP3    H269138   4.767   5.428   5.516  2.0440 -0.7379  1.1122
15883TIP3   OH269139   4.812   4.100  14.554 -0.8657  0.0852 -0.0955
15883TIP3    H169140   4.824   4.119  14.647 -0.4864  0.2067 -0.1697
15883TIP3    H269141   4.720   4.073  14.547 -0.4072 -1.8106  0.6452
15884TIP3   OH269142   2.616   4.512  16.460  0.3363  0.6508  0.4157
15884TIP3    H169143   2.625   4.603  16.490 -1.0085  0.6995  0.7256
15884TIP3    H269144   2.642   4.515  16.368 -0.1176  1.4465  0.2968
15885TIP3   OH269145   6.627   4.175  13.559 -0.1604 -0.1298  0.5174
15885TIP3    H169146   6.637   4.105  13.495 -3.0022 -1.2375  1.1441
15885TIP3    H269147   6.698   4.236  13.539  0.9832 -1.9944 -1.5753
15886TIP3   OH269148   2.290   5.698   1.938 -0.4751  0.2045  0.1067
15886TIP3    H169149   2.218   5.640   1.916  1.0638 -0.8759 -2.4969
15886TIP3    H269150   2.342   5.650   2.001 -0.6718 -0.0675  0.0612
15887TIP3   OH269151   1.997   0.352  15.334 -0.4567 -0.0976  0.3488
15887TIP3    H169152   1.951   0.424  15.379 -2.9812 -0.4760 -1.4039
15887TIP3    H269153   1.932   0.282  15.328  1.0684 -1.5106 -0.4240
15888TIP3   OH269154   1.123   6.039  11.117 -0.2033  0.0425  0.0749
15888TIP3    H169155   1.172   5.959  11.095  0.2006  0.4460 -0.5022
15888TIP3    H269156   1.176   6.081  11.184  0.3286  0.5514 -0.6515
15889TIP3   OH269157   0.192   6.772   0.810 -0.0646  0.4063 -0.1978
15889TIP3    H169158   0.206   6.783   0.904  0.9285 -0.0969 -0.2700
15889TIP3    H269159   0.179   6.678   0.799 -0.6565  0.5235 -0.5062
15890TIP3   OH269160   4.283   5.198   0.809  0.0894  0.8102 -0.0630
15890TIP3    H169161   4.325   5.155   0.884 -0.9503 -0.5334 -0.2372
15890TIP3    H269162   4.301   5.140   0.735 -0.1005  1.4187 -0.5909
15891TIP3   OH269163   3.539   2.647  15.728  0.2988 -0.1958 -0.2996
15891TIP3    H169164   3.467   2.649  15.790  0.1714  0.6280 -0.4639
15891TIP3    H269165   3.503   2.605  15.649  0.0579  0.0538 -0.3203
15892TIP3   OH269166   3.635   6.500   4.116 -0.4686 -0.6322 -0.5895
15892TIP3    H169167   3.726   6.508   4.088 -0.5671 -0.1341 -0.7726
15892TIP3    H269168   3.625   6.407   4.138  0.9355 -0.1679  2.3776
15893TIP3   OH269169   6.433   1.353  15.329 -0.4076  0.6919  0.5347
15893TIP3    H169170   6.512   1.304  15.352 -0.0759  0.2722 -1.2686
15893TIP3    H269171   6.368   1.286  15.312 -0.4852  0.9364 -0.1651
15894TIP3   OH269172   1.835   1.182   2.178  0.4741  0.0185 -0.0378
15894TIP3    H169173   1.741   1.198   2.173  0.7903  1.8668 -1.0095
15894TIP3    H269174   1.869   1.254   2.231  1.5064  0.3037 -1.0425
15895TIP3   OH269175   5.929   4.434  14.266  0.3902  0.1687  0.1026
15895TIP3    H169176   5.956   4.393  14.348 -2.0274 -0.7299  0.5393
15895TIP3    H269177   5.970   4.521  14.267  0.8994 -0.0585  1.9552
15896TIP3   OH269178   6.272   3.217  16.187  0.3787  0.2260 -0.1201
15896TIP3    H169179   6.314   3.187  16.267  1.0420  0.3265 -0.4285
15896TIP3    H269180   6.265   3.312  16.198  1.8548  0.4373 -0.8200
15897TIP3   OH269181   5.293   1.159  16.835  0.5608 -0.3421 -0.1219
15897TIP3    H169182   5.266   1.198  16.917  0.2913  1.8895 -1.2034
15897TIP3    H269183   5.384   1.132  16.849  0.3797 -0.4058  1.0063
15898TIP3   OH269184   4.623   6.273  12.126  0.4997  0.4259  0.1669
15898TIP3    H169185   4.712   6.250  12.098  0.6352  0.5863  0.4489
15898TIP3    H269186   4.572   6.193  12.115  0.4137  0.6369 -1.0515
15899TIP3   OH269187   6.605   2.300  14.738 -0.0253  0.5114  0.3024
15899TIP3    H169188   6.592   2.305  14.643 -0.8126  0.2533  0.3859
15899TIP3    H269189   6.694   2.331  14.752 -0.4152  2.0528 -0.3767
15900TIP3   OH269190   0.537   2.833  14.201  0.3241 -0.2490  0.1011
15900TIP3    H169191   0.478   2.776  14.250 -1.8835  1.8690  0.0816
15900TIP3    H269192   0.569   2.779  14.128 -0.5944 -1.8187  0.8324
15901TIP3   OH269193   0.683   3.874   3.218 -0.3250 -0.3619  0.4229
15901TIP3    H169194   0.678   3.874   3.123 -0.0899  0.5897  0.4056
15901TIP3    H269195   0.680   3.781   3.242 -2.4826 -0.5501 -0.3725
15902TIP3   OH269196   4.870   6.666   0.402 -0.0431 -0.3036  0.1436
15902TIP3    H169197   4.868   6.632   0.491 -1.1625  1.4674  0.8571
15902TIP3    H269198   4.943   6.729   0.403 -1.1491  1.0199  0.3707
15903TIP3   OH269199   2.549   6.470   0.216  0.1802 -0.2725  0.0054
15903TIP3    H169200   2.635   6.440   0.187 -0.0847 -0.9324 -0.1166
15903TIP3    H269201   2.504   6.497   0.136 -0.5951 -2.2094 -0.2790
15904TIP3   OH269202   6.449   1.442   3.996 -0.0100 -0.1650 -0.0728
15904TIP3    H169203   6.436   1.473   4.086  1.4403  1.2343 -0.2938
15904TIP3    H269204   6.521   1.380   4.002  0.8343  0.7495 -0.3747
15905TIP3   OH269205   0.533   2.006   1.339 -0.0942 -0.4058  0.7390
15905TIP3    H169206   0.563   1.963   1.259  1.5281  0.2363  0.9574
15905TIP3    H269207   0.442   2.031   1.321 -0.8401 -3.1416  0.3209
15906TIP3   OH269208   6.752   6.200  11.773 -0.5326 -0.7654  0.6880
15906TIP3    H169209   6.822   6.135  11.770  1.6135  1.4046  0.9704
15906TIP3    H269210   6.721   6.207  11.683  1.1193 -0.2439  0.1379
15907TIP3   OH269211   6.625   5.710   5.038 -0.2746 -0.0961 -0.2557
15907TIP3    H169212   6.583   5.699   5.123 -0.1054  0.8539 -0.0376
15907TIP3    H269213   6.673   5.793   5.045 -2.6159  1.5591 -2.1889
15908TIP3   OH269214   0.187   3.270   0.853  0.3633  0.1329 -0.1884
15908TIP3    H169215   0.233   3.190   0.828 -0.0107  0.4565 -2.0810
15908TIP3    H269216   0.095   3.244   0.859  0.4440  0.0707  0.8848
15909TIP3   OH269217   3.356   6.080  14.139  0.0076  0.1783  0.4993
15909TIP3    H169218   3.395   6.113  14.058 -0.0725 -0.9372 -0.0099
15909TIP3    H269219   3.289   6.018  14.110 -0.1592 -0.0879  1.4168
15910TIP3   OH269220   4.065   0.552   3.534  0.2513  0.3974 -0.7129
15910TIP3    H169221   4.017   0.625   3.494  0.6174  0.7805 -0.4510
15910TIP3    H269222   4.053   0.479   3.472  0.4295  0.8564 -1.2917
15911TIP3   OH269223   2.800   4.697   1.640 -0.7216 -0.1120  1.4433
15911TIP3    H169224   2.877   4.744   1.671  0.1545 -2.2861  2.8130
15911TIP3    H269225   2.735   4.710   1.709 -1.1852  0.6962  0.8720
15912TIP3   OH269226   2.145   5.823  12.396  0.1310 -0.1777 -0.2514
15912TIP3    H169227   2.134   5.830  12.491  1.3903 -2.5303  0.1490
15912TIP3    H269228   2.064   5.784  12.365 -0.4531  0.9888 -0.2206
15913TIP3   OH269229   4.993   5.624   3.331 -0.0731 -0.7325 -0.1657
15913TIP3    H169230   5.060   5.631   3.263  1.4138 -1.7194  1.1316
15913TIP3    H269231   5.039   5.587   3.406 -1.8343 -0.3611  1.1543
15914TIP3   OH269232   3.878   3.061   1.426  0.1537 -0.4087 -0.0187
15914TIP3    H169233   3.801   3.012   1.456  1.0940 -2.1045 -0.2823
15914TIP3    H269234   3.860   3.151   1.452 -3.3125 -0.0960 -2.6590
15915TIP3   OH269235   6.031   2.795  11.717  0.5047  0.2630 -0.3783
15915TIP3    H169236   5.965   2.770  11.781  1.9367 -1.8291  0.4133
15915TIP3    H269237   6.033   2.721  11.655  2.4665 -0.0216 -0.0330
15916TIP3   OH269238   1.102   5.677  12.088  0.1090 -0.7834 -0.4249
15916TIP3    H169239   1.060   5.762  12.075 -0.5813 -1.1073 -0.3596
15916TIP3    H269240   1.111   5.640  12.000 -0.9555 -1.2728 -0.3490
15917TIP3   OH269241   0.078   2.353  12.039  0.1271  0.1693  0.2474
15917TIP3    H169242   0.006   2.413  12.020  0.6431  1.6986  2.6270
15917TIP3    H269243   0.037   2.266  12.038 -1.0555  0.7002 -1.4256
15918TIP3   OH269244   1.275   2.071  16.354 -0.3497  0.3608 -0.0183
15918TIP3    H169245   1.323   2.117  16.285  0.5852  0.0954  0.4294
15918TIP3    H269246   1.285   1.978  16.333  0.8152  0.2245  0.9906
15919TIP3   OH269247   5.679   2.751  12.459  0.1782 -0.0922 -0.4225
15919TIP3    H169248   5.663   2.837  12.497 -0.5874 -1.1290  1.7660
15919TIP3    H269249   5.724   2.703  12.528 -0.9833 -1.9884 -0.9223
15920TIP3   OH269250   0.050   6.692   0.411 -0.0494  0.5633 -0.8770
15920TIP3    H169251   0.115   6.627   0.385 -0.4602 -0.9137  1.5459
15920TIP3    H269252  -0.015   6.690   0.340  0.7554 -0.5022 -1.6186
15921TIP3   OH269253   0.144   2.175   1.942 -0.0817  0.1204  0.2744
15921TIP3    H169254   0.066   2.154   1.994 -0.1213  1.3046  0.7064
15921TIP3    H269255   0.116   2.246   1.884  1.0500  1.5598  1.4354
15922TIP3   OH269256   3.523   3.204   1.104  0.2830  0.7680 -0.2185
15922TIP3    H169257   3.561   3.127   1.062  1.3851  0.9662  0.3723
15922TIP3    H269258   3.428   3.193   1.094  0.4392 -0.5158 -0.3931
15923TIP3   OH269259   3.161   5.556   2.247 -0.0594  0.1192 -0.0362
15923TIP3    H169260   3.098   5.524   2.313  0.3516 -0.8248 -0.0824
15923TIP3    H269261   3.114   5.626   2.201 -1.4528 -1.2048 -0.7176
15924TIP3   OH269262   5.717   4.529  11.775  0.1722 -0.0797  0.0886
15924TIP3    H169263   5.681   4.523  11.686  1.1366  1.9681 -0.5120
15924TIP3    H269264   5.651   4.578  11.824  0.4469  0.3902 -0.0050
15925TIP3   OH269265   5.258   3.170   6.242 -0.5413  0.1436  0.3171
15925TIP3    H169266   5.190   3.110   6.272 -0.8967 -0.0876 -0.8808
15925TIP3    H269267   5.338   3.138   6.285 -0.6415 -1.4817 -0.6137
15926TIP3   OH269268   1.557   6.579  17.002 -0.0286 -0.2348 -0.1260
15926TIP3    H169269   1.478   6.633  16.995  0.1639 -0.1528 -2.6330
15926TIP3    H269270   1.610   6.603  16.925  1.8304 -1.2500  0.7532
15927TIP3   OH269271   1.691   5.724   4.804  0.3675 -0.0266 -0.3303
15927TIP3    H169272   1.703   5.755   4.715  0.1262  0.3745 -0.2236
15927TIP3    H269273   1.770   5.751   4.850  0.0771  0.6076 -0.1909
15928TIP3   OH269274   4.122   0.693  10.242 -0.2417  0.2140 -0.4975
15928TIP3    H169275   4.183   0.730  10.178 -0.8301  0.5367 -0.8825
15928TIP3    H269276   4.168   0.618  10.278  0.4427  0.5351 -0.6803
15929TIP3   OH269277   0.973   1.745   2.227 -0.3950 -0.2918  0.8293
15929TIP3    H169278   0.900   1.786   2.179  1.1410  1.9864  0.2377
15929TIP3    H269279   1.002   1.813   2.288  2.5174 -0.2953 -0.4022
15930TIP3   OH269280   2.284   5.563   3.853  0.1248 -0.5417 -0.4342
15930TIP3    H169281   2.230   5.593   3.926 -0.2432 -1.1543 -0.4526
15930TIP3    H269282   2.372   5.595   3.874  0.4684 -2.3942  1.3367
15931TIP3   OH269283   4.346   4.495  14.900  0.4511 -0.8845  0.2823
15931TIP3    H169284   4.422   4.548  14.878 -0.9592  1.8713  1.5990
15931TIP3    H269285   4.377   4.434  14.967  1.1099  1.6258  2.3757
15932TIP3   OH269286   4.841   2.878   0.229 -0.1871 -0.5381 -0.4509
15932TIP3    H169287   4.839   2.953   0.288 -0.2231 -0.6603 -0.2972
15932TIP3    H269288   4.752   2.874   0.193  0.3270  0.7437 -2.0407
15933TIP3   OH269289   0.495   0.108   5.922  0.2958 -0.0741  0.2531
15933TIP3    H169290   0.415   0.085   5.970 -1.1566  1.0870 -1.4637
15933TIP3    H269291   0.518   0.195   5.954 -0.7827  0.7838 -1.1741
15934TIP3   OH269292   4.851   3.185  11.746  0.1191  0.0918 -0.6307
15934TIP3    H169293   4.899   3.262  11.715  1.9123 -0.5359  0.4311
15934TIP3    H269294   4.811   3.148  11.667 -0.1344  1.6439 -1.2762
15935TIP3   OH269295   2.835   5.159   6.679 -0.1733 -0.6512 -0.0120
15935TIP3    H169296   2.902   5.226   6.669 -0.9490  0.1056 -0.3137
15935TIP3    H269297   2.881   5.084   6.714  0.5428  0.3728  1.3440
15936TIP3   OH269298   4.681   4.895  14.452  0.1068 -0.5477  0.1311
15936TIP3    H169299   4.635   4.918  14.533  1.0376 -1.2069  0.8849
15936TIP3    H269300   4.763   4.943  14.457  0.0235 -0.3243 -0.5978
15937TIP3   OH269301   4.417   0.167  16.186  0.2415  0.3913 -0.6559
15937TIP3    H169302   4.435   0.165  16.280 -2.4905  0.1291 -0.0379
15937TIP3    H269303   4.444   0.254  16.158  1.6283  0.2713  0.2266
15938TIP3   OH269304   2.884   6.089   0.428  0.4239 -0.2314 -0.1820
15938TIP3    H169305   2.818   6.129   0.485 -0.8562  0.2615 -1.9038
15938TIP3    H269306   2.968   6.118   0.464 -0.3628  0.7649  0.9274
15939TIP3   OH269307   3.912   0.916  15.755 -0.3821 -0.0914  0.3170
15939TIP3    H169308   3.881   0.851  15.818 -0.9413  0.6002  0.7699
15939TIP3    H269309   3.951   0.864  15.684  0.8721 -0.8554  1.5301
15940TIP3   OH269310   6.712   3.936   0.087 -0.8840 -0.8020 -0.1106
15940TIP3    H169311   6.645   3.878   0.125 -1.9617  0.3216 -0.2126
15940TIP3    H269312   6.678   3.958  -0.000 -0.6843  0.2491  0.0592
15941TIP3   OH269313   1.087   3.945   0.784  0.7395  0.4831  0.1429
15941TIP3    H169314   1.030   3.921   0.711  0.4678  0.2017  0.4492
15941TIP3    H269315   1.175   3.928   0.752  0.5516 -1.0568  0.3928
15942TIP3   OH269316   0.265   4.728  16.229  0.0929 -0.1293 -0.1589
15942TIP3    H169317   0.325   4.669  16.274 -0.6091 -0.4111  0.4256
15942TIP3    H269318   0.192   4.672  16.202 -0.3634  0.3828 -0.0050
15943TIP3   OH269319   2.592   0.356   0.597 -0.1281  0.1649 -0.3534
15943TIP3    H169320   2.534   0.282   0.577  0.9614 -0.4725 -1.2816
15943TIP3    H269321   2.533   0.431   0.604 -1.2516 -0.7495  0.4893
15944TIP3   OH269322   3.585   2.776   5.912 -0.2562 -0.1246  0.2615
15944TIP3    H169323   3.505   2.813   5.950 -0.0889  0.4180  0.0871
15944TIP3    H269324   3.563   2.762   5.820 -0.5530 -1.1329  0.4742
15945TIP3   OH269325   5.018   5.490  13.858  0.6065  0.2489  0.0921
15945TIP3    H169326   5.080   5.530  13.797 -0.6141  2.2448  0.0949
15945TIP3    H269327   5.068   5.483  13.940  1.5605 -0.4645 -0.5116
15946TIP3   OH269328   4.797   5.462   1.025 -0.3300 -0.0365  0.0037
15946TIP3    H169329   4.745   5.388   0.994  1.5007 -2.1989  1.7281
15946TIP3    H269330   4.888   5.438   1.004  0.6425  0.1308  3.4577
15947TIP3   OH269331   6.497   4.609   5.758  0.6787 -0.7970 -0.3841
15947TIP3    H169332   6.409   4.646   5.772  1.2575  0.4252  0.1819
15947TIP3    H269333   6.510   4.616   5.663  0.8917  0.8161 -0.2679
15948TIP3   OH269334   5.160   0.441   6.098 -0.0740 -0.5425 -0.2712
15948TIP3    H169335   5.144   0.352   6.129 -1.2518 -0.5104 -0.7338
15948TIP3    H269336   5.223   0.478   6.160  1.0665 -1.9546 -0.5363
15949TIP3   OH269337   6.046   3.511  13.704  0.3199 -0.2179 -0.1227
15949TIP3    H169338   6.042   3.486  13.612  1.8289 -0.0990 -0.2462
15949TIP3    H269339   6.111   3.582  13.707 -0.2367  0.2780  0.9319
15950TIP3   OH269340   2.526   2.894  13.653 -0.1864 -0.0259 -0.1730
15950TIP3    H169341   2.588   2.823  13.637 -1.1032 -1.1545  1.0811
15950TIP3    H269342   2.440   2.854  13.645 -0.7690  1.2776 -0.8493
15951TIP3   OH269343   2.466   5.516   2.079  0.2089 -0.7099 -0.5860
15951TIP3    H169344   2.429   5.446   2.133 -0.4841 -0.0224 -0.1475
15951TIP3    H269345   2.541   5.548   2.129 -1.7421  1.4829  1.2168
15952TIP3   OH269346   4.965   0.012   5.976 -0.1682  0.0189  0.3084
15952TIP3    H169347   5.057  -0.004   5.952  0.5699  2.5657  1.0952
15952TIP3    H269348   4.918   0.010   5.893  1.2848  2.3729 -0.6982
15953TIP3   OH269349   6.426   3.232  12.544  0.3861 -0.4159 -0.5247
15953TIP3    H169350   6.346   3.234  12.596 -0.0876  0.3922 -1.2463
15953TIP3    H269351   6.397   3.205  12.456  0.8865 -0.0348 -0.8136
15954TIP3   OH269352   5.606   2.048  10.594 -0.5222  0.1157 -0.5846
15954TIP3    H169353   5.641   2.093  10.518  1.0551  0.6192  0.3934
15954TIP3    H269354   5.602   2.115  10.662  1.7178 -1.0730  0.8551
15955TIP3   OH269355   5.324   1.755   0.452  0.8928  0.0542  0.1675
15955TIP3    H169356   5.254   1.819   0.465 -0.4971 -1.5859  1.3655
15955TIP3    H269357   5.396   1.786   0.507  0.1446  0.4751  0.9263
15956TIP3   OH269358   6.128   6.319   0.503  0.1285 -0.3717 -0.0943
15956TIP3    H169359   6.047   6.358   0.472  0.6320  0.0818 -0.8682
15956TIP3    H269360   6.164   6.274   0.427  0.1513 -1.3618  0.4791
15957TIP3   OH269361   3.808   0.761  13.883 -0.3285  0.0867  0.2398
15957TIP3    H169362   3.753   0.837  13.901  0.1687 -0.0450  2.5353
15957TIP3    H269363   3.756   0.686  13.913  0.7886 -0.0965  1.8171
15958TIP3   OH269364   5.965   2.131  13.822 -0.3677 -0.0097 -0.8481
15958TIP3    H169365   6.047   2.170  13.853 -0.1335 -1.3999  0.3726
15958TIP3    H269366   5.988   2.089  13.739  0.4994 -1.5061  0.1099
15959TIP3   OH269367   5.872   2.051   2.521 -0.5638  0.2235 -0.0197
15959TIP3    H169368   5.857   1.957   2.530  2.4831 -0.3955 -0.2426
15959TIP3    H269369   5.882   2.083   2.611 -2.6765  0.6035  0.1175
15960TIP3   OH269370   2.185   2.548   4.350  0.1309  0.0153  0.0141
15960TIP3    H169371   2.118   2.611   4.377  0.1301 -0.5579  1.3862
15960TIP3    H269372   2.161   2.525   4.260  0.1998  2.0555 -0.5843
15961TIP3   OH269373   2.850   1.048  13.277  0.8053 -0.4158  0.3744
15961TIP3    H169374   2.778   0.986  13.265  1.1628 -0.6932 -0.4481
15961TIP3    H269375   2.905   1.007  13.344 -1.1572  1.0853  3.0420
15962TIP3   OH269376   2.930   2.729   0.435 -0.2248 -0.2100  0.4792
15962TIP3    H169377   2.913   2.670   0.509 -1.1002  0.2583  0.6659
15962TIP3    H269378   2.985   2.678   0.376  0.9509 -0.4099  1.7005
15963TIP3   OH269379   6.271   6.030   5.720  1.2123  0.0038  0.0848
15963TIP3    H169380   6.303   5.983   5.643  0.2790 -1.3717  0.5034
15963TIP3    H269381   6.344   6.032   5.781  1.4284 -0.4289 -0.1613
15964TIP3   OH269382   6.199   3.921   3.609 -0.6568 -0.1602  0.0494
15964TIP3    H169383   6.108   3.934   3.634 -0.6720  0.2694 -0.2358
15964TIP3    H269384   6.198   3.913   3.514 -0.3663  0.0872  0.0257
15965TIP3   OH269385   1.704   0.867  11.913  0.2282  0.2332 -0.1445
15965TIP3    H169386   1.798   0.883  11.912  0.1545  0.8274 -2.4897
15965TIP3    H269387   1.694   0.790  11.970  2.3641 -1.0995 -1.4065
15966TIP3   OH269388   5.176   3.235   0.299  0.5685 -0.2082 -0.3596
15966TIP3    H169389   5.216   3.150   0.282  2.0713  0.5940 -1.0725
15966TIP3    H269390   5.224   3.270   0.374  0.3898  0.2693 -0.4611
15967TIP3   OH269391   2.352   5.135  12.938  0.6390  0.4874  0.1206
15967TIP3    H169392   2.334   5.091  12.855 -1.6534  1.4971  0.0165
15967TIP3    H269393   2.313   5.222  12.928  2.7314  1.6434  1.2893
15968TIP3   OH269394   6.685   1.587  13.315 -0.1921 -0.4204 -0.3892
15968TIP3    H169395   6.723   1.546  13.238 -1.3945 -0.1768 -1.1392
15968TIP3    H269396   6.617   1.526  13.344 -1.9627  0.9509 -1.4833
15969TIP3   OH269397   2.391   4.057   0.346  0.3062 -0.6798  0.4179
15969TIP3    H169398   2.321   4.002   0.310 -0.2159 -0.1761  0.6534
15969TIP3    H269399   2.359   4.083   0.432  0.1608  0.6749 -0.0141
15970TIP3   OH269400   2.039   3.189   0.194  0.2030  0.5396 -0.5582
15970TIP3    H169401   2.006   3.169   0.106 -1.1647  1.7476 -0.3503
15970TIP3    H269402   2.083   3.273   0.184 -1.5458  1.6025  0.2256
15971TIP3   OH269403   1.835   1.641   3.822  0.5308  0.4762  0.7703
15971TIP3    H169404   1.914   1.692   3.841  0.7074 -0.5947  3.4039
15971TIP3    H269405   1.867   1.563   3.777  0.8953  0.3664  1.2131
15972TIP3   OH269406   6.151   1.696   0.226 -0.1970  0.0867 -0.0660
15972TIP3    H169407   6.153   1.641   0.305 -0.3783 -0.4587 -0.4287
15972TIP3    H269408   6.069   1.671   0.183 -0.9695  1.6383  0.4469
15973TIP3   OH269409   0.437   5.396  14.703 -0.2323 -0.5119  0.0198
15973TIP3    H169410   0.384   5.319  14.722  0.7374 -1.3542 -0.6323
15973TIP3    H269411   0.436   5.446  14.785 -1.5966 -0.7615  0.1771
15974TIP3   OH269412   4.220   1.960  16.994  0.9365  0.0407  0.0586
15974TIP3    H169413   4.194   2.032  16.937 -1.8924 -0.1636  0.9029
15974TIP3    H269414   4.196   1.881  16.946  0.3860 -0.1855  0.6828
15975TIP3   OH269415   6.750   4.519   5.113 -0.0698 -0.5137  0.1610
15975TIP3    H169416   6.793   4.601   5.089 -0.0990 -0.1729  1.2243
15975TIP3    H269417   6.661   4.527   5.079 -0.0713 -0.1013  0.2562
15976TIP3   OH269418   2.965   5.588  10.607 -0.0846  0.0101 -0.5052
15976TIP3    H169419   2.960   5.675  10.567 -2.1551  0.6331  0.9228
15976TIP3    H269420   3.007   5.603  10.692 -0.9822 -0.2560 -0.0042
15977TIP3   OH269421   1.180   5.290  11.440  0.3669 -0.5798 -0.2535
15977TIP3    H169422   1.272   5.295  11.414 -0.3223 -2.4084 -3.5304
15977TIP3    H269423   1.142   5.372  11.408  0.3137 -1.0989 -1.5635
15978TIP3   OH269424   5.738   3.820  12.918  0.2413 -0.3702 -0.0479
15978TIP3    H169425   5.806   3.877  12.955 -0.1319  1.0481 -1.4243
15978TIP3    H269426   5.659   3.875  12.918 -0.6796 -1.6563  0.6173
15979TIP3   OH269427   4.383   1.191  12.822 -0.2987 -0.2020 -0.2863
15979TIP3    H169428   4.300   1.144  12.828 -0.7660  0.4980 -1.0664
15979TIP3    H269429   4.431   1.146  12.753  0.1466 -0.8637  0.4494
15980TIP3   OH269430   1.520   0.481   3.154  0.4802 -0.0513 -0.3569
15980TIP3    H169431   1.450   0.417   3.140  0.0346 -0.2058  2.0883
15980TIP3    H269432   1.529   0.486   3.249  3.1839  0.6491 -0.5626
15981TIP3   OH269433   0.199   1.374   4.204  0.0510 -0.0914  0.0989
15981TIP3    H169434   0.161   1.393   4.289  2.3652  1.2189  0.9468
15981TIP3    H269435   0.138   1.410   4.141 -0.7743  0.6458  1.2940
15982TIP3   OH269436   6.592   4.185   4.343  0.2303 -0.2870 -0.5245
15982TIP3    H169437   6.681   4.215   4.363  0.7488  0.0410 -2.9853
15982TIP3    H269438   6.605   4.099   4.303 -0.4271  0.2140 -1.8795
15983TIP3   OH269439   4.496   4.909  13.732 -0.0406  0.2001 -0.2900
15983TIP3    H169440   4.484   4.978  13.666 -0.9636  0.0986 -0.2389
15983TIP3    H269441   4.573   4.937  13.782  0.1528  0.7169 -0.8574
15984TIP3   OH269442   0.555   3.519   6.201 -0.1702  0.3694 -0.4192
15984TIP3    H169443   0.481   3.489   6.254  0.4780  0.1096  0.3547
15984TIP3    H269444   0.584   3.442   6.153 -0.8754  0.6463 -1.3284
15985TIP3   OH269445   5.028   5.104  16.534 -0.1079 -0.4457 -0.2092
15985TIP3    H169446   5.065   5.093  16.622 -1.1978 -1.1884  0.1719
15985TIP3    H269447   4.934   5.089  16.545 -0.3532  0.0817 -1.3963
15986TIP3   OH269448   6.445   6.655   1.786  0.0486  0.2397 -0.3193
15986TIP3    H169449   6.378   6.589   1.763 -0.2873  0.4054  0.1733
15986TIP3    H269450   6.401   6.739   1.771  0.9290  0.3948 -2.3259
15987TIP3   OH269451   5.790   1.439   1.353 -0.2323  0.4039  0.3265
15987TIP3    H169452   5.765   1.497   1.280 -0.5092  0.3493  0.3782
15987TIP3    H269453   5.742   1.474   1.428 -0.9278 -0.3052  0.2147
15988TIP3   OH269454   6.813   3.712   4.785 -0.3972 -0.2975 -0.0927
15988TIP3    H169455   6.781   3.708   4.875 -1.2429 -0.0655 -0.3805
15988TIP3    H269456   6.880   3.781   4.788  1.2355 -1.8245  0.8361
15989TIP3   OH269457   2.496   5.062  15.782 -0.1133 -0.0910  0.1012
15989TIP3    H169458   2.578   5.042  15.826 -0.6090  0.5085  1.3660
15989TIP3    H269459   2.486   5.157  15.791  0.2366  0.2141 -2.2140
15990TIP3   OH269460   3.093   2.131  12.725 -0.2274 -0.5357  0.0597
15990TIP3    H169461   3.178   2.162  12.695 -0.3626  1.5763  1.6225
15990TIP3    H269462   3.035   2.144  12.650  0.5354 -0.6728 -0.5658
15991TIP3   OH269463   4.106   1.868   3.322  0.0191  0.1465  0.0771
15991TIP3    H169464   4.017   1.862   3.288 -0.6938  0.0103  1.8632
15991TIP3    H269465   4.128   1.778   3.347  0.7186  0.1570 -0.4863
15992TIP3   OH269466   5.574   5.443  16.712  0.4833  0.2267  0.3925
15992TIP3    H169467   5.519   5.476  16.640 -0.3894 -1.4176  0.2815
15992TIP3    H269468   5.595   5.353  16.687  1.9180  0.3043  1.2178
15993TIP3   OH269469   2.459   4.435  16.703  0.1026 -0.4831 -0.3121
15993TIP3    H169470   2.451   4.348  16.665  2.3046 -1.2645  0.8817
15993TIP3    H269471   2.504   4.486  16.636 -1.0644 -0.2505 -0.9538
15994TIP3   OH269472   6.693   1.523   2.284  0.3344  0.4086 -0.1759
15994TIP3    H169473   6.646   1.602   2.311  0.6534  0.8250 -0.8080
15994TIP3    H269474   6.696   1.469   2.363 -1.2823  0.3241 -0.1313
15995TIP3   OH269475   2.654   0.675   3.375  0.3551  0.3466  0.1127
15995TIP3    H169476   2.680   0.654   3.286  1.6435  2.1109  0.0165
15995TIP3    H269477   2.630   0.768   3.372 -1.4315 -0.0244  1.2277
15996TIP3   OH269478   0.526   3.451   5.917  0.1657  0.3045 -0.5442
15996TIP3    H169479   0.534   3.369   5.869  2.2009  0.6243 -0.8543
15996TIP3    H269480   0.617   3.477   5.935 -0.4700  1.6741  0.9399
15997TIP3   OH269481   6.668   0.921  14.421 -0.1096 -0.2452  0.2521
15997TIP3    H169482   6.639   0.977  14.493 -0.9633 -1.3564  0.8086
15997TIP3    H269483   6.764   0.922  14.426 -0.0943  1.3170  0.0997
15998TIP3   OH269484   0.722   4.292  16.238  0.1615  0.4557  0.7930
15998TIP3    H169485   0.668   4.218  16.266  1.1440 -0.7272 -0.2719
15998TIP3    H269486   0.771   4.258  16.162  1.5556  1.8137  1.0322
15999TIP3   OH269487   0.310   6.380   3.174 -0.2315  0.8131  0.1796
15999TIP3    H169488   0.335   6.376   3.081 -0.6597 -1.3545  0.0968
15999TIP3    H269489   0.217   6.400   3.172 -0.5890 -0.6804  0.0114
16000TIP3   OH269490   2.346   5.428  16.543 -0.1539  0.2629  0.0361
16000TIP3    H169491   2.338   5.427  16.447  1.4363 -0.4027 -0.1293
16000TIP3    H269492   2.354   5.521  16.565  1.5891  0.3435 -0.7360
16001TIP3   OH269493   2.944   5.570   2.406  0.1760  0.5904  0.3794
16001TIP3    H169494   2.881   5.551   2.475  0.1364 -0.7251  0.0076
16001TIP3    H269495   2.922   5.508   2.336  1.4181  0.6075 -0.0414
16002TIP3   OH269496   1.142   6.575  11.834 -0.0641 -0.2383 -0.3638
16002TIP3    H169497   1.141   6.546  11.743  0.4515  2.5148 -1.3277
16002TIP3    H269498   1.229   6.612  11.848 -0.7514  1.1402  0.6044
16003TIP3   OH269499   0.088   4.520  14.312  0.2262  0.1754 -0.5684
16003TIP3    H169500   0.036   4.550  14.237 -0.5141  0.7524  0.1598
16003TIP3    H269501   0.099   4.426  14.297 -2.6952 -0.4010  0.1808
16004TIP3   OH269502   4.138   2.519  16.128  0.1696 -0.1466 -0.1101
16004TIP3    H169503   4.185   2.601  16.112 -0.6174  0.6850  1.6439
16004TIP3    H269504   4.048   2.538  16.104  0.3324 -1.1803 -1.6857
16005TIP3   OH269505   4.559   3.714   5.287  0.0728 -0.6702 -0.0470
16005TIP3    H169506   4.608   3.708   5.369 -1.2712  0.7521  0.9106
16005TIP3    H269507   4.525   3.625   5.273 -1.9310 -0.3976  2.4333
16006TIP3   OH269508   2.510   1.603   4.802 -0.0557  0.0287  0.0662
16006TIP3    H169509   2.541   1.587   4.891  0.2095  2.5405  0.5120
16006TIP3    H269510   2.417   1.579   4.804 -0.1356  0.3683  1.1357
16007TIP3   OH269511   5.983   1.948  16.076 -0.3184  0.8183 -0.1310
16007TIP3    H169512   6.045   2.010  16.037 -1.5479  1.7960 -0.6019
16007TIP3    H269513   5.972   1.979  16.166  2.7631 -1.6226  1.2727
16008TIP3   OH269514   4.532   3.041   3.695 -0.3141  0.5829  0.5435
16008TIP3    H169515   4.533   3.136   3.690  0.2821  0.5218 -2.8132
16008TIP3    H269516   4.471   3.014   3.627  0.4168 -1.4518  0.6318
16009TIP3   OH269517   4.773   5.895  17.162 -0.1020 -0.0503  0.4240
16009TIP3    H169518   4.744   5.909  17.072  1.0886  1.0137  0.1872
16009TIP3    H269519   4.806   5.805  17.162 -1.7602 -0.7077  0.2887
16010TIP3   OH269520   2.565   2.433   0.852 -0.1109  0.3507  0.3377
16010TIP3    H169521   2.547   2.377   0.927  2.1081 -0.9621  0.0020
16010TIP3    H269522   2.643   2.483   0.877  0.0130  0.6953 -0.6729
16011TIP3   OH269523   2.712   5.132   4.376 -0.0974  1.1557 -0.3906
16011TIP3    H169524   2.649   5.154   4.308  0.2398  1.0877 -0.7317
16011TIP3    H269525   2.675   5.167   4.457  0.3825  2.8930 -0.8973
16012TIP3   OH269526   1.624   4.337  11.294  0.0087 -0.2342 -0.2046
16012TIP3    H169527   1.636   4.324  11.200 -1.2991  0.1830 -0.4372
16012TIP3    H269528   1.645   4.430  11.308  1.3371 -0.5627  0.1240
16013TIP3   OH269529   5.299   4.817  16.976  0.8940 -0.2822 -0.3794
16013TIP3    H169530   5.319   4.761  17.050  0.7904  1.2482  0.8508
16013TIP3    H269531   5.373   4.805  16.916  2.6330  0.8238  1.4249
16014TIP3   OH269532   2.708   2.336  12.482 -0.0136 -0.3012  0.4556
16014TIP3    H169533   2.696   2.284  12.403  1.7017  1.1317 -0.8550
16014TIP3    H269534   2.621   2.344  12.520 -0.7234 -1.7940 -0.7946
16015TIP3   OH269535   6.490   1.530   2.802 -0.3908  0.4266 -0.0142
16015TIP3    H169536   6.421   1.493   2.747 -0.4846  0.6020 -0.0158
16015TIP3    H269537   6.450   1.607   2.842 -1.1409 -1.0047  2.1986
16016TIP3   OH269538   1.506   6.346  16.293 -0.0201 -0.1309 -0.6526
16016TIP3    H169539   1.513   6.250  16.294 -1.9198 -0.3159  0.2258
16016TIP3    H269540   1.451   6.366  16.217  3.1959  0.6152 -2.9595
16017TIP3   OH269541   0.298   2.650   3.928 -0.3079 -0.1792 -0.5658
16017TIP3    H169542   0.359   2.579   3.947 -2.2447 -2.0946 -1.0817
16017TIP3    H269543   0.339   2.698   3.857  1.6041 -0.0098  0.5823
16018TIP3   OH269544   4.450   3.420   2.523  0.4625 -0.1310  0.3522
16018TIP3    H169545   4.532   3.470   2.524  0.8165 -0.6803 -0.3320
16018TIP3    H269546   4.477   3.330   2.507 -0.3365 -0.1689 -0.9329
16019TIP3   OH269547   5.137   3.168  13.369 -0.0836  0.0934 -0.7298
16019TIP3    H169548   5.071   3.236  13.359  0.8735  1.1822  0.1252
16019TIP3    H269549   5.127   3.138  13.460  1.6372  1.4236 -0.0614
16020TIP3   OH269550   6.213   1.804  13.696  0.2189 -0.7439  0.2323
16020TIP3    H169551   6.153   1.867  13.656  1.2442  0.7115  0.8885
16020TIP3    H269552   6.164   1.770  13.771 -0.3517 -0.7296 -0.1269
16021TIP3   OH269553   0.032   6.184   4.977 -0.7556  0.1812 -0.0047
16021TIP3    H169554  -0.009   6.203   5.061 -0.8144  1.0307 -0.2187
16021TIP3    H269555  -0.019   6.234   4.913 -1.2328 -1.1041 -0.6670
16022TIP3   OH269556   2.222   3.368   1.388 -0.1721 -0.3104 -0.2581
16022TIP3    H169557   2.181   3.304   1.446 -0.1011 -0.7524 -0.6920
16022TIP3    H269558   2.238   3.320   1.307 -0.4524  0.3517 -0.7145
16023TIP3   OH269559   2.946   4.957   6.836  0.0500 -0.1792  0.2431
16023TIP3    H169560   3.034   4.994   6.842  1.0505 -1.7816 -2.5654
16023TIP3    H269561   2.960   4.862   6.841 -1.5977 -0.4366  0.4124
16024TIP3   OH269562   6.389   4.730  12.672 -0.2266 -0.1471 -0.3578
16024TIP3    H169563   6.470   4.754  12.718  0.8777 -0.0213 -2.2471
16024TIP3    H269564   6.319   4.769  12.724  1.0445  1.0786  0.4975
16025TIP3   OH269565   4.815   5.767  13.108 -0.3474  0.1511 -0.2037
16025TIP3    H169566   4.813   5.821  13.188 -1.3752  0.0163 -0.1298
16025TIP3    H269567   4.755   5.811  13.048  2.3224  1.7393 -1.9298
16026TIP3   OH269568   5.174   1.671  13.877  0.1764 -0.5078  0.4239
16026TIP3    H169569   5.174   1.765  13.859  0.8707  0.0044  2.7951
16026TIP3    H269570   5.217   1.632  13.801  1.7824  1.3277  0.3186
16027TIP3   OH269571   0.634   5.102   3.397 -0.1458 -0.0847  0.2780
16027TIP3    H169572   0.665   5.186   3.363  0.8321 -0.9355 -1.0155
16027TIP3    H269573   0.697   5.038   3.365 -0.6765 -1.2868  1.5359
16028TIP3   OH269574   3.012   2.298  12.264 -0.1989  0.0957  0.3160
16028TIP3    H169575   3.083   2.234  12.252  0.4227  0.7637  0.3443
16028TIP3    H269576   2.971   2.274  12.346  0.4326  0.1030  0.6387
16029TIP3   OH269577   3.351   6.127  17.077 -0.2562 -0.3693 -0.2031
16029TIP3    H169578   3.315   6.215  17.085  0.1977  0.1821 -2.9959
16029TIP3    H269579   3.309   6.077  17.146 -1.9330  1.6033  0.3002
16030TIP3   OH269580   0.402   1.193   4.241  0.0116  0.2834 -0.2326
16030TIP3    H169581   0.468   1.243   4.288 -0.0314  0.0490  0.0832
16030TIP3    H269582   0.341   1.259   4.207  0.3957  0.4977 -0.5119
16031TIP3   OH269583   2.595   3.632   5.795  0.5260 -0.0494 -0.0106
16031TIP3    H169584   2.655   3.664   5.728  0.6833 -0.1146  0.0980
16031TIP3    H269585   2.607   3.693   5.868  2.1578 -1.3794  0.8910
16032TIP3   OH269586   2.938   1.819  12.783  0.1662 -0.6013  0.7354
16032TIP3    H169587   2.928   1.724  12.785 -0.0389 -0.5767  1.0365
16032TIP3    H269588   2.897   1.847  12.701  1.4782 -0.9063 -0.0518
16033TIP3   OH269589   6.345   5.857   3.718  0.1127 -0.2114 -0.4123
16033TIP3    H169590   6.333   5.948   3.743  1.4542  0.4348 -1.9619
16033TIP3    H269591   6.261   5.830   3.681  0.4109  1.1650 -2.1715
16034TIP3   OH269592   0.638   2.625   3.488 -0.7840 -0.6629  0.4676
16034TIP3    H169593   0.660   2.551   3.431 -0.6505 -0.6636  0.5216
16034TIP3    H269594   0.577   2.677   3.436  2.3373  1.5293 -1.3251
16035TIP3   OH269595   2.133   4.142   1.149 -0.2568  0.4639  0.6374
16035TIP3    H169596   2.064   4.076   1.149 -0.9684  1.1188 -1.5026
16035TIP3    H269597   2.214   4.091   1.149 -0.7695 -0.3831  0.6129
16036TIP3   OH269598   5.079   4.148   0.994 -0.3806 -0.5056  0.1565
16036TIP3    H169599   5.079   4.124   1.087 -0.7537  0.5506  0.4414
16036TIP3    H269600   4.993   4.186   0.979 -0.3230 -0.6779 -0.6279
16037TIP3   OH269601   2.539   2.554   4.963 -1.0448 -0.1017  0.2104
16037TIP3    H169602   2.622   2.564   4.916 -0.3458  3.4673  1.9247
16037TIP3    H269603   2.558   2.492   5.034 -1.4967 -3.6539 -2.4560
16038TIP3   OH269604   0.034   5.355   6.480  0.1594  0.0697 -0.9011
16038TIP3    H169605   0.126   5.354   6.453  0.4584  0.8220  0.0347
16038TIP3    H269606  -0.003   5.432   6.437 -0.7402 -1.6098 -3.3690
16039TIP3   OH269607   2.099   2.034   0.936  0.0152  0.4949  0.6897
16039TIP3    H169608   2.145   2.031   0.852 -0.7497  1.0214  0.2275
16039TIP3    H269609   2.108   1.946   0.972 -0.0147  0.1302 -0.1597
16040TIP3   OH269610   4.410   5.192   1.362  0.4317  0.4068  0.2682
16040TIP3    H169611   4.500   5.223   1.359  0.2905  0.9873  1.3795
16040TIP3    H269612   4.398   5.161   1.452 -0.1008 -0.8680 -0.2161
16041TIP3   OH269613   5.246   2.779   4.711 -0.3582 -0.4658  0.3863
16041TIP3    H169614   5.205   2.865   4.697  0.7369 -0.0088 -0.1680
16041TIP3    H269615   5.231   2.732   4.630  1.4770  0.2644 -0.4259
16042TIP3   OH269616   3.074   5.381   2.710 -0.5263  0.1290  0.3350
16042TIP3    H169617   3.139   5.410   2.774 -1.7633  0.4017  1.5240
16042TIP3    H269618   3.122   5.376   2.628  0.7003  1.5529  0.9100
16043TIP3   OH269619   4.198   3.689  16.041  0.3200 -0.2852  0.4940
16043TIP3    H169620   4.113   3.674  16.082  0.6107 -2.3691  0.4163
16043TIP3    H269621   4.177   3.731  15.958 -0.6574 -1.0798  0.3249
16044TIP3   OH269622   4.511   1.382   4.129  0.5180  0.4358 -0.0789
16044TIP3    H169623   4.546   1.361   4.043  0.7380 -2.2360  0.5671
16044TIP3    H269624   4.571   1.340   4.191 -1.6905 -1.0715  1.1903
16045TIP3   OH269625   0.545   2.428   0.960  0.3108  0.0543  0.0662
16045TIP3    H169626   0.546   2.453   1.052  0.1335  1.2696 -0.2412
16045TIP3    H269627   0.553   2.511   0.912 -2.1517 -0.2551 -1.0402
16046TIP3   OH269628   4.851   2.716  12.268  0.3157 -0.0875  0.1718
16046TIP3    H169629   4.938   2.753  12.283 -0.0554  0.7320  0.3207
16046TIP3    H269630   4.794   2.792  12.259 -0.4624 -0.6253  0.5204
16047TIP3   OH269631   6.359   0.045  14.551  0.0543  0.3668 -0.1654
16047TIP3    H169632   6.446   0.086  14.544  0.7670 -0.6623  1.8932
16047TIP3    H269633   6.364  -0.031  14.494  0.8171 -0.1200  0.5230
16048TIP3   OH269634   0.610   0.025   5.268  0.0885  0.2969 -0.2914
16048TIP3    H169635   0.665  -0.023   5.206  0.6013 -1.2771  1.2846
16048TIP3    H269636   0.672   0.063   5.330 -0.2419  3.7136 -1.8244
16049TIP3   OH269637   1.696   0.972  13.533 -0.0149  0.4341 -0.1957
16049TIP3    H169638   1.721   0.900  13.590  0.8350  2.0407  1.5534
16049TIP3    H269639   1.605   0.954  13.509  0.7187 -2.1393 -1.3704
16050TIP3   OH269640   5.180   5.672   6.027  0.1612  0.0414 -0.2248
16050TIP3    H169641   5.193   5.591   5.978  0.1747  1.1733 -2.1629
16050TIP3    H269642   5.264   5.717   6.022 -0.1759  0.6966 -0.1589
16051TIP3   OH269643   4.396   2.751  13.293 -0.0906 -0.0521 -0.2034
16051TIP3    H169644   4.394   2.842  13.323  2.7167  0.2582 -0.6608
16051TIP3    H269645   4.470   2.712  13.341 -1.1736 -2.0892 -0.0835
16052TIP3   OH269646   6.618   6.566   2.784 -0.5819  0.3087 -0.3288
16052TIP3    H169647   6.650   6.524   2.705  1.5257  0.9649  0.1279
16052TIP3    H269648   6.677   6.639   2.799 -1.7642  1.0305  1.1097
16053TIP3   OH269649   2.302   0.502   3.551 -0.3555  0.1221  0.1255
16053TIP3    H169650   2.256   0.586   3.557 -0.2939  0.3302 -1.7395
16053TIP3    H269651   2.381   0.521   3.499  0.1487 -0.9040  0.4805
16054TIP3   OH269652   1.493   0.777   1.568  0.3120 -0.1305  0.0400
16054TIP3    H169653   1.587   0.784   1.554  0.0970  0.9392 -1.0241
16054TIP3    H269654   1.463   0.867   1.581 -0.3216 -0.5963  2.2459
16055TIP3   OH269655   1.078   0.303   4.880 -1.0829 -0.3452  0.4322
16055TIP3    H169656   1.099   0.311   4.974 -2.2850  0.4985  0.6392
16055TIP3    H269657   1.033   0.219   4.873  0.0434 -0.9716  0.3936
16056TIP3   OH269658   4.294   5.378  12.469  0.2207 -0.6094 -0.3310
16056TIP3    H169659   4.270   5.459  12.512 -0.8835 -0.3889 -1.2939
16056TIP3    H269660   4.218   5.322  12.479 -0.2194 -0.4311 -2.2185
16057TIP3   OH269661   4.800   6.781  10.894  0.0438 -0.8313 -0.5466
16057TIP3    H169662   4.890   6.804  10.916 -0.1893  0.9536 -1.3479
16057TIP3    H269663   4.746   6.846  10.939 -0.7085 -0.5163 -1.8337
16058TIP3   OH269664   4.303   0.835  12.836  0.3147  0.3381  0.6461
16058TIP3    H169665   4.226   0.811  12.785 -0.4398  1.1872  1.3513
16058TIP3    H269666   4.341   0.909  12.789 -0.0365  0.7341  0.9780
16059TIP3   OH269667   0.567   4.459  15.524 -0.4057 -0.5132  0.9639
16059TIP3    H169668   0.597   4.515  15.596  0.0782  0.2965  0.1514
16059TIP3    H269669   0.518   4.389  15.567 -0.2065  0.0076  2.0735
16060TIP3   OH269670   4.883   1.271  10.633  0.2298  0.2698 -0.0507
16060TIP3    H169671   4.885   1.361  10.601 -1.9013 -0.2175 -1.7960
16060TIP3    H269672   4.831   1.274  10.713  0.2214  0.5853 -0.0680
16061TIP3   OH269673   5.325   3.898  15.909 -0.6038  0.4384  0.1874
16061TIP3    H169674   5.385   3.883  15.836 -1.5055  0.8110 -0.6565
16061TIP3    H269675   5.356   3.839  15.978 -0.2567 -0.5714 -0.8068
16062TIP3   OH269676   0.913   5.266  15.266 -0.2953 -0.4572 -0.1625
16062TIP3    H169677   0.984   5.256  15.203 -0.7099 -0.8746 -0.5705
16062TIP3    H269678   0.878   5.178  15.278 -1.0753 -0.1890 -0.3631
16063TIP3   OH269679   4.373   5.747  13.607  0.2921  0.4094  0.1901
16063TIP3    H169680   4.464   5.765  13.630  0.0238  1.0541  0.7681
16063TIP3    H269681   4.331   5.833  13.606 -0.2114  0.1622 -0.5191
16064TIP3   OH269682   4.429   1.682   1.427 -0.3571 -0.0370 -0.4770
16064TIP3    H169683   4.368   1.621   1.468 -0.4804  0.5709  0.2720
16064TIP3    H269684   4.375   1.757   1.401  0.3513  1.5945  2.3665
16065TIP3   OH269685   5.287   6.068   2.953  0.0825  0.1976 -0.1402
16065TIP3    H169686   5.199   6.043   2.925  0.4083  1.1782 -2.3029
16065TIP3    H269687   5.273   6.129   3.026 -0.8121 -2.7987  2.3846
16066TIP3   OH269688   5.581   3.955   3.249  0.3605 -0.3168 -0.0950
16066TIP3    H169689   5.626   4.036   3.272 -2.3999  1.8858 -1.8087
16066TIP3    H269690   5.626   3.924   3.170  2.1151 -1.1489  1.1745
16067TIP3   OH269691   4.616   5.755  14.845  0.3795 -0.6345 -0.2920
16067TIP3    H169692   4.587   5.664  14.839  0.6138 -0.6816 -0.8293
16067TIP3    H269693   4.572   5.799  14.772 -2.3407  0.4557  1.8179
16068TIP3   OH269694   2.904   5.391  13.379 -0.3965  0.0419 -0.2529
16068TIP3    H169695   2.933   5.398  13.288  3.9628  0.5511  0.9721
16068TIP3    H269696   2.876   5.480  13.402  0.0976  0.2977 -0.6260
16069TIP3   OH269697   5.082   1.806  14.503  0.3531 -0.2548  0.0840
16069TIP3    H169698   5.167   1.814  14.460  0.6121 -1.0871  0.4305
16069TIP3    H269699   5.100   1.818  14.596  0.0489 -0.1856  0.1369
16070TIP3   OH269700   0.649   4.194  14.681 -0.0149  0.5103 -0.3689
16070TIP3    H169701   0.625   4.102  14.677 -0.8927  0.7828 -2.3444
16070TIP3    H269702   0.737   4.194  14.717 -0.5984 -0.9552  1.2401
16071TIP3   OH269703   6.645   0.013  16.577 -0.6835  0.2151 -0.0302
16071TIP3    H169704   6.683  -0.051  16.637 -0.6474 -1.0633 -1.3576
16071TIP3    H269705   6.578  -0.036  16.529  0.7557  0.5179 -2.5402
16072TIP3   OH269706   0.504   5.755  17.200  0.2879 -0.4629 -0.0197
16072TIP3    H169707   0.441   5.817  17.163  1.0456 -0.2006 -0.8941
16072TIP3    H269708   0.506   5.683  17.138 -0.5005 -1.3382  0.9357
16073TIP3   OH269709   1.397   5.524  11.568  0.3230  0.3223  0.3661
16073TIP3    H169710   1.378   5.468  11.493  1.1316 -0.5658  0.8017
16073TIP3    H269711   1.317   5.576  11.581 -0.6313 -1.0612  0.2377
16074TIP3   OH269712   1.901   4.919   4.311 -0.2091  0.4839 -0.0516
16074TIP3    H169713   1.931   4.994   4.362  1.9531  0.3919 -1.0616
16074TIP3    H269714   1.955   4.846   4.340  1.5146  0.5511 -2.7492
16075TIP3   OH269715   0.271   2.849  14.048  0.1657  0.1962  0.1682
16075TIP3    H169716   0.182   2.829  14.078 -0.6464  1.4899 -1.2024
16075TIP3    H269717   0.266   2.842  13.953  1.6540 -0.1230  0.1017
16076TIP3   OH269718   3.893   0.079  14.477  0.1697 -0.0551  0.2271
16076TIP3    H169719   3.943   0.031  14.542  0.5735 -0.3942 -0.3297
16076TIP3    H269720   3.824   0.122  14.527 -0.4534 -1.5396  0.6905
16077TIP3   OH269721   1.812   3.041  11.691  0.1205 -0.2023  0.0769
16077TIP3    H169722   1.893   3.028  11.640  0.1765 -1.6287  0.4959
16077TIP3    H269723   1.817   3.132  11.719  2.1341 -0.5141  0.9736
16078TIP3   OH269724   5.297   6.424  17.052 -0.6740  0.1467 -0.0322
16078TIP3    H169725   5.384   6.406  17.018 -0.4382  0.1714  0.5477
16078TIP3    H269726   5.279   6.351  17.112 -1.3758 -0.2788 -0.7407
16079TIP3   OH269727   1.215   1.732  14.972 -0.2324 -0.3353 -0.1141
16079TIP3    H169728   1.309   1.751  14.976 -0.0051 -1.4757  2.6558
16079TIP3    H269729   1.192   1.709  15.062 -2.8980 -1.4367 -0.9837
16080TIP3   OH269730   1.741   6.699  16.806 -0.0533  0.1039  0.5110
16080TIP3    H169731   1.746   6.725  16.714 -2.4882  0.8163  0.4891
16080TIP3    H269732   1.746   6.782  16.854 -1.0144 -0.0253  0.8591
16081TIP3   OH269733   0.424   4.426  11.078  0.1496 -0.1003  0.6149
16081TIP3    H169734   0.436   4.520  11.061 -0.1969 -0.0188  0.8057
16081TIP3    H269735   0.422   4.419  11.173  0.3271 -0.3244  0.6036
16082TIP3   OH269736   0.976   2.500  11.009  0.7193 -0.1724 -0.0319
16082TIP3    H169737   1.052   2.555  10.990  0.9803 -0.1674  0.9585
16082TIP3    H269738   0.962   2.511  11.103  1.0575 -2.1562  0.2883
16083TIP3   OH269739   4.599   0.926  13.581 -0.2119  0.0419 -0.2594
16083TIP3    H169740   4.609   0.992  13.649 -2.7278 -0.0452  0.3103
16083TIP3    H269741   4.618   0.972  13.499 -0.8593  1.2160  0.2248
16084TIP3   OH269742   2.248   6.598  14.835  0.4833  0.1674  0.0196
16084TIP3    H169743   2.285   6.662  14.897  2.0953 -0.7737  0.0975
16084TIP3    H269744   2.322   6.574  14.779 -0.5708 -0.1888 -1.2746
16085TIP3   OH269745   4.252   3.609   3.591 -0.1220 -0.6360  0.1994
16085TIP3    H169746   4.167   3.652   3.580  0.3333 -0.1327 -1.5648
16085TIP3    H269747   4.316   3.679   3.578  0.5999 -1.0801  1.2012
16086TIP3   OH269748   2.521   1.971   2.493  0.5782 -0.4664  0.6354
16086TIP3    H169749   2.461   2.030   2.448 -1.6681 -0.8358  2.8793
16086TIP3    H269750   2.608   1.997   2.464 -0.5681  1.0262 -1.7242
16087TIP3   OH269751   3.333   4.540   3.001  0.2514  0.3828  0.1428
16087TIP3    H169752   3.410   4.542   2.945  0.9389 -0.4412  1.0213
16087TIP3    H269753   3.367   4.520   3.088 -0.9885 -0.2853  0.5003
16088TIP3   OH269754   5.457   4.065   0.863 -1.1382  0.4618 -0.4149
16088TIP3    H169755   5.420   4.066   0.951  1.6105 -0.3640  0.8806
16088TIP3    H269756   5.511   4.144   0.859 -1.9559  0.9848 -1.7487
16089TIP3   OH269757   6.422   4.611   1.307  0.1601  0.8499 -0.2181
16089TIP3    H169758   6.487   4.563   1.356  0.3357  1.3885  0.0881
16089TIP3    H269759   6.429   4.701   1.339 -0.6360  0.9456 -0.2742
16090TIP3   OH269760   6.190   3.864  15.551 -0.3216  0.2698 -0.7735
16090TIP3    H169761   6.113   3.881  15.604  0.2583 -1.6338  0.7927
16090TIP3    H269762   6.258   3.920  15.589 -0.2045 -0.2221 -0.2520
16091TIP3   OH269763   2.072   6.628   5.471 -0.0499 -0.7977  0.1805
16091TIP3    H169764   2.001   6.598   5.414 -1.1279  0.4393  0.8305
16091TIP3    H269765   2.028   6.674   5.542  1.4343  0.9307  0.0382
16092TIP3   OH269766   4.326   4.219  14.792  0.0346 -0.1053  0.3721
16092TIP3    H169767   4.238   4.181  14.789  0.4333 -1.0696  0.6006
16092TIP3    H269768   4.312   4.311  14.813 -0.9058 -0.2983  0.6252
16093TIP3   OH269769   0.868   2.733  15.414 -0.4285 -0.6197 -0.8373
16093TIP3    H169770   0.905   2.648  15.390  1.1707  0.0975 -1.0024
16093TIP3    H269771   0.910   2.755  15.497 -0.9813 -0.0639 -0.7015
16094TIP3   OH269772   1.081   3.155  14.204 -0.3956  0.3629  0.3881
16094TIP3    H169773   1.109   3.202  14.282 -2.7372  1.4332  0.6723
16094TIP3    H269774   1.002   3.201  14.175  0.4660  0.0922 -2.7244
16095TIP3   OH269775   0.398   4.461   2.837  0.6492  0.0685  0.4278
16095TIP3    H169776   0.359   4.373   2.841  1.8061 -0.4800  0.1966
16095TIP3    H269777   0.360   4.507   2.912 -0.3285 -0.4691  0.2875
16096TIP3   OH269778   6.815   6.076   4.027 -0.4435 -0.1578  0.2847
16096TIP3    H169779   6.786   6.166   4.044 -1.1550 -0.3312  0.0269
16096TIP3    H269780   6.910   6.083   4.016 -0.1729  0.2487  2.4386
16097TIP3   OH269781   1.474   0.633  14.732 -0.6337 -0.3885 -0.2997
16097TIP3    H169782   1.505   0.670  14.814 -1.6255  0.5520 -0.3320
16097TIP3    H269783   1.470   0.538  14.748 -0.4045 -0.2567  0.5861
16098TIP3   OH269784   1.535   1.208  10.441  0.0198 -0.0567 -0.6334
16098TIP3    H169785   1.528   1.281  10.504  0.3594 -0.2056 -0.4221
16098TIP3    H269786   1.448   1.169  10.441 -0.1650  0.3487 -0.7444
16099TIP3   OH269787   1.092   6.007   2.053 -0.0662  0.1376  0.5036
16099TIP3    H169788   0.999   6.029   2.057 -0.3284 -0.7922 -0.0371
16099TIP3    H269789   1.124   6.024   2.141 -0.7093  0.6296  0.6508
16100TIP3   OH269790   4.000   4.974  11.326  0.0555  0.4411 -0.0941
16100TIP3    H169791   4.076   4.971  11.268  0.1449 -0.9925  0.0588
16100TIP3    H269792   3.962   5.061  11.311  1.0859  0.7624 -0.9832
16101TIP3   OH269793   4.817   6.797   1.765  0.2006  0.0057 -0.0973
16101TIP3    H169794   4.749   6.808   1.832  0.1758  1.9704 -0.3833
16101TIP3    H269795   4.878   6.734   1.803  1.1347  2.3419  2.6098
16102TIP3   OH269796   4.725   6.562  10.742 -0.0100  0.1431 -0.1144
16102TIP3    H169797   4.699   6.494  10.805  1.7577 -0.4365  0.0522
16102TIP3    H269798   4.755   6.635  10.796 -1.0087  0.7057 -0.3010
16103TIP3   OH269799   2.625   1.600  12.117  0.2453 -0.0278  0.9760
16103TIP3    H169800   2.643   1.689  12.146  1.4084  0.2846 -0.5305
16103TIP3    H269801   2.537   1.602  12.081  0.8956  1.0347 -0.7066
16104TIP3   OH269802   1.112   2.356  16.138 -0.4928  0.2221  0.0912
16104TIP3    H169803   1.175   2.289  16.164  1.0543  1.6696  0.2048
16104TIP3    H269804   1.104   2.412  16.216 -0.1135  1.3854 -0.6886
16105TIP3   OH269805   1.167   1.368  12.165  0.5563  0.1058 -0.2113
16105TIP3    H169806   1.181   1.313  12.242 -0.1477 -0.3142 -0.3773
16105TIP3    H269807   1.206   1.452  12.189 -0.4192  0.2607  0.9462
16106TIP3   OH269808   5.627   0.705   2.522  0.4152  0.4126  0.4072
16106TIP3    H169809   5.564   0.777   2.516  0.4626  0.4463  0.3088
16106TIP3    H269810   5.710   0.748   2.544  0.3343  0.3338  0.8730
16107TIP3   OH269811   6.720   3.914   4.578  0.2141  0.1558  0.2052
16107TIP3    H169812   6.647   3.932   4.636 -0.9482  1.2916 -1.5200
16107TIP3    H269813   6.756   3.830   4.609 -0.2275  0.7936  2.6014
16108TIP3   OH269814   5.837   3.184  16.134  0.1604 -0.3026  0.1152
16108TIP3    H169815   5.784   3.263  16.141  0.3830 -0.1115 -0.3335
16108TIP3    H269816   5.812   3.145  16.050  0.0373 -0.7212  0.3393
16109TIP3   OH269817   1.509   4.364   2.139 -0.2880  0.1287 -0.1948
16109TIP3    H169818   1.419   4.394   2.126 -1.4099 -2.1030  1.6746
16109TIP3    H269819   1.525   4.306   2.065 -0.5155  0.2779 -0.3642
16110TIP3   OH269820   4.658   2.727  13.849 -0.1929 -0.4910 -0.3486
16110TIP3    H169821   4.714   2.776  13.909  1.5886 -0.5265 -1.8738
16110TIP3    H269822   4.573   2.770  13.855  0.4569  0.7292  0.7435
16111TIP3   OH269823   6.535   6.514  16.760  0.0615  0.8179 -0.6874
16111TIP3    H169824   6.513   6.459  16.685  0.7825 -1.1714  0.4917
16111TIP3    H269825   6.605   6.571  16.728  1.7687 -1.3626 -1.0426
16112TIP3   OH269826   4.802   5.860   5.061 -0.2285  0.1737 -0.3570
16112TIP3    H169827   4.867   5.879   4.993  1.5213 -2.7749  0.3199
16112TIP3    H269828   4.758   5.781   5.032 -2.9068  1.5221 -0.2582
16113TIP3   OH269829   5.198   1.839   3.542  0.2135 -0.1956 -0.4942
16113TIP3    H169830   5.264   1.849   3.473 -0.9409 -1.3961 -1.8515
16113TIP3    H269831   5.149   1.761   3.516 -1.3353  0.2941  0.8045
16114TIP3   OH269832   2.724   4.770  12.254 -0.0450  0.0319  0.1969
16114TIP3    H169833   2.695   4.816  12.175 -0.3729  1.8850  1.3241
16114TIP3    H269834   2.803   4.724  12.227  1.9689  3.4985 -0.4820
16115TIP3   OH269835   3.063   0.204   5.294  0.8050 -0.1749  0.2078
16115TIP3    H169836   2.992   0.165   5.243  0.3536  0.6125  0.2097
16115TIP3    H269837   3.125   0.132   5.308  0.7738 -0.5037 -1.1368
16116TIP3   OH269838   3.741   3.045  15.856  0.6990 -0.2361 -0.0838
16116TIP3    H169839   3.713   3.072  15.943  1.2203 -1.1690  0.3878
16116TIP3    H269840   3.794   3.117  15.824  1.2099 -0.2470  0.7194
16117TIP3   OH269841   6.534   4.328  14.868  0.1780 -0.7775  0.2893
16117TIP3    H169842   6.485   4.246  14.874 -0.9588 -0.1017  0.3668
16117TIP3    H269843   6.468   4.395  14.856  1.1485  0.0357 -0.8282
16118TIP3   OH269844   4.365   4.639   4.406  0.0668 -0.3275 -0.6440
16118TIP3    H169845   4.338   4.698   4.475  3.8258 -0.7674  1.4904
16118TIP3    H269846   4.360   4.691   4.326  0.3358  1.9110  0.7175
16119TIP3   OH269847   2.555   3.679   2.981  0.2900 -0.0470 -0.8439
16119TIP3    H169848   2.512   3.754   2.941  1.0815  0.1895 -1.2811
16119TIP3    H269849   2.647   3.706   2.989  0.6318 -1.0433 -1.2210
16120TIP3   OH269850   2.261   5.050   4.299 -0.5525  0.3569  0.7987
16120TIP3    H169851   2.166   5.056   4.287 -0.2994  0.9874 -1.3111
16120TIP3    H269852   2.288   4.979   4.240  0.6017  2.2707 -1.1160
16121TIP3   OH269853   4.663   2.225  17.167  0.1148  0.1097  0.3613
16121TIP3    H169854   4.587   2.170  17.184  0.6778 -0.7170  0.2665
16121TIP3    H269855   4.631   2.293  17.108 -0.1095 -1.3922 -1.3436
16122TIP3   OH269856   0.750   3.944  13.472 -0.3957  0.2458 -0.0780
16122TIP3    H169857   0.729   4.026  13.428  0.4705  0.5366  0.0526
16122TIP3    H269858   0.816   3.966  13.536  1.7670 -0.9571 -1.7448
16123TIP3   OH269859   0.602   1.671   6.662 -0.0538  0.3103 -0.3725
16123TIP3    H169860   0.665   1.709   6.600  0.5616  2.8772  1.6054
16123TIP3    H269861   0.518   1.679   6.619  0.5228  0.6247 -1.4752
16124TIP3   OH269862   5.707   1.804   4.566  0.5055  0.0920  0.7351
16124TIP3    H169863   5.714   1.730   4.627 -0.2735 -0.1474  0.5433
16124TIP3    H269864   5.742   1.878   4.614  3.1501 -0.7283  0.2839
16125TIP3   OH269865   1.744   1.640  12.436 -0.2696 -0.0504 -0.2163
16125TIP3    H169866   1.702   1.567  12.481 -0.9883  0.8664  0.6385
16125TIP3    H269867   1.816   1.600  12.388 -0.4421 -1.2722  0.5052
16126TIP3   OH269868   5.626   4.628   4.553  0.5059 -0.0258 -0.3845
16126TIP3    H169869   5.538   4.614   4.587 -0.0060 -1.4797 -2.1517
16126TIP3    H269870   5.684   4.592   4.621 -0.3445 -0.7713 -0.0444
16127TIP3   OH269871   0.831   5.794   0.125 -0.1056 -0.0825 -0.4393
16127TIP3    H169872   0.847   5.830   0.038  0.9539 -2.7390 -1.4602
16127TIP3    H269873   0.768   5.724   0.111  1.5091 -1.8488  0.5338
16128TIP3   OH269874   0.978   5.521  10.262 -0.1844 -0.1915 -0.0967
16128TIP3    H169875   0.941   5.544  10.348 -1.7947 -1.1912 -0.4703
16128TIP3    H269876   0.904   5.483  10.214  0.2191  1.8875 -2.5874
16129TIP3   OH269877   2.419   2.030  12.045  0.0509  0.0014 -0.4966
16129TIP3    H169878   2.354   1.960  12.036 -1.7095  1.2458  1.4874
16129TIP3    H269879   2.377   2.107  12.006 -0.2477  1.0813  1.7559
16130TIP3   OH269880   0.322   3.884   0.974  0.1793  0.1293  0.0835
16130TIP3    H169881   0.405   3.859   1.014  0.4151  2.3895  1.2191
16130TIP3    H269882   0.325   3.846   0.886  2.7742  0.7388 -0.1899
16131TIP3   OH269883   3.118   0.889  12.429  0.0615 -0.8009 -0.3112
16131TIP3    H169884   3.162   0.830  12.368 -0.2306 -0.1858 -1.1341
16131TIP3    H269885   3.027   0.890  12.400  0.0841  0.1320 -0.3732
16132TIP3   OH269886   0.122   6.243  14.266 -0.3397  0.3455  0.0746
16132TIP3    H169887   0.103   6.292  14.186 -1.9095  1.7594  1.2123
16132TIP3    H269888   0.036   6.225  14.304  0.2922 -1.7631  0.6395
16133TIP3   OH269889   3.957   5.611  14.844  0.0343  0.0876  0.0243
16133TIP3    H169890   3.921   5.574  14.763 -2.2743  2.0629  0.0321
16133TIP3    H269891   3.940   5.705  14.836 -0.2888  0.3378  2.8161
16134TIP3   OH269892   3.856   5.789   0.850 -0.9156 -0.1984  0.0232
16134TIP3    H169893   3.801   5.800   0.772 -2.1453 -0.8162  0.7694
16134TIP3    H269894   3.874   5.695   0.853 -0.1299 -0.0539  0.0122
16135TIP3   OH269895   5.451   2.760  12.296 -0.0203  0.6412 -0.1470
16135TIP3    H169896   5.527   2.702  12.306 -2.0913 -2.3025 -0.3393
16135TIP3    H269897   5.398   2.743  12.374 -0.9414  1.9938 -0.4549
16136TIP3   OH269898   1.919   1.066  13.825 -0.0117  0.0074  0.3338
16136TIP3    H169899   2.010   1.055  13.798 -0.7135 -0.2839 -2.1836
16136TIP3    H269900   1.910   1.009  13.902  1.2701 -2.1586 -1.0093
16137TIP3   OH269901   5.372   4.276   0.630  0.3807  0.5997  0.2541
16137TIP3    H169902   5.306   4.331   0.671  1.3705  1.9765  0.0619
16137TIP3    H269903   5.439   4.263   0.698 -0.3626 -1.3586  0.6794
16138TIP3   OH269904   3.474   1.598   0.046 -0.4121  0.1415 -0.4731
16138TIP3    H169905   3.497   1.519  -0.004  1.2797  1.0053 -1.1846
16138TIP3    H269906   3.424   1.651  -0.016  0.0593  0.3990 -0.6451
16139TIP3   OH269907   5.129   1.979   0.701  0.0252 -0.4333  0.3654
16139TIP3    H169908   5.188   1.993   0.776 -0.2678 -0.6995  0.6512
16139TIP3    H269909   5.095   1.890   0.714 -0.0297 -0.4824 -0.0873
16140TIP3   OH269910   1.278   5.727  12.728 -0.3444 -0.4097  0.4488
16140TIP3    H169911   1.335   5.798  12.699  1.0070 -1.6789 -0.1387
16140TIP3    H269912   1.192   5.749  12.691 -0.4908  1.9236  1.9861
16141TIP3   OH269913   5.185   0.284   2.744 -0.1772  0.0948 -0.3927
16141TIP3    H169914   5.280   0.285   2.751 -0.0967 -0.7022 -1.1706
16141TIP3    H269915   5.163   0.191   2.738 -0.8407  0.3272 -2.0928
16142TIP3   OH269916   3.658   5.922   1.740 -0.0679  0.6535 -0.6383
16142TIP3    H169917   3.668   6.016   1.727 -0.4704  0.6858 -0.7257
16142TIP3    H269918   3.567   5.904   1.716 -0.2218  0.3710  0.1334
16143TIP3   OH269919   6.245   5.716  12.532 -0.4351  0.2738  0.2623
16143TIP3    H169920   6.199   5.795  12.502 -1.8776 -0.4420  0.5422
16143TIP3    H269921   6.239   5.656  12.458  0.4285  0.3082  0.1519
16144TIP3   OH269922   6.197   1.945   1.410 -0.2563 -0.0259 -0.4309
16144TIP3    H169923   6.226   2.035   1.422  1.6019 -0.5537 -0.6453
16144TIP3    H269924   6.183   1.912   1.499  0.4925  0.0423 -0.2837
16145TIP3   OH269925   6.680   1.389  14.960 -0.5017  0.5643  0.5434
16145TIP3    H169926   6.725   1.382  15.045  1.1607  0.5673 -0.2946
16145TIP3    H269927   6.617   1.318  14.961  1.2027 -1.0362  0.8528
16146TIP3   OH269928   1.391   3.956   2.210 -0.5869 -0.5665 -0.5906
16146TIP3    H169929   1.447   3.884   2.181 -1.9183 -1.4031 -1.1664
16146TIP3    H269930   1.339   3.979   2.133 -2.5457 -1.2587  0.4659
16147TIP3   OH269931   3.284   3.883   4.153 -0.1303  0.0073 -0.5238
16147TIP3    H169932   3.221   3.937   4.104  0.1738  2.1239  1.2363
16147TIP3    H269933   3.324   3.944   4.216  1.3589 -1.9864  0.5880
16148TIP3   OH269934   3.851   3.991   2.028  0.1041  0.0955  0.0060
16148TIP3    H169935   3.903   3.971   1.951  1.1662 -0.1866  0.7772
16148TIP3    H269936   3.805   3.909   2.049 -0.6995  0.3498 -0.6832
16149TIP3   OH269937   5.878   0.440   5.714 -0.3395 -0.2502 -0.5041
16149TIP3    H169938   5.947   0.427   5.649  0.9237  0.2176  0.6826
16149TIP3    H269939   5.899   0.378   5.783 -0.4542  0.6624  0.3734
16150TIP3   OH269940   3.014   6.486   0.156  0.6970 -0.1844  0.2665
16150TIP3    H169941   3.004   6.541   0.079  1.6451 -0.0945  0.1951
16150TIP3    H269942   2.952   6.414   0.143  2.2154 -1.2578 -1.5769
16151TIP3   OH269943   0.468   6.483   5.860  0.2092 -0.2728 -0.3129
16151TIP3    H169944   0.422   6.493   5.777 -0.8947 -1.8155  0.0730
16151TIP3    H269945   0.417   6.535   5.922  0.6018  0.2642 -0.4305
16152TIP3   OH269946   2.911   6.173   2.091 -0.1989  0.5308  0.1361
16152TIP3    H169947   2.822   6.188   2.059  0.2814  0.1475 -1.4684
16152TIP3    H269948   2.912   6.210   2.179 -2.1203 -0.0321  0.4355
16153TIP3   OH269949   6.745   6.282   1.134  0.4875 -0.1212  0.0856
16153TIP3    H169950   6.801   6.210   1.165  1.5285  1.3851  1.9195
16153TIP3    H269951   6.770   6.294   1.043  3.5490  0.7054  0.9113
16154TIP3   OH269952   3.333   3.120  12.353  0.2680 -0.0802 -0.2932
16154TIP3    H169953   3.378   3.133  12.269  0.1480  0.5042 -0.2681
16154TIP3    H269954   3.383   3.051  12.396  2.5103  2.0502  0.6879
16155TIP3   OH269955   1.677   6.592  12.860 -0.3251 -0.0518 -0.2587
16155TIP3    H169956   1.621   6.643  12.919  0.8767 -0.6925  1.5175
16155TIP3    H269957   1.724   6.657  12.809 -1.3960  0.5179 -0.5541
16156TIP3   OH269958   3.891   3.792  11.582 -0.2944 -0.1686 -0.0317
16156TIP3    H169959   3.871   3.853  11.653  0.8921  0.8051 -0.4903
16156TIP3    H269960   3.878   3.844  11.502 -1.5667 -1.2336 -0.5481
16157TIP3   OH269961   6.620   2.941  15.369  0.1073  0.3080 -0.0265
16157TIP3    H169962   6.682   2.989  15.424 -2.3951  3.6344  0.2260
16157TIP3    H269963   6.579   2.879  15.430  2.5937 -1.5292 -0.0741
16158TIP3   OH269964   6.590   0.714   1.086 -0.0701  0.1824  0.1819
16158TIP3    H169965   6.680   0.727   1.056  0.2225 -0.6515  0.6452
16158TIP3    H269966   6.588   0.753   1.174  0.1662 -0.7736  0.6278
16159TIP3   OH269967   2.962   1.384   3.189  0.1108  0.0116 -0.1025
16159TIP3    H169968   3.029   1.418   3.248  0.6530  2.7574 -2.0655
16159TIP3    H269969   3.010   1.364   3.108 -1.2568  1.3222 -1.3039
16160TIP3   OH269970   3.325   2.461  15.837 -0.3190  0.2786  0.4734
16160TIP3    H169971   3.356   2.464  15.746 -0.9753  0.5388  0.2463
16160TIP3    H269972   3.365   2.383  15.874 -1.0447 -0.5592 -0.4327
16161TIP3   OH269973   4.843   4.058  16.255  0.2345 -0.9429 -0.0854
16161TIP3    H169974   4.857   4.135  16.200  0.1582 -1.6492 -1.1102
16161TIP3    H269975   4.748   4.056  16.270  0.3059 -0.4800  0.5023
16162TIP3   OH269976   2.865   2.765  13.814 -0.0738 -0.2183  0.2263
16162TIP3    H169977   2.858   2.835  13.749 -0.2810 -1.2844 -0.9335
16162TIP3    H269978   2.959   2.754  13.828 -0.0164 -0.2151 -0.1510
16163TIP3   OH269979   0.569   0.805  16.278 -0.0400  0.1448  0.6698
16163TIP3    H169980   0.504   0.765  16.220 -0.5242  1.5145  0.2184
16163TIP3    H269981   0.530   0.889  16.303  0.5629 -0.0100  2.2520
16164TIP3   OH269982   3.050   6.574   2.827 -0.1141  0.3292 -0.1909
16164TIP3    H169983   3.026   6.530   2.909  0.4635  2.1139  0.9723
16164TIP3    H269984   2.977   6.632   2.808 -0.3325 -0.2051 -1.0815
16165TIP3   OH269985   3.482   0.860  14.785  0.1477 -0.4061  0.1890
16165TIP3    H169986   3.576   0.871  14.777  0.1260  0.0841  0.5619
16165TIP3    H269987   3.445   0.944  14.757 -0.2542 -1.0382 -1.3080
16166TIP3   OH269988   6.678   1.446  12.351  0.2426  0.2384 -0.0098
16166TIP3    H169989   6.598   1.450  12.299 -0.0404 -0.0972  0.3851
16166TIP3    H269990   6.696   1.352  12.360 -0.4331  0.2214  1.5440
16167TIP3   OH269991   1.201   1.515   1.642  0.2788  0.5227 -0.5620
16167TIP3    H169992   1.182   1.494   1.551 -0.1724 -0.7277 -0.2003
16167TIP3    H269993   1.132   1.471   1.692  1.5299 -0.3251  0.4961
16168TIP3   OH269994   3.097   3.062   1.210 -0.4851 -0.2782  0.2097
16168TIP3    H169995   3.074   2.979   1.170 -0.3050  0.1045 -0.7115
16168TIP3    H269996   3.149   3.108   1.143  1.0899 -0.2213  1.4125
16169TIP3   OH269997   6.796   3.705  16.867 -0.7452  0.4075 -0.2847
16169TIP3    H169998   6.785   3.713  16.962 -1.5146 -0.2643 -0.3048
16169TIP3    H269999   6.710   3.675  16.836 -0.0801 -0.7966 -1.0230
16170TIP3   OH270000   1.246   5.874   1.132  0.2959  0.7161  0.0844
16170TIP3    H170001   1.221   5.956   1.174 -0.7149  1.0948 -1.1977
16170TIP3    H270002   1.340   5.864   1.152  0.8881  3.0861 -1.2056
16171TIP3   OH270003   4.974   4.000  11.712 -0.2745 -0.3820 -0.2340
16171TIP3    H170004   5.034   3.969  11.779 -0.0698 -0.7959 -0.6017
16171TIP3    H270005   4.897   4.031  11.760 -0.6619 -1.8599  0.1212
16172TIP3   OH270006   4.731   2.776  14.785 -0.0735  0.2227 -0.6108
16172TIP3    H170007   4.810   2.736  14.820 -1.5740 -0.9639  1.6989
16172TIP3    H270008   4.705   2.720  14.712  1.5929  1.1056 -1.9495
16173TIP3   OH270009   0.596   2.603   0.746 -0.0214  0.1219  0.0651
16173TIP3    H170010   0.606   2.665   0.675  0.9368  0.1226  0.1924
16173TIP3    H270011   0.558   2.525   0.705  3.2134 -0.9797 -1.0881
16174TIP3   OH270012   5.715   4.091  15.521 -0.2641 -0.6096  0.8483
16174TIP3    H170013   5.755   4.019  15.472  0.1250  1.1122 -1.5299
16174TIP3    H270014   5.627   4.098  15.486  0.8631  2.4215 -1.9318
16175TIP3   OH270015   3.970   5.846   0.193 -0.2194 -0.0441 -0.0085
16175TIP3    H170016   3.964   5.885   0.280  0.1776 -0.5384  0.2411
16175TIP3    H270017   3.895   5.883   0.145  1.6181  3.2687 -0.6723
16176TIP3   OH270018   0.312   0.565  13.553  0.3613  0.2650 -0.4719
16176TIP3    H170019   0.384   0.621  13.583  0.2275 -0.0267  0.4479
16176TIP3    H270020   0.233   0.609  13.585  0.2900 -0.8125  0.9798
16177TIP3   OH270021   6.387   6.744   4.682 -0.4125  0.3827 -0.2576
16177TIP3    H170022   6.366   6.684   4.610  1.8929  0.3950 -1.0314
16177TIP3    H270023   6.427   6.689   4.749  1.2397  0.9066 -0.7549
16178TIP3   OH270024   0.783   0.507   1.657  0.2398 -0.3568 -0.4050
16178TIP3    H170025   0.877   0.494   1.671  0.2138 -0.4095 -0.2741
16178TIP3    H270026   0.768   0.476   1.568  0.1082 -1.6201  0.0269
16179TIP3   OH270027   2.967   2.382  11.411 -0.0572 -0.3396 -0.7506
16179TIP3    H170028   2.994   2.424  11.329 -0.7411  0.1499 -0.7321
16179TIP3    H270029   2.927   2.452  11.462 -1.8354 -1.1305 -0.9899
16180TIP3   OH270030   4.099   1.178   2.063  0.2581 -0.2825  0.0825
16180TIP3    H170031   4.041   1.254   2.063  0.2209 -0.2428 -1.8809
16180TIP3    H270032   4.136   1.177   1.974 -1.2010 -3.5966 -0.6508
16181TIP3   OH270033   5.013   1.742   0.764  0.2591 -0.7940 -0.5736
16181TIP3    H170034   5.050   1.700   0.841  1.5259  0.9669 -0.1428
16181TIP3    H270035   4.930   1.697   0.748  0.4046 -1.7757  1.2752
16182TIP3   OH270036   2.748   4.254   5.540 -0.0266 -0.4238  0.2520
16182TIP3    H170037   2.833   4.238   5.500  1.3843  0.9624  2.4697
16182TIP3    H270038   2.742   4.189   5.610 -0.8756 -0.6097  0.0157
16183TIP3   OH270039   1.850   1.735   6.372  0.4085 -0.1812  0.3026
16183TIP3    H170040   1.827   1.782   6.452  0.2224  0.5812 -0.1848
16183TIP3    H270041   1.866   1.804   6.308 -0.1359 -0.7931 -0.5088
16184TIP3   OH270042   2.104   4.879  12.092 -0.8646  0.1707  0.7250
16184TIP3    H170043   2.109   4.957  12.148  1.3743 -0.7820  1.9999
16184TIP3    H270044   2.055   4.816  12.144  0.4398 -0.4130  1.3085
16185TIP3   OH270045   2.259   3.418  16.445  0.2297 -0.1728 -0.2707
16185TIP3    H170046   2.287   3.347  16.388  1.1880 -0.0134 -0.0148
16185TIP3    H270047   2.263   3.496  16.391 -1.3826 -0.3564 -0.7236
16186TIP3   OH270048   2.961   1.077   5.802  0.0025  0.0141  0.0438
16186TIP3    H170049   2.955   1.016   5.876  1.8448 -0.8751 -0.4784
16186TIP3    H270050   2.954   1.163   5.842  2.5295 -0.3761  1.5392
16187TIP3   OH270051   0.859   6.138  11.168  0.0914 -0.2845  0.3242
16187TIP3    H170052   0.939   6.088  11.153  0.4401 -0.0610  1.3761
16187TIP3    H270053   0.821   6.150  11.080  1.1554 -0.4745 -0.1712
16188TIP3   OH270054   0.890   3.132  13.271 -0.4346  0.0777 -0.6318
16188TIP3    H170055   0.875   3.159  13.361 -1.9657  0.2381 -0.9173
16188TIP3    H270056   0.820   3.174  13.221  0.0569 -0.4636 -1.8104
16189TIP3   OH270057   4.731   6.560  16.840  0.1706  0.1114 -0.5382
16189TIP3    H170058   4.705   6.543  16.931  2.3731  1.3811  0.3934
16189TIP3    H270059   4.648   6.581  16.796 -0.8830  0.0580  1.2933
16190TIP3   OH270060   2.194   6.312  12.259  0.0695  0.4754 -0.4319
16190TIP3    H170061   2.182   6.272  12.345  1.0228  0.9439 -0.0749
16190TIP3    H270062   2.174   6.242  12.197  1.0298 -0.3519  0.1828
16191TIP3   OH270063   2.152   6.162   3.148  0.5163  0.6193  0.0880
16191TIP3    H170064   2.122   6.159   3.239  2.2040  0.5971  0.6665
16191TIP3    H270065   2.172   6.254   3.132 -0.4562  0.7415 -0.5136
16192TIP3   OH270066   4.419   0.505  12.484  0.2617  0.3791  0.5760
16192TIP3    H170067   4.363   0.582  12.487 -0.4432 -0.0061 -1.5062
16192TIP3    H270068   4.464   0.511  12.400  1.5347 -0.5774  1.1587
16193TIP3   OH270069   4.891   6.551   2.263 -0.7691 -0.2461 -0.0984
16193TIP3    H170070   4.854   6.639   2.257 -0.2283  0.0838  1.1063
16193TIP3    H270071   4.979   6.560   2.225 -1.1729 -0.5751 -1.1441
16194TIP3   OH270072   2.564   4.370  15.423  0.5381 -0.7509  0.1308
16194TIP3    H170073   2.515   4.292  15.399  3.2555 -2.1367 -1.3657
16194TIP3    H270074   2.537   4.436  15.359  0.5834 -1.4908 -0.6683
16195TIP3   OH270075   4.868   1.011  13.220  0.1800  0.1452  0.1291
16195TIP3    H170076   4.860   1.026  13.315 -0.6126 -0.4464  0.1582
16195TIP3    H270077   4.786   0.970  13.195  0.5003  0.0413 -0.7767
16196TIP3   OH270078   5.148   0.706  12.447  0.8367  0.1064 -0.8875
16196TIP3    H170079   5.112   0.787  12.483 -0.3796 -1.0979  0.7873
16196TIP3    H270080   5.086   0.638  12.475  1.7004 -1.3807 -2.4101
16197TIP3   OH270081   4.951   0.428  15.439 -0.3124  0.1090 -0.0067
16197TIP3    H170082   4.886   0.377  15.487 -1.3086 -1.4851 -2.8224
16197TIP3    H270083   5.031   0.375  15.442 -0.9399 -1.0178 -1.6891
16198TIP3   OH270084   3.945   4.302   0.667  0.0750  0.8192  0.1865
16198TIP3    H170085   3.983   4.385   0.696 -0.1184  0.3812  1.7792
16198TIP3    H270086   3.897   4.269   0.743  0.5980 -1.0083 -0.2213
16199TIP3   OH270087   0.623   3.810  12.960  0.1048 -0.6595  0.2439
16199TIP3    H170088   0.594   3.721  12.977 -1.0737 -0.4119 -0.3392
16199TIP3    H270089   0.654   3.808  12.870  1.8960 -0.9031  0.8399
16200TIP3   OH270090   6.180   3.493   0.763 -0.8350  0.0264  0.4296
16200TIP3    H170091   6.128   3.558   0.715 -0.6840 -0.7872 -0.9137
16200TIP3    H270092   6.126   3.470   0.838 -1.5881  0.5667  0.0716
16201TIP3   OH270093   6.746   2.729   5.021 -0.2499 -0.0982 -0.8801
16201TIP3    H170094   6.712   2.818   5.010  1.0601  0.5329 -0.1252
16201TIP3    H270095   6.766   2.723   5.115 -0.3007 -1.1866 -0.9335
16202TIP3   OH270096   1.680   1.647   2.133  0.0300  0.5442 -0.0957
16202TIP3    H170097   1.648   1.729   2.170  2.8332  1.4629  0.5376
16202TIP3    H270098   1.621   1.580   2.168 -1.9184  2.1660 -0.0930
16203TIP3   OH270099   1.782   2.376   5.424  0.1594  0.4153 -0.4524
16203TIP3    H170100   1.730   2.302   5.393  0.9859  0.4046 -1.9163
16203TIP3    H270101   1.843   2.337   5.487 -0.0620  0.0181 -0.4786
16204TIP3   OH270102   4.266   1.106   1.061 -0.2896  0.3650 -0.4688
16204TIP3    H170103   4.181   1.095   1.019 -1.0814 -2.4752  1.6128
16204TIP3    H270104   4.247   1.143   1.147  0.4339 -0.8997  0.2736
16205TIP3   OH270105   1.169   0.280  15.531  0.0892  0.1908  0.1779
16205TIP3    H170106   1.085   0.325  15.545  1.0471  1.7677  1.2225
16205TIP3    H270107   1.201   0.314  15.448 -0.3229 -0.4742 -0.2619
16206TIP3   OH270108   4.073   2.955  14.765  0.1538  0.4164  0.1626
16206TIP3    H170109   4.010   2.999  14.823  0.3140  1.2683 -0.2942
16206TIP3    H270110   4.141   2.923  14.824  0.6636  1.8621  0.4022
16207TIP3   OH270111   3.851   5.174   6.143  0.4052  0.3049 -0.5388
16207TIP3    H170112   3.884   5.140   6.059 -0.9419  2.6414 -2.1294
16207TIP3    H270113   3.779   5.116   6.165  1.3910 -0.9302 -0.4366
16208TIP3   OH270114   6.771   5.552   3.746 -0.2413 -0.9456  0.3530
16208TIP3    H170115   6.835   5.619   3.769  0.5616 -0.7407 -2.1119
16208TIP3    H270116   6.687   5.598   3.745  0.3505  0.2345 -1.7170
16209TIP3   OH270117   3.350   3.910  16.141  0.6767 -0.2023  0.2470
16209TIP3    H170118   3.396   3.863  16.071 -1.7385 -1.1349 -0.8481
16209TIP3    H270119   3.289   3.846  16.177 -0.0384  1.0507  1.3644
16210TIP3   OH270120   5.410   3.093   5.150  0.5060 -0.5069 -0.5506
16210TIP3    H170121   5.380   3.018   5.099  2.0536 -3.1185  2.0274
16210TIP3    H270122   5.503   3.075   5.166  0.6757  1.4281  1.0479
16211TIP3   OH270123   1.514   1.355  13.320 -0.4089 -0.5658  0.5942
16211TIP3    H170124   1.482   1.391  13.403 -0.7776  1.2386 -0.2891
16211TIP3    H270125   1.518   1.260  13.335 -2.5812 -0.4988  1.9522
16212TIP3   OH270126   3.380   1.647  10.854 -0.2540 -0.0573 -0.2402
16212TIP3    H170127   3.336   1.568  10.820 -0.2417 -1.0986  1.9706
16212TIP3    H270128   3.473   1.626  10.850 -0.3093 -1.0390  2.1631
16213TIP3   OH270129   3.176   2.683   5.855  0.2342  0.0855  0.2690
16213TIP3    H170130   3.120   2.643   5.922  1.5158 -0.9955  0.7284
16213TIP3    H270131   3.265   2.660   5.881  0.7876 -0.0918 -1.6353
16214TIP3   OH270132   1.916   3.489  11.380 -0.4567  0.0574  0.0515
16214TIP3    H170133   1.898   3.412  11.434  0.9571  0.5980  1.3659
16214TIP3    H270134   1.840   3.545  11.392  0.1773  0.5432  2.2484
16215TIP3   OH270135   6.176   0.662  15.319 -0.6093  0.6226  0.1568
16215TIP3    H170136   6.226   0.609  15.381  0.2516  1.0579 -0.1547
16215TIP3    H270137   6.164   0.746  15.362 -0.5236  0.7309 -0.0297
16216TIP3   OH270138   1.946   2.489   6.417 -0.2161 -0.1788 -0.3314
16216TIP3    H170139   1.914   2.402   6.391  1.5866 -0.6433 -1.1468
16216TIP3    H270140   1.950   2.539   6.335  1.4216 -0.2682 -0.3419
16217TIP3   OH270141   3.427   0.752  12.417 -0.0393 -0.0231 -0.8433
16217TIP3    H170142   3.369   0.746  12.493 -0.9754  2.2456 -1.2863
16217TIP3    H270143   3.372   0.790  12.348  1.9667  2.5404 -1.1897
16218TIP3   OH270144   0.337   1.696   1.681  0.4004 -0.0985 -0.6414
16218TIP3    H170145   0.268   1.631   1.672 -1.0113  1.2084  0.2389
16218TIP3    H270146   0.357   1.723   1.592 -0.9347  0.2073 -0.8572
16219TIP3   OH270147   3.614   5.636  15.269 -0.2074 -0.0810  0.7324
16219TIP3    H170148   3.530   5.651  15.312 -0.7829  0.9167 -0.6459
16219TIP3    H270149   3.662   5.718  15.281 -0.3025  0.1434 -0.2831
16220TIP3   OH270150   1.429   1.911   4.988  0.6502  0.5496  0.0485
16220TIP3    H170151   1.508   1.964   4.996  0.9188  0.2620 -0.5929
16220TIP3    H270152   1.397   1.929   4.899 -0.6044  1.4772  0.6601
16221TIP3   OH270153   3.664   2.978  12.534 -0.2648  0.8111 -0.1649
16221TIP3    H170154   3.653   2.903  12.475 -2.2274  0.7319  0.2370
16221TIP3    H270155   3.666   2.940  12.621 -0.5656  1.1677  0.0003
16222TIP3   OH270156   3.363   4.757   6.191 -0.0716 -0.5965  0.3523
16222TIP3    H170157   3.319   4.836   6.222  1.4409 -0.2823  1.8775
16222TIP3    H270158   3.378   4.706   6.271  1.0123 -1.3354 -0.2956
16223TIP3   OH270159   3.322   0.360  14.784  0.3795  0.0305  0.0453
16223TIP3    H170160   3.395   0.299  14.794  1.5894  0.9331 -2.3631
16223TIP3    H270161   3.352   0.440  14.827 -0.6602 -0.5843  2.0308
16224TIP3   OH270162   0.923   2.174   2.993  0.1393 -0.1547  0.2586
16224TIP3    H170163   0.853   2.108   3.000 -0.6548  0.6018 -0.2570
16224TIP3    H270164   0.878   2.252   2.962  0.6529  1.3094  2.9533
16225TIP3   OH270165   3.725   4.423  16.646  0.0656 -0.6763 -0.5520
16225TIP3    H170166   3.693   4.512  16.632 -0.9004 -0.9692 -0.2716
16225TIP3    H270167   3.737   4.388  16.558  0.5423 -0.2383 -0.6645
16226TIP3   OH270168   0.332   4.321  11.348 -0.2128 -0.2384  0.0993
16226TIP3    H170169   0.345   4.234  11.384  1.1991 -0.8573 -1.7534
16226TIP3    H270170   0.403   4.373  11.386 -0.3072 -0.2041  0.2310
16227TIP3   OH270171   6.794   6.238   3.241  0.5009  0.4867 -0.3383
16227TIP3    H170172   6.826   6.324   3.268  0.2131  0.7294 -0.7667
16227TIP3    H270173   6.839   6.221   3.158  0.3243  0.3600 -0.4078
16228TIP3   OH270174   5.476   4.472  14.498 -0.3095 -0.0004 -0.1174
16228TIP3    H170175   5.564   4.468  14.535 -0.1622  1.7496 -0.1858
16228TIP3    H270176   5.467   4.391  14.448  1.9407  0.5812 -1.5965
16229TIP3   OH270177   3.501   0.868  14.477  0.2717  0.4353 -0.0563
16229TIP3    H170178   3.445   0.850  14.402  0.0418 -0.8839  0.4000
16229TIP3    H270179   3.440   0.877  14.551  0.4895  1.7464 -0.0267
16230TIP3   OH270180   0.699   3.304  11.094  0.2096  0.0883  0.7388
16230TIP3    H170181   0.648   3.317  11.015 -2.6551  0.4253  2.5263
16230TIP3    H270182   0.696   3.209  11.110  1.2938 -0.0619  0.2042
16231TIP3   OH270183   5.597   2.569  11.076  0.4813  0.3538  0.3528
16231TIP3    H170184   5.581   2.662  11.089  0.6204  0.0786  3.0227
16231TIP3    H270185   5.688   2.565  11.045  0.8663  1.0685  1.3391
16232TIP3   OH270186   0.988   3.818   4.457 -0.0561  0.1548  0.5830
16232TIP3    H170187   1.052   3.869   4.508 -0.4680  0.5708  0.6952
16232TIP3    H270188   0.903   3.850   4.488 -0.3161  0.8670 -0.7973
16233TIP3   OH270189   1.925   3.357   3.364  0.0780  0.1759  0.0415
16233TIP3    H170190   1.970   3.398   3.438 -0.1817  0.9904 -0.2420
16233TIP3    H270191   1.855   3.418   3.342  0.5594  0.2669 -1.2952
16234TIP3   OH270192   0.475   3.558   1.073  0.7179  0.2806  0.5963
16234TIP3    H170193   0.382   3.563   1.097  0.4930  0.0615 -0.1868
16234TIP3    H270194   0.511   3.644   1.098  0.4473  0.1600  1.4365
16235TIP3   OH270195   4.260   5.510  13.518  0.0893 -0.1439  0.6006
16235TIP3    H170196   4.309   5.588  13.545 -1.2992  0.6206  0.9914
16235TIP3    H270197   4.170   5.541  13.507 -0.4700 -1.6773  0.6833
16236TIP3   OH270198   1.109   6.531   1.767 -0.1014 -0.5076  0.5616
16236TIP3    H170199   1.139   6.507   1.679 -0.7286  0.9544 -0.0838
16236TIP3    H270200   1.079   6.622   1.758 -1.0542 -0.6445  2.0732
16237TIP3   OH270201   0.697   4.895  14.680 -0.0507  0.0740 -0.2954
16237TIP3    H170202   0.784   4.896  14.722 -0.3446  2.1642  0.3793
16237TIP3    H270203   0.715   4.910  14.587  0.2952  0.9987 -0.0873
16238TIP3   OH270204   1.698   5.585  14.306  0.4345  0.1006  0.4471
16238TIP3    H170205   1.759   5.554  14.239 -1.4055 -0.8743 -0.8589
16238TIP3    H270206   1.611   5.569  14.269 -0.6699  3.3089  1.3660
16239TIP3   OH270207   5.369   0.840   3.295 -0.1914 -0.4878  0.1141
16239TIP3    H170208   5.334   0.782   3.227  0.9733  1.4472 -2.2682
16239TIP3    H270209   5.451   0.798   3.322 -0.2888 -0.8896 -0.2023
16240TIP3   OH270210   0.617   3.161   0.658 -0.1795  0.3918 -0.1977
16240TIP3    H170211   0.653   3.247   0.636  3.3007 -1.0910 -1.0163
16240TIP3    H270212   0.606   3.163   0.753  0.1693  1.6167 -0.1641
16241TIP3   OH270213   1.128   1.568   2.586 -0.2293 -0.7088  0.2273
16241TIP3    H170214   1.131   1.663   2.596 -5.0857 -0.5363  2.4907
16241TIP3    H270215   1.175   1.534   2.663 -0.6513 -0.0955  0.7616
16242TIP3   OH270216   2.866   0.233   4.388  0.6040 -0.3237 -0.1643
16242TIP3    H170217   2.946   0.278   4.362  1.1391 -1.8601 -1.3595
16242TIP3    H270218   2.862   0.157   4.330 -1.5228 -0.4949  0.1318
16243TIP3   OH270219   6.124   2.214   0.165  0.0323  0.2364 -0.9743
16243TIP3    H170220   6.115   2.123   0.193  1.5970  0.1383 -0.6918
16243TIP3    H270221   6.203   2.215   0.111 -1.5751  0.8970 -3.4717
16244TIP3   OH270222   3.161   0.274   3.540 -0.8240 -0.7213  0.6545
16244TIP3    H170223   3.149   0.303   3.449  1.1469 -2.3863 -0.2041
16244TIP3    H270224   3.072   0.256   3.571 -1.4530 -1.6653 -1.5109
16245TIP3   OH270225   0.303   3.350   5.547 -0.1439  0.3545 -0.6750
16245TIP3    H170226   0.268   3.372   5.460 -0.0356 -0.6318 -0.9883
16245TIP3    H270227   0.311   3.434   5.592 -2.5219  0.6629 -0.7267
16246TIP3   OH270228   5.588   6.267   2.998 -0.4870 -0.1219 -0.2010
16246TIP3    H170229   5.621   6.227   3.079 -1.3809  1.3130  0.9138
16246TIP3    H270230   5.497   6.288   3.016 -1.5547 -2.2461 -2.5636
16247TIP3   OH270231   5.521   5.676   3.347  0.2275 -0.6627 -0.5111
16247TIP3    H170232   5.497   5.630   3.266 -1.1853 -1.1833  0.1615
16247TIP3    H270233   5.525   5.607   3.413  1.5411 -0.2679 -0.1529
16248TIP3   OH270234   2.266   6.812   5.752 -0.2755  0.0281  0.1381
16248TIP3    H170235   2.295   6.819   5.844  1.0771 -0.9676 -0.1809
16248TIP3    H270236   2.330   6.754   5.711 -1.0639  0.1748 -1.3706
16249TIP3   OH270237   5.193   1.282  15.991  0.1475  0.1836 -0.9930
16249TIP3    H170238   5.117   1.226  15.973 -0.5827  1.0164 -0.6273
16249TIP3    H270239   5.258   1.256  15.927  0.1044 -1.5674 -0.3698
16250TIP3   OH270240   1.872   4.959  16.774  0.1433  0.2129 -0.5813
16250TIP3    H170241   1.892   4.866  16.773  0.4081  0.2625 -1.5359
16250TIP3    H270242   1.834   4.976  16.860  0.3541 -0.7182 -0.3021
16251TIP3   OH270243   0.100   2.940   6.101  0.2734 -0.0852  0.0087
16251TIP3    H170244   0.038   2.946   6.173  0.0983 -3.2466  0.2771
16251TIP3    H270245   0.058   2.881   6.038  0.8630  1.7580 -2.2761
16252TIP3   OH270246   6.698   0.655   1.541 -0.0452 -0.0431 -0.1016
16252TIP3    H170247   6.614   0.671   1.585 -0.5282 -0.9747 -0.6594
16252TIP3    H270248   6.756   0.626   1.612 -0.4906 -0.4156  0.1163
16253TIP3   OH270249   0.828   2.421  15.296  0.1017  0.0783 -0.2887
16253TIP3    H170250   0.749   2.366  15.301 -0.3215  0.6268 -0.7457
16253TIP3    H270251   0.899   2.363  15.323 -0.4683 -0.4071  0.2081
16254TIP3   OH270252   3.638   3.907   6.220  0.1537  0.1946  0.2155
16254TIP3    H170253   3.600   3.825   6.192  1.5271  0.2219 -1.9215
16254TIP3    H270254   3.564   3.968   6.226 -0.5136 -0.4773 -0.9817
16255TIP3   OH270255   1.442   5.221  13.847  0.3376 -0.2832  0.0633
16255TIP3    H170256   1.476   5.309  13.861 -1.2015  0.1259  1.6550
16255TIP3    H270257   1.351   5.234  13.821  0.4753 -1.3924 -1.0788
16256TIP3   OH270258   6.502   0.746  12.669  0.5304  0.1583  0.0121
16256TIP3    H170259   6.496   0.757  12.574 -1.7592  0.8846  0.1989
16256TIP3    H270260   6.423   0.787  12.703  1.7323  0.7029  2.3274
16257TIP3   OH270261   2.893   2.993   1.618  0.0837  0.0259  0.9156
16257TIP3    H170262   2.972   2.939   1.621 -0.9189 -1.5203  0.4261
16257TIP3    H270263   2.919   3.075   1.659  2.2749 -0.0083 -0.2386
16258TIP3   OH270264   3.309   1.915  14.861 -0.0594 -0.2423 -0.3647
16258TIP3    H170265   3.313   1.959  14.946  0.3490 -0.2781 -0.3623
16258TIP3    H270266   3.252   1.839  14.876 -0.8806  0.3590 -0.4045
16259TIP3   OH270267   5.166   3.079  14.759  0.2117 -0.3866 -0.0918
16259TIP3    H170268   5.167   2.990  14.724 -0.5340 -0.6540  0.5361
16259TIP3    H270269   5.107   3.127  14.700 -0.4366 -0.6456  0.3346
16260TIP3   OH270270   5.514   6.011  11.997 -0.0092 -0.0189 -0.2890
16260TIP3    H170271   5.418   6.008  12.003  0.0465  0.5711  1.4533
16260TIP3    H270272   5.544   6.001  12.087  1.4547  2.5565 -0.3753
16261TIP3   OH270273   6.693   2.132  13.168 -0.2408 -0.0974  0.0819
16261TIP3    H170274   6.753   2.058  13.164  1.6045  1.3756 -0.8195
16261TIP3    H270275   6.609   2.093  13.191  1.1048 -2.2067  1.8800
16262TIP3   OH270276   0.544   1.887  12.522  0.2428 -0.3210 -0.1658
16262TIP3    H170277   0.514   1.973  12.492  0.1620 -0.1234  0.4667
16262TIP3    H270278   0.568   1.841  12.441  2.4782  1.0997 -0.3841
16263TIP3   OH270279   6.640   0.845   1.309 -0.3763  0.1086  0.6600
16263TIP3    H170280   6.651   0.787   1.385 -1.5822  0.7081  1.3254
16263TIP3    H270281   6.610   0.928   1.347 -0.2892  0.6449 -0.4143
16264TIP3   OH270282   3.943   5.519   2.337  0.1011  0.4821  0.1706
16264TIP3    H170283   4.025   5.531   2.386  0.5908  0.0453 -0.5152
16264TIP3    H270284   3.959   5.442   2.283 -0.7224  0.4751 -0.0769
16265TIP3   OH270285   2.369   1.555  14.074  0.0163  0.1216 -0.3761
16265TIP3    H170286   2.292   1.520  14.029 -0.4664  0.6331  0.0295
16265TIP3    H270287   2.335   1.628  14.126  0.9654  1.1539 -1.1470
16266TIP3   OH270288   0.049   3.793  12.667  0.0475  0.0826 -0.1725
16266TIP3    H170289   0.036   3.773  12.575 -2.3655  0.7004 -0.0457
16266TIP3    H270290   0.045   3.888  12.672  4.0867  0.3974  0.1559
16267TIP3   OH270291   2.469   3.085  11.991 -0.1780 -0.5876 -0.3685
16267TIP3    H170292   2.487   3.080  12.085 -0.0858  1.5682 -0.2314
16267TIP3    H270293   2.551   3.055  11.950 -0.1697 -1.4047  0.2170
16268TIP3   OH270294   3.528   4.463  13.236 -0.3816 -0.2834 -0.5958
16268TIP3    H170295   3.573   4.402  13.178 -0.9145 -0.4684 -0.8227
16268TIP3    H270296   3.567   4.447  13.322  0.4979  0.0780 -0.9164
16269TIP3   OH270297   0.438   2.494  14.081 -0.5735 -0.2094  0.0617
16269TIP3    H170298   0.437   2.580  14.040 -1.7181 -0.2292 -0.0019
16269TIP3    H270299   0.398   2.436  14.016  2.8085 -1.4472 -1.1241
16270TIP3   OH270300   5.641   0.916  11.123  0.1957  0.0254 -0.3043
16270TIP3    H170301   5.681   0.971  11.191 -2.8842  0.4605  1.3053
16270TIP3    H270302   5.680   0.948  11.042  0.6533  2.6922  0.8431
16271TIP3   OH270303   1.510   4.496  16.879  0.0213 -0.6748  0.2101
16271TIP3    H170304   1.579   4.496  16.813 -0.0382 -0.8468  0.1482
16271TIP3    H270305   1.434   4.457  16.836 -1.3781  2.9587 -1.0091
16272TIP3   OH270306   2.166   4.043  13.661  0.2019  0.2005  0.2638
16272TIP3    H170307   2.244   4.046  13.717 -0.3826  0.5646  1.0698
16272TIP3    H270308   2.103   3.990  13.710 -0.3025  0.4995 -0.0582
16273TIP3   OH270309   1.015   3.356   4.760 -0.4951  0.1753 -0.2456
16273TIP3    H170310   0.931   3.399   4.747 -0.0574  1.5019  0.9820
16273TIP3    H270311   1.060   3.364   4.675 -1.9980 -1.5759 -1.2663
16274TIP3   OH270312   4.239   4.862   4.829 -0.4113 -0.1635  0.4668
16274TIP3    H170313   4.203   4.777   4.807  0.5703 -0.4515 -0.0830
16274TIP3    H270314   4.201   4.922   4.765 -0.5384 -0.3130  0.4030
16275TIP3   OH270315   2.898   3.165   0.867 -0.1868  0.2213 -0.5859
16275TIP3    H170316   2.964   3.114   0.821 -0.7991 -0.7093 -0.4433
16275TIP3    H270317   2.838   3.195   0.798 -0.8733 -0.8274 -0.4530
16276TIP3   OH270318   6.274   4.851  17.140 -0.4690 -0.0616 -0.3418
16276TIP3    H170319   6.303   4.883  17.226  0.0457  0.7789 -0.8163
16276TIP3    H270320   6.270   4.756  17.150  0.1246 -0.0116  0.4500
16277TIP3   OH270321   1.956   0.324  14.999 -0.0968 -0.7515 -0.5702
16277TIP3    H170322   1.881   0.266  14.993  0.2277 -1.2583  0.1286
16277TIP3    H270323   1.993   0.307  15.086 -0.0440  0.5619 -0.3107
16278TIP3   OH270324   3.925   0.626   5.751  0.2478  0.5723 -0.9431
16278TIP3    H170325   3.959   0.561   5.812 -2.2984 -0.1672 -0.2116
16278TIP3    H270326   3.883   0.692   5.806  0.2146  1.3092 -1.8175
16279TIP3   OH270327   6.190   3.840   1.348  0.4456  0.3188  0.6581
16279TIP3    H170328   6.282   3.855   1.330  0.1748  0.5377 -0.6120
16279TIP3    H270329   6.173   3.751   1.316  0.3711  0.0071  1.5376
16280TIP3   OH270330   4.208   3.856   3.822  0.2551  0.3785 -0.1130
16280TIP3    H170331   4.170   3.792   3.882  0.1496 -1.2565 -1.8374
16280TIP3    H270332   4.303   3.847   3.833  0.2326  0.2063 -0.0646
16281TIP3   OH270333   6.133   0.254   3.923  0.3137  0.1143  0.0872
16281TIP3    H170334   6.091   0.298   3.850 -1.0386 -0.0237  0.7571
16281TIP3    H270335   6.170   0.326   3.976 -0.8538  0.3996  0.5496
16282TIP3   OH270336   3.463   3.189   1.364  0.3344 -0.4961 -0.3047
16282TIP3    H170337   3.510   3.192   1.281 -2.9268 -0.7002 -2.3664
16282TIP3    H270338   3.415   3.272   1.366  0.5591 -0.3726  1.5764
16283TIP3   OH270339   2.918   4.819   2.269  0.3278 -1.0800  0.0701
16283TIP3    H170340   2.909   4.728   2.240 -0.8400 -1.5190  1.6490
16283TIP3    H270341   2.873   4.821   2.354  0.1408  1.0246 -0.0341
16284TIP3   OH270342   1.783   0.544   4.528 -0.0451 -0.0263 -0.0797
16284TIP3    H170343   1.706   0.588   4.565  0.9816  0.2884  1.7741
16284TIP3    H270344   1.854   0.563   4.589  1.0889 -1.9363 -0.7257
16285TIP3   OH270345   6.367   1.913  15.781 -0.4502 -0.0744  0.0460
16285TIP3    H170346   6.343   2.003  15.801 -0.3160  0.1640 -0.8151
16285TIP3    H270347   6.463   1.914  15.777 -0.3833 -0.5123  1.1593
16286TIP3   OH270348   2.375   4.310   3.314  0.0670 -0.0988  0.2401
16286TIP3    H170349   2.338   4.349   3.235 -1.3157 -1.7228  0.0154
16286TIP3    H270350   2.467   4.294   3.292  0.5255  2.3125  0.1355
16287TIP3   OH270351   3.037   3.430  13.233  0.0452 -0.0897  0.3942
16287TIP3    H170352   3.003   3.490  13.167 -1.5274 -0.4740  0.8151
16287TIP3    H270353   3.100   3.483  13.283  1.7262  0.0576 -1.6978
16288TIP3   OH270354   1.213   0.329  16.682 -0.0666 -0.2800  0.3198
16288TIP3    H170355   1.296   0.288  16.708 -0.1569 -1.8746 -1.6593
16288TIP3    H270356   1.240   0.414  16.646  0.2240  1.1126  3.4964
16289TIP3   OH270357   1.335   6.111   1.274  0.1863  0.2028 -0.2388
16289TIP3    H170358   1.387   6.149   1.204 -0.3959  1.2203 -0.1452
16289TIP3    H270359   1.302   6.186   1.323 -0.4350 -0.4496  0.3747
16290TIP3   OH270360   4.872   5.149  14.325  0.3577 -0.7470  0.5930
16290TIP3    H170361   4.942   5.140  14.261 -0.4483 -1.1350 -0.2624
16290TIP3    H270362   4.812   5.212  14.286 -0.0681 -0.8737  1.0360
16291TIP3   OH270363   4.239   5.946   4.720  0.1253  0.8752  0.5598
16291TIP3    H170364   4.199   6.028   4.692  0.5033  0.2648 -2.0920
16291TIP3    H270365   4.172   5.879   4.704  1.7359 -0.0757 -3.3712
16292TIP3   OH270366   0.220   5.659   0.047  0.6604  0.4516 -0.1201
16292TIP3    H170367   0.132   5.637   0.016  0.9862  0.5172 -1.1142
16292TIP3    H270368   0.241   5.741   0.004  0.6160  1.2648  1.3206
16293TIP3   OH270369   3.410   3.233   0.422 -0.0863 -0.9639  0.1479
16293TIP3    H170370   3.322   3.264   0.401  0.0211 -0.5505  0.3039
16293TIP3    H270371   3.398   3.140   0.444 -0.7310 -0.5420  1.7009
16294TIP3   OH270372   0.765   0.405   3.084 -0.0099  0.2851  0.1708
16294TIP3    H170373   0.839   0.344   3.082 -1.1563 -1.1671  0.9666
16294TIP3    H270374   0.797   0.481   3.035  1.6060 -0.7577 -0.4968
16295TIP3   OH270375   6.218   2.900  13.741  0.1408  0.1730  0.0326
16295TIP3    H170376   6.250   2.862  13.659 -0.6913  1.1629 -0.7820
16295TIP3    H270377   6.206   2.825  13.799 -1.2685 -0.8237 -1.4556
16296TIP3   OH270378   3.398   3.954  10.798  0.0550 -0.7620 -0.0205
16296TIP3    H170379   3.366   3.870  10.766  0.4261 -1.1724  0.6593
16296TIP3    H270380   3.493   3.950  10.785 -0.0098 -0.0593 -0.8529
16297TIP3   OH270381   5.801   1.802   2.418  0.0545  0.0238 -0.4976
16297TIP3    H170382   5.895   1.804   2.401  0.0930 -1.0222 -0.4386
16297TIP3    H270383   5.761   1.838   2.339  0.4981  0.6625 -0.4454
16298TIP3   OH270384   4.964   3.512  14.984  0.2961  0.0840 -0.3011
16298TIP3    H170385   5.046   3.511  14.934 -0.0787 -0.8627 -0.9114
16298TIP3    H270386   4.895   3.505  14.918 -0.2352 -0.5879  0.3129
16299TIP3   OH270387   3.655   1.372  13.204 -0.0986 -0.2271 -0.0322
16299TIP3    H170388   3.667   1.409  13.117  0.6610  1.3602  0.7115
16299TIP3    H270389   3.562   1.382  13.223 -0.7741 -2.7443 -1.5461
16300TIP3   OH270390   5.695   4.684   1.157  0.3153 -0.0125 -0.1253
16300TIP3    H170391   5.685   4.596   1.193 -1.0219  0.1301 -0.1065
16300TIP3    H270392   5.683   4.673   1.063  0.9925  0.0316 -0.2202
16301TIP3   OH270393   2.037   4.649   2.161 -0.0581  0.0280 -0.0864
16301TIP3    H170394   1.983   4.660   2.239  1.2461  0.4985  0.7819
16301TIP3    H270395   2.011   4.720   2.103 -0.4798  0.1428  0.2395
16302TIP3   OH270396   6.251   3.712  16.480  0.0785  0.8963 -0.1634
16302TIP3    H170397   6.296   3.651  16.539 -0.0663  0.5726 -0.3882
16302TIP3    H270398   6.231   3.660  16.402  0.0442  1.2580 -0.3961
16303TIP3   OH270399   2.753   4.476  12.384 -0.2483 -0.1069  0.1424
16303TIP3    H170400   2.726   4.532  12.457  2.2397  2.8059 -0.9775
16303TIP3    H270401   2.791   4.399  12.427 -0.0511  0.9258  1.9315
16304TIP3   OH270402   3.207   4.513  14.298  0.0881 -0.7072  0.5806
16304TIP3    H170403   3.254   4.562  14.366  1.5048 -1.4129  0.1452
16304TIP3    H270404   3.216   4.567  14.219 -1.4897  0.0743  0.8987
16305TIP3   OH270405   0.283   4.057  12.032  0.1751  0.0645 -0.1304
16305TIP3    H170406   0.310   4.130  12.089 -0.3561 -0.5839  0.9885
16305TIP3    H270407   0.366   4.017  12.006  0.4119 -0.2877  1.0956
16306TIP3   OH270408   0.570   5.585  14.256  0.2315 -0.3250 -0.7816
16306TIP3    H170409   0.498   5.545  14.305  0.8862 -1.1094 -0.4282
16306TIP3    H270410   0.646   5.530  14.276  1.5863  2.0462  1.0718
16307TIP3   OH270411   5.565   6.463   4.632  0.2731 -0.3719  0.2587
16307TIP3    H170412   5.616   6.459   4.712  0.5606 -1.3857  0.0279
16307TIP3    H270413   5.609   6.530   4.579 -1.2042  1.9801  1.7947
16308TIP3   OH270414   2.531   0.291   3.450  0.2438 -0.2309  0.1451
16308TIP3    H170415   2.566   0.245   3.373  1.9176  1.5835 -0.2638
16308TIP3    H270416   2.437   0.277   3.445  0.3767 -0.7709 -1.8284
16309TIP3   OH270417   1.380   4.874  16.919 -1.0163 -0.2326  0.2185
16309TIP3    H170418   1.332   4.791  16.922 -0.5457 -0.5152 -0.0110
16309TIP3    H270419   1.446   4.861  16.852 -1.5406  0.6542 -0.4979
16310TIP3   OH270420   3.296   1.537  14.754  0.2782  0.2258  0.0597
16310TIP3    H170421   3.315   1.444  14.767  2.1677  0.2943 -1.7815
16310TIP3    H270422   3.382   1.578  14.742 -0.6350  1.6143 -2.5772
16311TIP3   OH270423   3.066   5.223  14.500 -0.1605 -0.2554  0.1123
16311TIP3    H170424   3.146   5.172  14.503  0.0178  0.0550  2.2379
16311TIP3    H270425   3.002   5.166  14.456  0.9515 -0.8612 -0.7561
16312TIP3   OH270426   6.456   1.053   4.642 -0.1081 -0.2914  0.0203
16312TIP3    H170427   6.437   0.998   4.718 -1.6418 -0.7360 -0.6463
16312TIP3    H270428   6.398   1.128   4.653 -0.3715 -0.3834 -0.7248
16313TIP3   OH270429   1.690   6.620   3.186 -0.3075 -0.0001  0.2252
16313TIP3    H170430   1.784   6.611   3.198 -0.5560 -0.9372  1.6514
16313TIP3    H270431   1.679   6.636   3.092  1.1856 -0.8473 -0.1158
16314TIP3   OH270432   5.043   1.636   1.032 -0.2887 -0.4869 -0.2546
16314TIP3    H170433   5.129   1.595   1.045 -0.3012  0.4348  6.2777
16314TIP3    H270434   4.980   1.568   1.057 -0.8188  0.7521  2.1013
16315TIP3   OH270435   6.241   5.000   0.204 -0.1071  0.5645 -0.4666
16315TIP3    H170436   6.303   4.991   0.276 -0.4743  2.0661  0.0733
16315TIP3    H270437   6.169   5.052   0.241 -1.0500  0.0011 -1.4651
16316TIP3   OH270438   1.363   4.565   6.064  0.1324  0.6534 -0.8504
16316TIP3    H170439   1.285   4.510   6.072 -0.3668  1.5970  1.0664
16316TIP3    H270440   1.348   4.638   6.123  2.9155  0.3315  0.3820
16317TIP3   OH270441   1.451   1.416   0.615 -0.0530  0.1890  1.2229
16317TIP3    H170442   1.418   1.356   0.548 -0.3113 -0.0073  1.5204
16317TIP3    H270443   1.394   1.493   0.608  0.2930  0.4136  0.8254
16318TIP3   OH270444   1.788   3.107   5.129 -0.3667  0.3365 -0.5916
16318TIP3    H170445   1.772   3.035   5.190  1.3026 -0.4934 -1.0791
16318TIP3    H270446   1.828   3.066   5.053  0.5609  1.7608 -0.9145
16319TIP3   OH270447   1.399   5.915   1.454  0.1114 -0.1257  0.1715
16319TIP3    H170448   1.317   5.871   1.475 -0.5955  1.6378  1.3959
16319TIP3    H270449   1.374   5.982   1.390  0.2870  1.2673  1.4935
16320TIP3   OH270450   5.627   2.448  11.645 -0.5605 -0.1172  0.7808
16320TIP3    H170451   5.664   2.534  11.627 -1.5425  0.2013  0.2050
16320TIP3    H270452   5.615   2.447  11.740  0.0627  0.1248  0.8628
16321TIP3   OH270453   2.821   6.420  14.206  0.2030 -0.5141 -0.1387
16321TIP3    H170454   2.778   6.495  14.165  0.7416  0.1472  0.4826
16321TIP3    H270455   2.879   6.386  14.138  2.4652  1.6762  0.5389
16322TIP3   OH270456   2.794   2.624   0.898 -0.7290  0.4759 -0.2246
16322TIP3    H170457   2.819   2.615   0.807 -0.3453  0.1939 -0.0905
16322TIP3    H270458   2.876   2.642   0.945 -0.8428  0.0672  0.1396
16323TIP3   OH270459   6.376   6.099  14.349  0.1611 -0.2116  0.0720
16323TIP3    H170460   6.297   6.059  14.387 -0.2555 -0.7803 -1.3215
16323TIP3    H270461   6.349   6.124  14.261  1.0522  1.2162  0.1785
16324TIP3   OH270462   4.980   2.573   2.101  0.1612 -0.7231  0.6164
16324TIP3    H170463   5.072   2.591   2.121 -0.4823  1.8074  1.6870
16324TIP3    H270464   4.969   2.480   2.120  2.9974 -1.7313 -1.8178
16325TIP3   OH270465   4.372   5.445  16.873 -0.4053  0.4939 -0.2390
16325TIP3    H170466   4.295   5.496  16.848 -0.6677  0.8635  1.2429
16325TIP3    H270467   4.445   5.489  16.830 -0.7410  1.5611  0.2624
16326TIP3   OH270468   2.748   4.803   4.029  0.3425  0.4142  0.2572
16326TIP3    H170469   2.707   4.851   3.956  3.2111  1.9182 -0.5324
16326TIP3    H270470   2.716   4.847   4.107 -0.8649  0.4029 -0.2085
16327TIP3   OH270471   4.729   5.949   3.216  0.0388 -0.5759 -0.0625
16327TIP3    H170472   4.673   5.894   3.163 -2.0470 -0.5370  1.9486
16327TIP3    H270473   4.683   6.033   3.222 -1.3369 -1.3930  3.9130
16328TIP3   OH270474   4.622   4.070   4.572  0.0440  0.0163  0.0578
16328TIP3    H170475   4.576   4.133   4.627  0.6290 -0.0716  0.6515
16328TIP3    H270476   4.680   4.124   4.519 -2.0924  0.3566 -2.1472
16329TIP3   OH270477   2.461   0.186  15.355  0.1070 -0.1207 -0.0436
16329TIP3    H170478   2.556   0.182  15.362  0.0622 -1.3928  0.0903
16329TIP3    H270479   2.439   0.276  15.379  1.1092 -0.3370  1.9147
16330TIP3   OH270480   5.408   0.698   4.080 -0.5391  0.1184 -1.0019
16330TIP3    H170481   5.482   0.658   4.127  0.4849  2.6577 -0.2646
16330TIP3    H270482   5.332   0.679   4.134  0.2492  0.8638  0.4593
16331TIP3   OH270483   5.854   1.366   4.795  0.4293  0.3377 -0.3533
16331TIP3    H170484   5.807   1.391   4.716  1.5845  1.0741 -0.8300
16331TIP3    H270485   5.863   1.447   4.845  0.5803  0.0722  0.0604
16332TIP3   OH270486   0.128   4.267  16.814  0.3556 -0.0320  0.3028
16332TIP3    H170487   0.037   4.288  16.834 -0.3623 -2.2964 -0.3114
16332TIP3    H270488   0.124   4.216  16.733  2.0893 -0.8641  0.6904
16333TIP3   OH270489   2.728   3.271  10.995 -0.6416 -0.0423 -0.3571
16333TIP3    H170490   2.780   3.194  10.974 -1.4198 -0.3707 -1.1688
16333TIP3    H270491   2.692   3.299  10.911 -2.7469 -0.5419  0.3179
16334TIP3   OH270492   0.759   3.521  15.958  0.6293  0.1080  0.1479
16334TIP3    H170493   0.679   3.478  15.929  0.6057  0.4911 -0.3726
16334TIP3    H270494   0.759   3.511  16.053  0.8847 -1.4809  0.0066
16335TIP3   OH270495   5.697   0.166   2.248 -0.3850 -0.4662  0.2524
16335TIP3    H170496   5.637   0.186   2.177 -2.2873 -1.3522  1.5109
16335TIP3    H270497   5.730   0.078   2.227 -2.0343 -1.3323  1.0935
16336TIP3   OH270498   6.098   1.037   2.077  0.3415 -0.1271 -0.5235
16336TIP3    H170499   6.129   1.095   2.007 -0.7719  1.1893  0.0119
16336TIP3    H270500   6.003   1.043   2.072  0.2412  0.0758  1.1490
16337TIP3   OH270501   2.868   6.704   4.669  0.5096  0.6243 -0.5922
16337TIP3    H170502   2.837   6.627   4.717 -2.3470  0.4124 -2.5490
16337TIP3    H270503   2.955   6.679   4.638  1.6652  0.0718  2.7408
16338TIP3   OH270504   2.652   6.515  16.214  1.1141 -0.3178  0.5765
16338TIP3    H170505   2.572   6.536  16.263  0.1572  2.4065 -1.8498
16338TIP3    H270506   2.723   6.544  16.271  0.3275 -1.0593  2.0091
16339TIP3   OH270507   6.276   0.174   1.020 -0.0054 -0.7219  0.5402
16339TIP3    H170508   6.244   0.233   0.952  1.9175 -0.1803  0.0366
16339TIP3    H270509   6.306   0.096   0.973 -1.4379 -1.6360  1.0872
16340TIP3   OH270510   1.165   3.906  11.470  0.7000  0.7347  0.2429
16340TIP3    H170511   1.218   3.957  11.409 -1.4888  3.2458  0.2693
16340TIP3    H270512   1.116   3.846  11.414  1.2506  0.5642 -0.0725
16341TIP3   OH270513   4.912   2.725  14.540  0.0363 -0.0357  0.1895
16341TIP3    H170514   4.836   2.777  14.512 -0.4444 -0.5806  0.4547
16341TIP3    H270515   4.984   2.788  14.544 -0.7166  0.7925  1.3439
16342TIP3   OH270516   4.176   1.435  16.377  0.2368  0.1966  0.3577
16342TIP3    H170517   4.237   1.450  16.305 -1.3047 -0.1271 -1.0827
16342TIP3    H270518   4.231   1.434  16.455  1.9955  0.3965 -0.8181
16343TIP3   OH270519   1.117   4.062  13.710  0.0846 -0.3926  0.5872
16343TIP3    H170520   1.084   4.151  13.724 -0.1632 -0.7442  2.3964
16343TIP3    H270521   1.064   4.007  13.767  1.4249 -1.4571  0.8627
16344TIP3   OH270522   1.935   6.134  12.382  0.3479  0.1147  0.9706
16344TIP3    H170523   2.006   6.185  12.421  0.9367 -1.0947  1.5513
16344TIP3    H270524   1.966   6.114  12.294 -0.1026  1.1663  0.5683
16345TIP3   OH270525   3.965   0.252   5.868 -0.5562  0.0903 -0.0937
16345TIP3    H170526   4.049   0.223   5.902 -0.4495  0.2029 -0.2603
16345TIP3    H270527   3.901   0.218   5.930 -0.2963  1.1026  0.7419
16346TIP3   OH270528   4.119   3.969  11.477  0.1033  0.2805  0.4347
16346TIP3    H170529   4.106   3.946  11.569 -0.5289 -0.9802  0.0472
16346TIP3    H270530   4.214   3.976  11.468  0.1690  0.5087  1.1957
16347TIP3   OH270531   6.130   2.533  12.974  0.3925 -0.2800 -0.4439
16347TIP3    H170532   6.159   2.623  12.988 -3.2042  0.7619  1.4854
16347TIP3    H270533   6.156   2.513  12.883  0.6629  2.9415 -1.1795
16348TIP3   OH270534   6.323   0.667   1.363 -0.0247 -0.0317  0.3173
16348TIP3    H170535   6.302   0.646   1.454 -1.1076 -1.3719 -0.2089
16348TIP3    H270536   6.370   0.750   1.368  0.8797 -0.6023  2.1789
16349TIP3   OH270537   4.457   3.197  14.047  0.0332 -0.0577 -0.0764
16349TIP3    H170538   4.485   3.145  14.122  0.3806 -1.7583 -1.3185
16349TIP3    H270539   4.385   3.147  14.008  0.2967  0.4365 -1.2594
16350TIP3   OH270540   6.320   0.649   6.220  0.7209 -0.1099  0.0753
16350TIP3    H170541   6.260   0.578   6.196  1.1968 -0.1787 -0.9952
16350TIP3    H270542   6.280   0.690   6.296 -0.2371 -0.6926 -0.0960
16351TIP3   OH270543   4.147   0.640   0.741  0.4404 -0.4583  0.8736
16351TIP3    H170544   4.190   0.725   0.728 -0.5907  0.2984  2.1626
16351TIP3    H270545   4.056   0.655   0.712  0.7511 -1.7831 -0.9885
16352TIP3   OH270546   5.519   5.230  15.275  0.2343  0.3093 -0.5748
16352TIP3    H170547   5.507   5.324  15.291  1.5407  0.7782 -2.0645
16352TIP3    H270548   5.559   5.196  15.355  0.5131  1.1953 -0.3274
16353TIP3   OH270549   0.547   3.235  14.803  0.0283  0.2670 -0.1964
16353TIP3    H170550   0.481   3.169  14.822  1.0545 -0.1356  2.3683
16353TIP3    H270551   0.615   3.188  14.755  1.4415 -1.0524  2.8788
16354TIP3   OH270552   2.841   5.714   1.245  0.0646 -0.8433  0.0410
16354TIP3    H170553   2.858   5.791   1.299  1.1903 -1.1934  0.2080
16354TIP3    H270554   2.908   5.716   1.177 -1.4060 -0.3423 -1.4597
16355TIP3   OH270555   0.023   2.656  13.015 -0.5095 -0.1913  0.1756
16355TIP3    H170556   0.099   2.709  13.041  0.0254 -1.8031  2.1499
16355TIP3    H270557  -0.010   2.698  12.936  0.4620  2.5020  1.0957
16356TIP3   OH270558   0.470   1.767  15.585  0.1274 -0.6420  0.1018
16356TIP3    H170559   0.409   1.828  15.627 -0.4886 -0.3837 -1.1135
16356TIP3    H270560   0.461   1.686  15.635  1.2229  0.3251  1.9692
16357TIP3   OH270561   0.810   1.215  13.897  0.3331 -0.7554 -0.1076
16357TIP3    H170562   0.810   1.260  13.812  1.0143 -0.9714 -0.2229
16357TIP3    H270563   0.751   1.267  13.951  1.4605  0.5710 -0.0944
16358TIP3   OH270564   1.170   6.814  11.481  0.2467 -0.0121  0.2832
16358TIP3    H170565   1.221   6.895  11.473  2.5423 -1.3107  0.8464
16358TIP3    H270566   1.160   6.802  11.576  0.2143 -0.5492  0.2154
16359TIP3   OH270567   2.633   1.260  12.055 -0.0479 -0.0445  0.2912
16359TIP3    H170568   2.712   1.223  12.094 -0.0580 -1.1649 -0.7149
16359TIP3    H270569   2.571   1.265  12.128  0.5515 -0.3038  0.8310
16360TIP3   OH270570   6.784   4.358  13.716 -0.0146 -0.4373  0.2313
16360TIP3    H170571   6.797   4.384  13.625  1.0136 -1.5860  0.0249
16360TIP3    H270572   6.783   4.441  13.764  1.7609  0.0997 -0.5590
16361TIP3   OH270573   1.625   6.389   0.425 -0.0675 -0.4446  0.2540
16361TIP3    H170574   1.594   6.470   0.466  1.5292  1.1530 -1.4506
16361TIP3    H270575   1.546   6.346   0.393 -1.0847 -0.3396  2.4505
16362TIP3   OH270576   3.544   4.011  15.719  0.2926 -0.1175  0.2583
16362TIP3    H170577   3.556   3.919  15.743  0.0192 -0.1328  0.3429
16362TIP3    H270578   3.524   4.008  15.625  1.8404 -0.0207 -0.0972
16363TIP3   OH270579   3.852   5.638   1.984 -0.3902 -0.1654 -0.2946
16363TIP3    H170580   3.759   5.650   1.962  0.3322  2.2218 -2.5730
16363TIP3    H270581   3.868   5.702   2.053  0.1856  1.9127 -2.2192
16364TIP3   OH270582   6.048   5.480  13.744  0.3767  0.0697  0.0722
16364TIP3    H170583   6.073   5.388  13.754  2.2400  0.2114 -2.3137
16364TIP3    H270584   6.096   5.526  13.813  0.3183 -0.6091  0.5734
16365TIP3   OH270585   0.578   6.455  15.717 -0.1815 -0.6306 -0.1421
16365TIP3    H170586   0.509   6.414  15.665  1.3281 -2.5335 -0.7890
16365TIP3    H270587   0.579   6.406  15.799  0.4645 -0.7094 -0.1885
16366TIP3   OH270588   6.048   5.484  12.494 -0.7294 -0.1845  0.3207
16366TIP3    H170589   6.085   5.399  12.473  0.9564  0.4199  0.6772
16366TIP3    H270590   6.003   5.511  12.413 -0.3960 -0.9399 -0.1266
16367TIP3   OH270591   0.066   5.375   5.798  0.8402 -0.5454 -0.6374
16367TIP3    H170592   0.124   5.414   5.863 -0.2849  0.0832  0.0171
16367TIP3    H270593   0.015   5.448   5.763 -4.1693 -1.4877  3.3991
16368TIP3   OH270594   6.791   2.770   1.384  0.3750 -0.0183 -0.8972
16368TIP3    H170595   6.754   2.740   1.301  0.0751 -1.0219 -0.4231
16368TIP3    H270596   6.781   2.865   1.382  0.9973  0.0553 -2.3023
16369TIP3   OH270597   3.264   1.684  15.762 -0.0395 -0.4565 -0.3002
16369TIP3    H170598   3.299   1.623  15.827  1.7013 -1.1815 -1.8370
16369TIP3    H270599   3.323   1.759  15.765  0.6289 -0.8963 -1.6543
16370TIP3   OH270600   3.544   3.566  12.333 -0.4798  0.6071  0.2978
16370TIP3    H170601   3.553   3.630  12.261 -0.6982  0.2216 -0.0782
16370TIP3    H270602   3.468   3.513  12.308 -1.1277  1.0499  1.2696
16371TIP3   OH270603   1.782   5.894  15.136  0.3039 -0.4445  0.2637
16371TIP3    H170604   1.805   5.807  15.101 -0.5044 -0.9963  1.0693
16371TIP3    H270605   1.688   5.901  15.121  0.2371 -0.0174  0.8839
16372TIP3   OH270606   4.661   0.941  12.056  0.5654  0.3749 -0.5299
16372TIP3    H170607   4.605   0.875  12.097 -1.4684  2.1830 -0.2202
16372TIP3    H270608   4.625   0.949  11.967 -0.2739  2.1478 -0.0661
16373TIP3   OH270609   4.500   3.834  13.048  0.3618 -0.5045 -0.4239
16373TIP3    H170610   4.482   3.740  13.040 -1.9411 -0.0950 -0.9717
16373TIP3    H270611   4.414   3.873  13.066  1.4305  1.3994  0.9351
16374TIP3   OH270612   3.210   5.485  15.730 -0.0920  0.1582 -0.1472
16374TIP3    H170613   3.236   5.408  15.680 -0.1398 -1.1268  1.6986
16374TIP3    H270614   3.166   5.542  15.666 -0.2729 -1.4388 -1.5114
16375TIP3   OH270615   5.748   2.062  11.553  0.2800  0.0578  0.4788
16375TIP3    H170616   5.679   2.096  11.496 -0.9911 -1.4670  1.0369
16375TIP3    H270617   5.752   1.968  11.532  1.8223  0.0209  0.8459
16376TIP3   OH270618   1.157   2.385  17.043 -0.4869  0.2587 -0.4523
16376TIP3    H170619   1.086   2.322  17.049  0.9907 -1.5903 -1.4047
16376TIP3    H270620   1.205   2.376  17.125  0.8935 -1.4104 -1.3792
16377TIP3   OH270621   5.776   5.787  11.704 -0.4715 -0.2225 -0.4289
16377TIP3    H170622   5.787   5.753  11.793 -0.8477 -2.3576 -1.1606
16377TIP3    H270623   5.684   5.770  11.683 -0.5368  0.7825 -1.0528
16378TIP3   OH270624   5.670   4.790   3.828  0.0363 -0.3193  0.3233
16378TIP3    H170625   5.693   4.868   3.777 -0.3925  0.0627  0.7134
16378TIP3    H270626   5.747   4.732   3.818 -0.9375 -1.3197 -2.7602
16379TIP3   OH270627   6.098   1.978   2.065 -0.1161  0.5259 -0.4184
16379TIP3    H170628   6.075   1.928   1.986 -2.2872  1.5488 -0.4858
16379TIP3    H270629   6.083   1.916   2.137  1.4208 -0.2604 -0.7319
16380TIP3   OH270630   2.778   6.491  10.963  0.5233 -1.1208  0.1541
16380TIP3    H170631   2.762   6.418  10.904 -1.8948  0.0371 -0.7397
16380TIP3    H270632   2.832   6.552  10.912 -1.3186 -0.2540 -0.8380
16381TIP3   OH270633   1.905   4.893  14.156 -0.6141 -0.5461 -0.0811
16381TIP3    H170634   1.948   4.810  14.139  0.4302 -0.0745  0.1386
16381TIP3    H270635   1.976   4.958  14.153 -0.9662  0.0296  2.2127
16382TIP3   OH270636   4.855   1.803  15.119  0.1909 -0.6058  0.1410
16382TIP3    H170637   4.888   1.719  15.085  0.0658 -0.6646  0.1664
16382TIP3    H270638   4.769   1.782  15.154  0.2099 -0.4901  0.2552
16383TIP3   OH270639   4.165   3.762  11.811 -0.1612 -0.3655  0.2440
16383TIP3    H170640   4.256   3.746  11.784  0.3536  0.3585  1.4809
16383TIP3    H270641   4.137   3.678  11.849  0.7913  0.0410  1.9620
16384TIP3   OH270642   6.292   3.408   5.326  0.0341 -0.4486 -0.4206
16384TIP3    H170643   6.221   3.408   5.262  0.4605  0.4472 -0.9025
16384TIP3    H270644   6.282   3.324   5.373 -1.9244  0.0668  0.1800
16385TIP3   OH270645   6.467   2.734  15.063 -0.3015  0.6347 -0.2271
16385TIP3    H170646   6.379   2.702  15.047 -0.0665  0.2414 -0.7820
16385TIP3    H270647   6.515   2.658  15.097 -0.3379  1.0144  0.7091
16386TIP3   OH270648   3.649   4.124   1.695 -0.1538  0.2339  0.1243
16386TIP3    H170649   3.703   4.195   1.660  0.4785 -0.7237 -0.9177
16386TIP3    H270650   3.708   4.049   1.698 -1.2967 -0.7173 -0.5720
16387TIP3   OH270651   4.226   4.794  16.874  0.2522 -0.2526 -0.0789
16387TIP3    H170652   4.131   4.797  16.865  0.3424 -0.5800 -1.4152
16387TIP3    H270653   4.243   4.828  16.961 -1.2147 -2.1161  1.0026
16388TIP3   OH270654   3.897   0.886  15.327 -0.6033  0.2052 -0.4453
16388TIP3    H170655   3.967   0.895  15.392 -0.7672  0.5042 -0.3069
16388TIP3    H270656   3.899   0.969  15.279  1.8687 -1.2970 -3.2276
16389TIP3   OH270657   4.554   2.116   6.011 -0.4215  0.4504  0.2146
16389TIP3    H170658   4.470   2.133   6.054 -0.7647  0.1430 -0.3202
16389TIP3    H270659   4.619   2.142   6.076 -0.9222  1.3371  0.3864
16390TIP3   OH270660   1.916   1.723   0.027 -0.6281  0.4781  0.4796
16390TIP3    H170661   1.857   1.796   0.044 -2.6538 -0.8088 -0.5438
16390TIP3    H270662   1.953   1.701   0.112 -0.4589  2.2648  0.8983
16391TIP3   OH270663   0.221   4.169  13.382 -0.2502 -0.1635  0.2424
16391TIP3    H170664   0.288   4.103  13.402  1.1867  1.2065  0.1941
16391TIP3    H270665   0.171   4.131  13.310  0.9573 -0.9583 -0.2234
16392TIP3   OH270666   0.210   6.415  16.348  0.6705 -0.2681  0.9100
16392TIP3    H170667   0.194   6.323  16.370 -0.1462 -0.3558 -0.0148
16392TIP3    H270668   0.160   6.430  16.268  1.0198  0.9127  0.8961
16393TIP3   OH270669   3.505   0.439   2.876 -0.8813 -0.2242  0.2187
16393TIP3    H170670   3.511   0.503   2.947 -1.1366  0.7239 -0.5977
16393TIP3    H270671   3.424   0.462   2.830 -0.3381 -0.3686 -0.8263
16394TIP3   OH270672   0.730   2.415   2.982  0.0555 -0.4170  0.2505
16394TIP3    H170673   0.674   2.430   3.058 -1.8840  1.6171 -1.4653
16394TIP3    H270674   0.779   2.496   2.971 -3.2002  1.3586 -3.3157
16395TIP3   OH270675   4.667   4.518  16.502 -0.3557  0.5459 -0.2464
16395TIP3    H170676   4.627   4.515  16.416 -0.5387  1.1916 -0.1870
16395TIP3    H270677   4.717   4.599  16.503  1.5143 -0.5279 -0.5527
16396TIP3   OH270678   1.793   0.351  15.923  0.4689 -0.2678 -0.4065
16396TIP3    H170679   1.851   0.299  15.980  0.9350 -0.5917 -1.1639
16396TIP3    H270680   1.726   0.289  15.894  0.4181 -0.1806 -0.4746
16397TIP3   OH270681   4.944   4.383   3.117 -0.0674 -0.3379  0.2903
16397TIP3    H170682   4.873   4.344   3.167  0.3232 -1.2704  0.1337
16397TIP3    H270683   5.019   4.381   3.176  0.0104 -0.0020  0.2070
16398TIP3   OH270684   2.269   5.183   3.338 -0.7987 -0.1115  0.3335
16398TIP3    H170685   2.227   5.251   3.285  1.0921  0.4009 -0.5861
16398TIP3    H270686   2.214   5.176   3.415 -1.6888  1.6472 -0.0815
16399TIP3   OH270687   4.870   5.805  15.548 -0.4105  0.1541 -0.3912
16399TIP3    H170688   4.848   5.878  15.606 -0.2966 -0.5970  0.6315
16399TIP3    H270689   4.787   5.781  15.507 -0.8466 -0.3808  0.7504
16400TIP3   OH270690   4.571   5.479  15.532 -0.1157 -0.2164  0.0453
16400TIP3    H170691   4.666   5.469  15.527 -0.2456 -1.1650 -1.1140
16400TIP3    H270692   4.557   5.553  15.591  1.3039 -0.8544  1.2459
16401TIP3   OH270693   0.772   4.133  15.640  0.3335 -0.2510 -0.4249
16401TIP3    H170694   0.854   4.123  15.591  1.1827 -0.6204  1.0108
16401TIP3    H270695   0.771   4.225  15.666 -0.4038  0.0863 -1.5878
16402TIP3   OH270696   5.018   6.263  15.219 -0.6011 -0.2199  0.3519
16402TIP3    H170697   4.951   6.215  15.268 -0.0776  0.7477  2.0643
16402TIP3    H270698   5.087   6.281  15.283 -0.7511  2.7648 -0.2088
16403TIP3   OH270699   4.930   3.252  16.901  0.3206 -0.0235  0.1931
16403TIP3    H170700   4.988   3.293  16.964  0.3784  0.7348 -0.3392
16403TIP3    H270701   4.843   3.259  16.940  0.3106  0.7516  0.0498
16404TIP3   OH270702   2.775   2.659   4.758 -0.0245  0.8843  0.0991
16404TIP3    H170703   2.823   2.687   4.836  1.1045 -1.5146  0.3617
16404TIP3    H270704   2.833   2.680   4.685  1.7531 -2.2635  0.4340
16405TIP3   OH270705   4.976   6.550  15.171  0.3578 -0.7117  0.5081
16405TIP3    H170706   5.043   6.564  15.237 -2.2332 -0.9133  3.4450
16405TIP3    H270707   4.972   6.455  15.160  0.2940 -0.7254  0.6471
16406TIP3   OH270708   1.595   3.186   0.639 -0.0349  0.1774  0.3164
16406TIP3    H170709   1.683   3.148   0.648  0.3345  1.2652  1.5589
16406TIP3    H270710   1.537   3.116   0.669  0.3407 -0.7115 -0.9204
16407TIP3   OH270711   0.329   6.531  13.433 -0.0863 -0.2563 -0.2436
16407TIP3    H170712   0.355   6.616  13.397 -1.1258 -0.0363 -0.5171
16407TIP3    H270713   0.238   6.543  13.460  0.1395 -0.9302  0.8675
16408TIP3   OH270714   0.705   4.584  16.263 -0.0015 -0.2270  0.2129
16408TIP3    H170715   0.717   4.491  16.244  0.4743 -0.3058  0.8237
16408TIP3    H270716   0.794   4.619  16.268 -0.1918  0.7400 -2.1214
16409TIP3   OH270717   3.804   3.676   6.074  0.5170  0.5274 -0.1625
16409TIP3    H170718   3.843   3.678   6.161 -0.7719 -0.5699  0.4814
16409TIP3    H270719   3.710   3.672   6.090  0.2752 -0.1124 -1.5938
16410TIP3   OH270720   0.225   1.392   1.108 -0.0745  0.0403  0.9209
16410TIP3    H170721   0.306   1.417   1.152 -0.2038  0.7490  0.7680
16410TIP3    H270722   0.210   1.461   1.044 -0.0872 -0.7753  0.0153
16411TIP3   OH270723   1.038   5.953  12.101 -0.0710 -0.4560 -0.0782
16411TIP3    H170724   1.020   5.999  12.183  1.4950  1.4859 -0.7500
16411TIP3    H270725   1.009   6.013  12.033 -2.4391 -2.5146 -1.0437
16412TIP3   OH270726   4.502   4.505   3.744  0.3884  0.4608 -0.3076
16412TIP3    H170727   4.501   4.412   3.768  1.3900  0.7057  0.7608
16412TIP3    H270728   4.583   4.516   3.694  0.9885  1.0155  0.7500
16413TIP3   OH270729   2.573   5.559  10.979 -0.0729 -0.4310  0.0388
16413TIP3    H170730   2.584   5.571  11.073  0.6512 -1.3161  0.0825
16413TIP3    H270731   2.647   5.504  10.953 -0.2353 -0.1664 -1.0603
16414TIP3   OH270732   0.105   4.455   2.227 -0.8073 -0.0951 -0.2519
16414TIP3    H170733   0.145   4.471   2.313 -2.7313  2.1999  0.2949
16414TIP3    H270734   0.065   4.368   2.236  1.9933 -1.5076 -0.1210
16415TIP3   OH270735   2.296   3.221  11.301 -0.0230  0.3304 -0.0260
16415TIP3    H170736   2.270   3.313  11.314  0.5769  0.6589 -1.0463
16415TIP3    H270737   2.376   3.212  11.354 -0.0840  0.3950  0.0786
16416TIP3   OH270738   5.039   5.085  14.126  0.4829  0.5539  0.3903
16416TIP3    H170739   5.132   5.086  14.148  0.4347  1.3272  0.5889
16416TIP3    H270740   5.028   5.158  14.064 -0.0321  0.6402  0.5743
16417TIP3   OH270741   2.217   4.432  17.092  0.4306  0.4882 -0.0646
16417TIP3    H170742   2.183   4.350  17.126  0.4350  0.3030 -0.4928
16417TIP3    H270743   2.140   4.488  17.081  0.6362  1.2438  2.0544
16418TIP3   OH270744   5.223   6.013   4.573 -0.1378  0.1730  0.2522
16418TIP3    H170745   5.260   6.080   4.631 -0.9215  0.4566  0.4315
16418TIP3    H270746   5.245   5.930   4.616  0.4878  0.3201  0.2349
16419TIP3   OH270747   2.994   2.529  16.758 -0.0115 -0.5496 -0.2754
16419TIP3    H170748   2.934   2.504  16.829  0.1663  1.8426  0.8021
16419TIP3    H270749   2.950   2.602  16.714  1.5117  0.3914 -0.2885
16420TIP3   OH270750   0.346   3.717   3.186  0.2587 -0.6068 -0.6780
16420TIP3    H170751   0.385   3.773   3.252  1.0694 -1.8157 -0.0964
16420TIP3    H270752   0.259   3.697   3.219  0.2909 -0.3933 -0.4664
16421TIP3   OH270753   1.250   4.212   1.944 -0.7203 -0.3524 -0.1770
16421TIP3    H170754   1.160   4.202   1.912 -0.0404 -1.9813 -1.6923
16421TIP3    H270755   1.304   4.165   1.881  1.1430 -0.1127  1.1550
16422TIP3   OH270756   2.712   3.472  15.020  0.4536  0.7863  0.3919
16422TIP3    H170757   2.767   3.534  15.068  0.1080  2.2484 -0.9950
16422TIP3    H270758   2.628   3.475  15.065  0.5561  1.0316  0.5708
16423TIP3   OH270759   2.053   6.540   4.232 -0.1768  0.0045 -0.0725
16423TIP3    H170760   2.091   6.493   4.158  0.5782 -0.8166  0.8096
16423TIP3    H270761   2.108   6.618   4.243 -1.3635  1.0882 -1.4668
16424TIP3   OH270762   6.028   0.018  14.300  0.2089 -0.5140 -0.4490
16424TIP3    H170763   6.054  -0.041  14.229 -0.8105 -0.7291 -0.6612
16424TIP3    H270764   5.941   0.049  14.275  0.4375  0.5431  0.0074
16425TIP3   OH270765   5.732   6.700   2.459  0.3315 -0.5289 -0.2078
16425TIP3    H170766   5.671   6.682   2.388  0.1702  1.3249 -0.5635
16425TIP3    H270767   5.681   6.748   2.524  1.2210  0.4480 -0.2048
16426TIP3   OH270768   4.397   2.240  14.523 -0.1164 -0.3574  0.1426
16426TIP3    H170769   4.433   2.252  14.611 -0.2433  1.1223  0.0070
16426TIP3    H270770   4.465   2.190  14.476  0.3989 -0.2684  0.7754
16427TIP3   OH270771   0.478   3.499  12.333 -0.4717 -0.2016  0.8537
16427TIP3    H170772   0.466   3.516  12.240 -1.1225 -1.9644  0.5659
16427TIP3    H270773   0.556   3.549  12.357 -0.2100  0.1758 -0.6653
16428TIP3   OH270774   2.598   4.390  15.702  0.9846 -0.6461  0.0166
16428TIP3    H170775   2.504   4.376  15.719  0.8565  1.9679  2.3174
16428TIP3    H270776   2.607   4.378  15.608 -1.5410 -1.5507 -0.2120
16429TIP3   OH270777   6.257   0.803  12.754 -0.0850 -0.3037  0.0238
16429TIP3    H170778   6.222   0.854  12.826  1.6017 -1.6755  1.9617
16429TIP3    H270779   6.188   0.802  12.688 -0.9577  2.6195  0.7613
16430TIP3   OH270780   2.781   5.248   3.412 -0.0770  0.0928  0.1349
16430TIP3    H170781   2.701   5.197   3.405  0.8038 -1.5842  1.5975
16430TIP3    H270782   2.841   5.193   3.462  1.3071  2.1344  0.8665
16431TIP3   OH270783   1.170   1.924  11.428 -0.1039  0.1801 -0.5823
16431TIP3    H170784   1.154   1.936  11.335  2.4785  0.3089 -1.0823
16431TIP3    H270785   1.212   1.838  11.434 -0.4159  0.0902  0.4907
16432TIP3   OH270786   4.335   6.564  12.179  0.6432  0.5974  0.2653
16432TIP3    H170787   4.297   6.552  12.092  0.3548  1.3031  0.2866
16432TIP3    H270788   4.363   6.477  12.206 -0.8050  0.0817  0.1736
16433TIP3   OH270789   5.675   2.385  16.792  0.0056  0.2241  0.0084
16433TIP3    H170790   5.665   2.304  16.842 -0.0885  0.3157  0.1364
16433TIP3    H270791   5.769   2.405  16.799  0.1934 -0.3376 -0.7412
16434TIP3   OH270792   5.307   4.493   1.328 -0.2826  0.2400 -0.3736
16434TIP3    H170793   5.358   4.567   1.360  1.9310 -1.3795  0.0757
16434TIP3    H270794   5.339   4.479   1.238  1.0169 -1.5073  0.3110
16435TIP3   OH270795   5.707   3.447   1.232  0.6242  0.1480 -0.2668
16435TIP3    H170796   5.640   3.464   1.299 -0.4119 -0.1379 -1.1947
16435TIP3    H270797   5.657   3.436   1.151  1.8349  0.2351 -1.0482
16436TIP3   OH270798   5.383   0.100  11.343  0.5747  0.0529  0.3362
16436TIP3    H170799   5.368   0.071  11.253  0.2759 -0.7585  0.6307
16436TIP3    H270800   5.439   0.032  11.381  1.3315  0.7854  0.5398
16437TIP3   OH270801   4.012   6.290   6.033 -0.0993  0.1037  0.1643
16437TIP3    H170802   4.107   6.287   6.034 -0.0918 -1.3460  2.2419
16437TIP3    H270803   3.990   6.381   6.052  0.8996  0.2267  0.7755
16438TIP3   OH270804   1.333   1.621   0.891  0.0918  0.1931  0.1679
16438TIP3    H170805   1.419   1.611   0.932 -0.0174  1.2955  0.6950
16438TIP3    H270806   1.272   1.586   0.956 -0.0970  2.0908  1.0997
16439TIP3   OH270807   6.013   0.806   1.776 -0.4392  0.3774  0.1280
16439TIP3    H170808   5.995   0.745   1.848  1.4288  1.4497  1.6107
16439TIP3    H270809   5.941   0.868   1.779 -1.0580 -0.3323  0.2181
16440TIP3   OH270810   3.410   2.069  16.917  0.4986  0.6277  0.0852
16440TIP3    H170811   3.432   2.026  16.835 -1.1579 -0.6351  0.2436
16440TIP3    H270812   3.316   2.088  16.910  1.0453  4.0692  0.1405
16441TIP3   OH270813   4.677   3.320  11.198  0.5756  0.3506  0.0057
16441TIP3    H170814   4.590   3.342  11.230 -1.1526 -3.3180 -1.5188
16441TIP3    H270815   4.676   3.343  11.105  0.5802 -1.0816 -0.3813
16442TIP3   OH270816   6.794   6.345   2.859 -0.2946  0.0840  0.2877
16442TIP3    H170817   6.838   6.292   2.926 -0.1691 -0.7963 -0.4685
16442TIP3    H270818   6.775   6.283   2.788 -0.0723  1.0682 -0.6597
16443TIP3   OH270819   1.732   3.896  14.695  0.4101  0.5884  0.0094
16443TIP3    H170820   1.763   3.812  14.661 -0.8419  0.3280 -0.5587
16443TIP3    H270821   1.666   3.925  14.632  2.2520  3.0616 -0.9775
16444TIP3   OH270822   2.018   6.106   1.669 -0.0034  0.2731  0.7206
16444TIP3    H170823   1.975   6.038   1.616 -1.3760  0.3654  1.6598
16444TIP3    H270824   2.111   6.095   1.651 -0.3792 -0.0684 -1.2533
16445TIP3   OH270825   4.761   3.017  13.664  0.6671 -0.3708 -0.0454
16445TIP3    H170826   4.723   2.932  13.640  0.3597 -0.4670  0.7469
16445TIP3    H270827   4.719   3.039  13.748  0.5994  0.6530 -0.3340
16446TIP3   OH270828   1.535   4.929  13.698  0.0287  0.4753  0.8678
16446TIP3    H170829   1.500   4.845  13.666 -1.0739  0.5984  1.7053
16446TIP3    H270830   1.557   4.912  13.790  1.0196  0.7685  0.7018
16447TIP3   OH270831   5.596   4.324   0.812  0.2946 -0.4425 -0.0984
16447TIP3    H170832   5.651   4.328   0.890 -0.1983  0.9323  0.2061
16447TIP3    H270833   5.606   4.410   0.771 -0.1576 -0.8322 -1.0639
16448TIP3   OH270834   5.666   5.113  11.300 -0.1302  0.0204  0.2957
16448TIP3    H170835   5.655   5.198  11.343 -0.5867 -0.2870  0.7796
16448TIP3    H270836   5.635   5.049  11.363 -1.3110 -0.4044 -0.6811
16449TIP3   OH270837   0.876   2.826  16.589 -0.1799 -0.0736  0.0639
16449TIP3    H170838   0.781   2.812  16.594 -0.3345  0.7345 -0.4885
16449TIP3    H270839   0.911   2.740  16.565 -0.7917 -0.3227  0.0333
16450TIP3   OH270840   2.502   2.267  11.451  0.1968 -0.7121 -0.5094
16450TIP3    H170841   2.445   2.190  11.450 -0.0104 -0.5552 -1.6233
16450TIP3    H270842   2.478   2.316  11.373  0.3213  0.5000  0.1882
16451TIP3   OH270843   0.348   4.438  15.022 -0.2386  0.2459 -0.7092
16451TIP3    H170844   0.440   4.412  15.023 -0.0900  0.6942  1.4239
16451TIP3    H270845   0.309   4.392  15.096 -1.1303  2.0321 -0.0105
16452TIP3   OH270846   5.899   1.583   4.946 -0.0432 -0.1280 -0.8214
16452TIP3    H170847   5.971   1.645   4.936  0.3837 -0.3491  0.7136
16452TIP3    H270848   5.869   1.594   5.036 -0.0998 -1.9873 -0.5603
16453TIP3   OH270849   6.259   1.429  15.916 -0.3327  0.1485 -0.0536
16453TIP3    H170850   6.268   1.353  15.973 -0.7327 -0.2850 -0.5524
16453TIP3    H270851   6.348   1.447  15.885 -0.4283 -1.0611 -1.1172
16454TIP3   OH270852   4.866   4.397  11.278 -0.1611  0.0432 -0.7318
16454TIP3    H170853   4.833   4.311  11.253 -1.9622 -0.0776  1.6403
16454TIP3    H270854   4.847   4.453  11.203 -2.0599 -0.9609 -1.0613
16455TIP3   OH270855   1.456   6.660   0.327  0.4244 -0.1827  0.8925
16455TIP3    H170856   1.438   6.577   0.283 -0.2654  0.9819 -1.1915
16455TIP3    H270857   1.373   6.684   0.369  0.4037 -0.1944  0.8585
16456TIP3   OH270858   2.062   3.698  15.106 -1.1447  0.4084  0.6778
16456TIP3    H170859   2.120   3.695  15.182 -0.8857 -0.6551  0.4608
16456TIP3    H270860   2.084   3.619  15.056 -1.9876  0.5818  0.0026
16457TIP3   OH270861   5.115   3.330   4.483  0.1067  0.4575  0.1403
16457TIP3    H170862   5.072   3.347   4.399 -2.1386 -3.7511  0.1998
16457TIP3    H270863   5.177   3.260   4.464  0.6549  0.4784  1.7575
16458TIP3   OH270864   0.838   5.960   4.413  0.7882  0.0611 -0.5452
16458TIP3    H170865   0.763   6.015   4.393  1.2066  0.7450 -0.2764
16458TIP3    H270866   0.866   5.925   4.329 -1.4904 -2.4583 -0.4078
16459TIP3   OH270867   3.550   3.126  11.853 -0.2024  0.0917  0.7394
16459TIP3    H170868   3.513   3.038  11.857 -0.1740  0.0400  0.0010
16459TIP3    H270869   3.618   3.126  11.920 -0.0056 -0.5501  0.5503
16460TIP3   OH270870   0.721   4.614  12.039  0.1985 -1.0048 -0.0088
16460TIP3    H170871   0.761   4.536  12.000  1.0507 -0.6027  0.0307
16460TIP3    H270872   0.653   4.580  12.097  0.4099 -1.7098 -0.1639
16461TIP3   OH270873   0.406   3.560  16.723 -0.0706 -0.3316 -0.9414
16461TIP3    H170874   0.313   3.580  16.716  0.2533  0.8733 -2.3216
16461TIP3    H270875   0.420   3.541  16.816 -1.0737  3.0149  0.0338
16462TIP3   OH270876   4.133   5.563  10.610  0.4316  0.5429 -0.5835
16462TIP3    H170877   4.062   5.622  10.637  0.9184  0.6961  0.4061
16462TIP3    H270878   4.200   5.621  10.576 -0.3202  0.3283 -2.5570
16463TIP3   OH270879   3.849   4.640   2.214 -0.0972 -0.9783 -0.3402
16463TIP3    H170880   3.763   4.672   2.242  0.3170 -0.3195  0.1969
16463TIP3    H270881   3.830   4.583   2.140 -0.7876  1.6179 -2.3175
16464TIP3   OH270882   3.382   6.180  13.028 -0.0904 -0.1906  0.1176
16464TIP3    H170883   3.428   6.222  13.101 -1.4673 -0.3430  1.1164
16464TIP3    H270884   3.289   6.198  13.045 -0.4097  0.3606 -1.9936
16465TIP3   OH270885   3.119   0.994   0.068 -0.0413 -0.4457 -0.1430
16465TIP3    H170886   3.207   1.013   0.035 -0.5492 -1.6207 -2.3626
16465TIP3    H270887   3.134   0.942   0.147  1.3508 -2.4228 -1.5961
16466TIP3   OH270888   6.082   5.503  12.935 -0.5139  0.7754  0.0271
16466TIP3    H170889   6.111   5.468  13.019  2.2104  1.0430 -0.7363
16466TIP3    H270890   6.013   5.442  12.907  0.6691 -1.1007  1.0278
16467TIP3   OH270891   1.346   5.397   4.557  0.0352  0.5079 -0.3039
16467TIP3    H170892   1.349   5.384   4.652 -2.5315  1.5623  0.0148
16467TIP3    H270893   1.379   5.485   4.544 -1.7812  1.2788 -0.0482
16468TIP3   OH270894   3.548   2.667   0.120 -0.6413 -0.1494  0.1666
16468TIP3    H170895   3.619   2.654   0.058  1.1698 -0.3136  2.1390
16468TIP3    H270896   3.498   2.585   0.116 -0.0173 -0.5144 -0.4031
16469TIP3   OH270897   3.357   6.583  11.378  0.3923  0.4731 -0.2394
16469TIP3    H170898   3.305   6.523  11.431  1.7299  0.7392  1.4707
16469TIP3    H270899   3.334   6.561  11.287 -1.4263 -0.4962  0.4053
16470TIP3   OH270900   3.684   1.593  11.942 -0.1569  0.1456 -0.4969
16470TIP3    H170901   3.689   1.673  11.994 -0.1742 -0.6942  0.8494
16470TIP3    H270902   3.761   1.542  11.969  0.8300  0.4193 -2.6100
16471TIP3   OH270903   4.653   0.275   1.650  0.5281 -0.2313 -0.4518
16471TIP3    H170904   4.661   0.202   1.588 -2.0930  0.5232 -1.7942
16471TIP3    H270905   4.649   0.353   1.595  0.7883  0.7089  0.8335
16472TIP3   OH270906   4.281   2.769   2.919 -0.2983  0.5254  0.2326
16472TIP3    H170907   4.208   2.802   2.972 -0.7607 -1.4388  0.9326
16472TIP3    H270908   4.240   2.738   2.839 -0.3712 -1.0368  0.8296
16473TIP3   OH270909   5.168   4.954   5.637  0.4043  0.5478 -0.1054
16473TIP3    H170910   5.119   4.916   5.564 -2.2023  0.5332  1.5055
16473TIP3    H270911   5.202   4.879   5.685  1.4451  0.5332 -0.8446
16474TIP3   OH270912   5.874   2.522  11.324 -0.5710  0.2653 -0.0695
16474TIP3    H170913   5.891   2.520  11.230  2.4680 -0.6437  0.3851
16474TIP3    H270914   5.825   2.442  11.341 -1.7685  0.7856 -0.9435
16475TIP3   OH270915   1.414   1.012   4.554  0.3182 -0.1654 -0.4370
16475TIP3    H170916   1.331   1.014   4.505 -0.4859  1.4243  0.8685
16475TIP3    H270917   1.474   1.064   4.501 -0.0936  0.2752 -0.4781
16476TIP3   OH270918   4.789   4.527  17.014 -0.5659  0.0290  0.2822
16476TIP3    H170919   4.844   4.461  17.056 -0.5544  0.5863  1.1749
16476TIP3    H270920   4.851   4.594  16.984 -0.5825 -0.3258 -0.5659
16477TIP3   OH270921   3.045   3.431  16.514  0.4187 -0.3348 -0.0857
16477TIP3    H170922   3.115   3.367  16.501 -1.1967 -2.6695  1.7276
16477TIP3    H270923   2.978   3.407  16.451  0.6097  0.9633 -0.8211
16478TIP3   OH270924   4.398   2.978  16.306 -0.3714  0.3254  0.0068
16478TIP3    H170925   4.484   3.008  16.276 -0.8051  0.7188 -0.8611
16478TIP3    H270926   4.417   2.902  16.362  0.4096 -1.1007 -2.0803
16479TIP3   OH270927   6.424   5.814  16.453 -0.1067 -0.3182 -0.2909
16479TIP3    H170928   6.492   5.874  16.421  0.8408  0.0839  2.2151
16479TIP3    H270929   6.465   5.728  16.448  0.5618 -0.1057  0.9720
16480TIP3   OH270930   4.969   6.814  13.380  0.2633 -0.2596 -0.2656
16480TIP3    H170931   5.012   6.832  13.297 -2.3022  1.5604 -1.3321
16480TIP3    H270932   4.998   6.884  13.438  2.3230 -1.7198  0.6019
16481TIP3   OH270933   3.413   4.531  15.580 -0.0688 -0.0440  0.4319
16481TIP3    H170934   3.490   4.574  15.545 -0.2489  0.1753  0.3072
16481TIP3    H270935   3.341   4.560  15.525 -0.2225 -0.3464  0.4686
16482TIP3   OH270936   2.932   3.370   0.053  0.4246 -0.2216  0.3033
16482TIP3    H170937   2.936   3.428  -0.022 -1.8031  0.6588  0.7652
16482TIP3    H270938   2.875   3.298   0.026  3.1658 -2.3701 -0.2764
16483TIP3   OH270939   6.128   2.749   4.063  0.1326  0.6734 -0.3338
16483TIP3    H170940   6.068   2.763   4.136 -0.4832 -1.7408 -0.2817
16483TIP3    H270941   6.199   2.697   4.100  1.6906  2.4215 -0.6995
16484TIP3   OH270942   1.058   0.742   4.579  0.0197  0.1965 -0.2265
16484TIP3    H170943   1.071   0.657   4.622 -0.9477 -0.2285 -0.7280
16484TIP3    H270944   0.963   0.750   4.571  0.1265 -0.3829 -3.4470
16485TIP3   OH270945   1.426   3.832  12.431 -0.0288  0.3744  0.2455
16485TIP3    H170946   1.517   3.864  12.426  0.2091 -0.1557  1.0190
16485TIP3    H270947   1.429   3.746  12.389 -0.6602  1.2891 -1.7889
16486TIP3   OH270948   0.672   0.713  11.447  0.0638 -0.0760 -0.0171
16486TIP3    H170949   0.631   0.778  11.505  0.6304  1.0580 -0.8430
16486TIP3    H270950   0.705   0.765  11.373  1.6830 -1.1384 -0.0836
16487TIP3   OH270951   6.356   2.489   3.887 -0.0104  0.3685 -0.6991
16487TIP3    H170952   6.358   2.532   3.802 -1.2978  0.1270 -0.8647
16487TIP3    H270953   6.264   2.474   3.905  0.3184 -0.9536  0.0548
16488TIP3   OH270954   5.231   5.910  16.430  0.2865  0.3753  0.5259
16488TIP3    H170955   5.136   5.913  16.435  0.1877  1.9796 -1.0882
16488TIP3    H270956   5.253   5.818  16.446 -1.4938  0.0226  1.1948
16489TIP3   OH270957   0.335   0.567  16.356 -0.0162 -0.0449  0.4810
16489TIP3    H170958   0.305   0.627  16.287 -3.5518  0.1458  1.9709
16489TIP3    H270959   0.349   0.484  16.310  2.1104  1.0812 -1.1161
16490TIP3   OH270960   3.356   3.603  15.961  0.2010 -0.4904  0.2692
16490TIP3    H170961   3.432   3.622  16.016 -0.0823  0.9495  0.2013
16490TIP3    H270962   3.289   3.572  16.022  0.0880  0.5048  0.6601
16491TIP3   OH270963   3.249   1.847   4.066 -0.2888  0.0490  0.6325
16491TIP3    H170964   3.254   1.909   3.994 -1.7759  1.3778  1.6214
16491TIP3    H270965   3.291   1.892   4.139 -0.0822 -0.7072  0.9908
16492TIP3   OH270966   0.950   2.897   0.950  0.1105  0.2566 -0.8445
16492TIP3    H170967   0.963   2.877   1.042  0.0464  1.2181 -0.6100
16492TIP3    H270968   0.947   2.993   0.947  0.0013  0.2321 -1.8281
16493TIP3   OH270969   2.416   6.030   1.163 -0.1186 -0.8944  0.3287
16493TIP3    H170970   2.484   5.963   1.154  1.4230  0.6657 -0.3078
16493TIP3    H270971   2.337   5.989   1.127  0.8342 -2.2481 -0.3295
16494TIP3   OH270972   5.170   3.833   2.454  0.0286 -0.5037 -0.5305
16494TIP3    H170973   5.175   3.876   2.539  2.4510 -0.8918 -0.3947
16494TIP3    H270974   5.198   3.900   2.392 -0.3072 -0.6576 -0.8531
16495TIP3   OH270975   4.477   0.728   5.787 -0.5370 -0.2963 -0.3848
16495TIP3    H170976   4.382   0.722   5.783 -0.5261  0.0134 -1.7974
16495TIP3    H270977   4.496   0.821   5.773 -0.0109 -0.5093 -1.1760
16496TIP3   OH270978   3.791   5.207  17.143 -0.3834 -0.8764  0.0777
16496TIP3    H170979   3.756   5.161  17.066 -1.0378 -0.0415 -0.1423
16496TIP3    H270980   3.777   5.147  17.216 -0.7701 -1.2247 -0.2786
16497TIP3   OH270981   2.364   5.000   2.066 -0.0053 -0.3892  0.1206
16497TIP3    H170982   2.431   5.060   2.034  1.2911 -1.2151  1.1925
16497TIP3    H270983   2.307   4.985   1.990 -0.0675  1.7248 -0.3259
16498TIP3   OH270984   2.905   3.985   5.928  0.2717  0.4425  0.1216
16498TIP3    H170985   2.885   3.914   5.989 -0.6791  0.2598 -0.3985
16498TIP3    H270986   2.943   4.053   5.983 -0.5973  0.2902  0.9334
16499TIP3   OH270987   4.989   6.328  10.690 -0.2570 -0.1987  0.7162
16499TIP3    H170988   5.056   6.390  10.660 -0.2706 -0.0326  1.0247
16499TIP3    H270989   4.921   6.333  10.623 -0.8405  1.0709  1.3623
16500TIP3   OH270990   1.184   3.083   5.086  0.5083 -0.4225 -0.0088
16500TIP3    H170991   1.148   3.079   4.998  1.0602 -1.1617 -0.2101
16500TIP3    H270992   1.108   3.081   5.144  0.1698 -0.4942 -0.4565
16501TIP3   OH270993   5.835   3.300   2.136  0.1703 -0.2232 -0.5072
16501TIP3    H170994   5.851   3.328   2.046 -1.5807 -0.0278 -0.7808
16501TIP3    H270995   5.741   3.312   2.150  0.0582 -2.0113  0.7363
16502TIP3   OH270996   0.340   2.481   0.729 -0.4714 -0.0320  0.2136
16502TIP3    H170997   0.276   2.423   0.687  0.0777  0.5511 -1.4946
16502TIP3    H270998   0.333   2.460   0.823 -0.0568 -3.1218 -0.3184
16503TIP3   OH270999   0.100   1.478  10.949 -0.5158 -0.2184 -0.1255
16503TIP3    H171000   0.018   1.463  10.901 -0.3101  1.7924 -1.2396
16503TIP3    H271001   0.105   1.573  10.957  2.4119 -0.1705 -1.3923
16504TIP3   OH271002   5.278   5.113  13.000  0.8036  0.4351 -0.1263
16504TIP3    H171003   5.193   5.144  12.968  0.6700  0.8796  0.6313
16504TIP3    H271004   5.326   5.193  13.020  0.9913  0.1648  0.4998
16505TIP3   OH271005   2.908   6.828   1.066  0.2405  0.6311  0.2895
16505TIP3    H171006   2.955   6.763   1.118 -0.4573 -0.6602 -0.6406
16505TIP3    H271007   2.973   6.895   1.046  1.3636 -0.4891  0.0693
16506TIP3   OH271008   2.882   4.033   2.647 -0.1073 -0.1166  0.1843
16506TIP3    H171009   2.937   3.961   2.679 -1.0976 -0.8938  0.1713
16506TIP3    H271010   2.864   4.010   2.556  3.1645  2.3553 -1.3097
16507TIP3   OH271011   0.221   1.352  16.465 -0.5245  0.2450 -0.4348
16507TIP3    H171012   0.285   1.324  16.531 -0.6464  0.9628 -0.0010
16507TIP3    H271013   0.186   1.270  16.429  0.0958 -0.1509 -0.1462
16508TIP3   OH271014   3.796   3.062  11.566  0.8115  0.1515 -0.0929
16508TIP3    H171015   3.770   2.982  11.520  0.0737 -0.3040  1.0650
16508TIP3    H271016   3.794   3.037  11.658  0.9572  1.4049  0.2539
16509TIP3   OH271017   6.434   3.792  12.916 -0.1083 -0.0141 -0.1063
16509TIP3    H171018   6.529   3.784  12.908 -0.1994 -1.1705 -0.0846
16509TIP3    H271019   6.407   3.839  12.837  0.3297 -0.8692 -0.7710
16510TIP3   OH271020   3.636   2.419  15.207 -0.0730  0.3635  0.3125
16510TIP3    H171021   3.681   2.354  15.261 -2.2940 -0.3708  1.4143
16510TIP3    H271022   3.596   2.369  15.137 -2.3530  0.3296  1.5314
16511TIP3   OH271023   5.238   6.419  13.593 -0.1010  0.2043 -0.2480
16511TIP3    H171024   5.285   6.442  13.513  0.4799  0.4490  0.1557
16511TIP3    H271025   5.188   6.498  13.615  0.9319  0.6795  0.4597
16512TIP3   OH271026   0.430   2.441  12.535  0.0769  0.0147 -0.0365
16512TIP3    H171027   0.355   2.436  12.475 -0.5893  0.2096  0.7625
16512TIP3    H271028   0.397   2.491  12.610  0.4132 -1.5559  1.2048
16513TIP3   OH271029   5.607   0.027  15.282  0.2168  0.3563  0.2654
16513TIP3    H171030   5.566   0.107  15.314  2.7753  1.3865  1.1923
16513TIP3    H271031   5.603   0.034  15.187 -2.3480  0.0249  0.2880
16514TIP3   OH271032   0.383   2.819   6.400  0.4016 -0.1570 -0.1993
16514TIP3    H171033   0.297   2.861   6.411  1.1467  1.5548 -0.5609
16514TIP3    H271034   0.432   2.846   6.478  0.8398 -0.5466 -0.3388
16515TIP3   OH271035   2.808   1.996   0.933 -0.3433 -0.1738 -0.2637
16515TIP3    H171036   2.781   1.928   0.870  0.3543  0.2069 -0.9914
16515TIP3    H271037   2.873   1.953   0.988 -0.8459 -0.4646  0.1165
16516TIP3   OH271038   0.503   0.955   3.375  0.0763  0.1292 -0.1409
16516TIP3    H171039   0.447   1.013   3.426 -0.2697  1.2276 -1.7128
16516TIP3    H271040   0.507   0.995   3.288  2.3476 -0.5434 -0.4140
16517TIP3   OH271041   0.265   4.416  16.423 -0.2279 -0.1695  0.0127
16517TIP3    H171042   0.343   4.469  16.404 -0.1743  0.2888  1.3960
16517TIP3    H271043   0.248   4.431  16.516 -0.7645 -1.8742  0.2185
16518TIP3   OH271044   5.838   4.159  16.544 -0.3002 -0.0667  0.5752
16518TIP3    H171045   5.876   4.189  16.462 -0.2870 -0.3276  0.4859
16518TIP3    H271046   5.744   4.176  16.534 -0.1588  1.0258  0.9860
16519TIP3   OH271047   3.063   0.569  13.572 -0.1525 -0.0869 -0.9217
16519TIP3    H171048   3.100   0.542  13.487 -0.3319 -0.7181 -0.8092
16519TIP3    H271049   2.992   0.507  13.587  0.4181 -0.5151  0.0918
16520TIP3   OH271050   2.341   3.481   0.976 -0.1926 -0.0422  0.0702
16520TIP3    H171051   2.384   3.398   0.997  1.7040  1.2445  1.5762
16520TIP3    H271052   2.382   3.509   0.894 -0.0596 -0.0818  0.1235
16521TIP3   OH271053   0.195   0.711   4.541  0.2473 -0.1541 -0.4609
16521TIP3    H171054   0.287   0.684   4.534  0.2130 -1.0733  1.8323
16521TIP3    H271055   0.195   0.784   4.603 -0.3623  1.3960 -2.1985
16522TIP3   OH271056   3.329   2.522  11.743 -0.5522 -0.2929 -0.3661
16522TIP3    H171057   3.317   2.564  11.828  3.2706  1.7329 -0.6127
16522TIP3    H271058   3.414   2.479  11.749 -1.1692 -1.9900 -2.5200
16523TIP3   OH271059   5.812   3.789  14.189 -0.0283 -0.0895  0.2640
16523TIP3    H171060   5.841   3.738  14.113 -1.1167 -1.1580  0.5450
16523TIP3    H271061   5.892   3.803  14.239  0.6141  0.1409 -0.7809
16524TIP3   OH271062   0.226   3.962  14.799  0.7317 -0.0270  0.1402
16524TIP3    H171063   0.142   3.949  14.844 -0.3080 -0.3649 -1.7816
16524TIP3    H271064   0.254   3.874  14.775  1.4445  0.1207  0.4203
16525TIP3   OH271065   4.655   3.706  14.179  0.2090  0.7971 -0.5260
16525TIP3    H171066   4.592   3.722  14.109 -1.1950 -0.5147  0.3899
16525TIP3    H271067   4.623   3.628  14.224  2.1128  0.4845  0.4243
16526TIP3   OH271068   3.004   3.703  14.466  0.3418 -0.1189  0.2694
16526TIP3    H171069   2.991   3.791  14.502 -0.3351 -0.5154  1.0353
16526TIP3    H271070   3.062   3.660  14.528 -0.3760 -0.6243  0.6117
16527TIP3   OH271071   6.758   6.824  14.628  0.5155 -0.1979  0.2679
16527TIP3    H171072   6.795   6.741  14.597  1.2764  0.4052 -0.4700
16527TIP3    H271073   6.826   6.861  14.684  0.0483 -0.2132  0.8531
16528TIP3   OH271074   1.867   2.069   1.068  0.2722  1.0088 -0.4341
16528TIP3    H171075   1.954   2.085   1.032 -0.6678  1.7113 -2.5522
16528TIP3    H271076   1.861   2.126   1.144  2.2277 -0.3011  0.8020
16529TIP3   OH271077   4.110   2.858  12.845 -0.6806  0.1689 -0.4377
16529TIP3    H171078   4.111   2.925  12.776 -2.1008 -1.2170 -1.8760
16529TIP3    H271079   4.044   2.889  12.907 -2.9549 -0.8383 -2.1966
16530TIP3   OH271080   2.496   3.290   4.733 -0.0111 -0.5752 -0.0396
16530TIP3    H171081   2.430   3.357   4.720  0.0759  0.1556  2.7167
16530TIP3    H271082   2.500   3.244   4.649 -0.2412  2.6526 -1.9909
16531TIP3   OH271083   6.191   5.756   3.366  0.0547 -0.0396 -0.1842
16531TIP3    H171084   6.262   5.820   3.375 -1.4975  1.9576 -1.2738
16531TIP3    H271085   6.127   5.782   3.433 -0.5339 -0.5445 -0.5415
16532TIP3   OH271086   3.235   3.173   6.265  0.2059 -0.3147  0.1065
16532TIP3    H171087   3.241   3.166   6.169  3.7758 -1.5083  0.2571
16532TIP3    H271088   3.309   3.122   6.297 -1.4048 -0.6864  3.6046
16533TIP3   OH271089   4.816   6.236  12.593 -0.1674 -0.7831  0.7782
16533TIP3    H171090   4.752   6.257  12.525  0.5340  0.4632  0.4742
16533TIP3    H271091   4.783   6.280  12.671  0.0528 -0.5513  0.7425
16534TIP3   OH271092   0.043   4.548   3.466 -0.3954 -0.0800 -0.4497
16534TIP3    H171093   0.074   4.522   3.552 -1.4025 -1.6808 -0.5239
16534TIP3    H271094  -0.047   4.579   3.482  0.5742  3.1038 -0.4398
16535TIP3   OH271095   4.144   4.642   0.485  0.0014  0.1826 -0.2425
16535TIP3    H171096   4.227   4.617   0.445  0.2971 -0.3757  0.6792
16535TIP3    H271097   4.102   4.699   0.421  0.0201 -1.4319 -1.7519
16536TIP3   OH271098   5.304   2.227  16.543 -0.6760 -0.3087  0.4537
16536TIP3    H171099   5.377   2.191  16.592 -1.3271  0.4224  2.0155
16536TIP3    H271100   5.276   2.303  16.593 -2.1226 -0.2058 -0.4387
16537TIP3   OH271101   0.543   3.913  15.277 -0.2487 -0.3362 -0.2634
16537TIP3    H171102   0.460   3.874  15.249 -0.8059  2.2513 -2.6314
16537TIP3    H271103   0.521   3.963  15.355 -0.6814 -0.4868 -0.2862
16538TIP3   OH271104   6.538   3.553   5.136  0.6898 -0.0568 -0.0909
16538TIP3    H171105   6.520   3.460   5.123  2.2094 -0.5753  1.2372
16538TIP3    H271106   6.499   3.596   5.059  1.9473 -2.0113 -1.9380
16539TIP3   OH271107   2.615   3.086  14.713  0.3900 -0.5975 -0.3830
16539TIP3    H171108   2.573   3.150  14.771  0.6770 -0.9256  0.2027
16539TIP3    H271109   2.709   3.100  14.727  0.4532 -0.9575 -0.4569
16540TIP3   OH271110   6.300   0.070   1.836  0.0639  0.1470  0.3115
16540TIP3    H171111   6.385   0.078   1.878  0.0324 -2.1619  0.9635
16540TIP3    H271112   6.284   0.156   1.797  2.8563  0.5244 -0.2015
16541TIP3   OH271113   0.535   6.231  14.275 -0.2880  0.3138  0.2923
16541TIP3    H171114   0.605   6.172  14.304 -0.1167  0.8491  0.9655
16541TIP3    H271115   0.508   6.278  14.353  0.8659  2.5090 -0.5601
16542TIP3   OH271116   2.210   2.806   6.056  0.1434 -0.1232 -0.1115
16542TIP3    H171117   2.278   2.851   6.106 -2.0631  1.5616  1.5438
16542TIP3    H271118   2.230   2.826   5.965  1.1938  1.3008  0.4026
16543TIP3   OH271119   4.985   6.012  10.534  0.5341 -0.1672  0.0714
16543TIP3    H171120   4.934   5.938  10.567  0.5391  0.0881  0.6591
16543TIP3    H271121   5.061   6.017  10.591  0.5223  0.3064  0.0551
16544TIP3   OH271122   2.641   0.173   2.773 -0.4895  0.4742  0.1258
16544TIP3    H171123   2.632   0.155   2.679 -3.4080  0.8538  0.2476
16544TIP3    H271124   2.551   0.181   2.805  0.4349  1.8439  2.6895
16545TIP3   OH271125   2.150   4.073  14.152 -0.4548 -0.4568 -0.2001
16545TIP3    H171126   2.065   4.071  14.107 -0.2939  1.2876 -0.6409
16545TIP3    H271127   2.213   4.094  14.082  0.0718  0.2397  0.4744
16546TIP3   OH271128   4.320   2.679  12.568  0.3900  0.8186 -0.3609
16546TIP3    H171129   4.357   2.608  12.515 -1.6824  0.2027 -1.1070
16546TIP3    H271130   4.328   2.649  12.658 -2.0478 -1.3115 -0.7275
16547TIP3   OH271131   0.815   0.759   5.403 -0.1002  0.0325 -0.2565
16547TIP3    H171132   0.749   0.704   5.445  0.2577 -0.3226 -0.1560
16547TIP3    H271133   0.767   0.838   5.377 -0.3715  0.1887  0.6556
16548TIP3   OH271134   6.465   5.048   0.657 -0.1792  0.0772  1.2054
16548TIP3    H171135   6.472   5.077   0.748 -1.1725  1.0851  0.9880
16548TIP3    H271136   6.515   5.111   0.607 -1.4793  0.8500  0.8365
16549TIP3   OH271137   6.460   5.327   3.603  0.0868  0.2442 -0.2407
16549TIP3    H171138   6.397   5.388   3.564  0.0800  0.0692 -0.5079
16549TIP3    H271139   6.407   5.273   3.661 -0.0055  0.1174 -0.4411
16550TIP3   OH271140   5.862   6.069   2.817  0.2590  0.3378  0.5537
16550TIP3    H171141   5.835   5.993   2.869  1.6411 -0.4747  0.1298
16550TIP3    H271142   5.906   6.126   2.880 -0.9242  0.9079  0.9071
16551TIP3   OH271143   2.637   2.536   6.473  0.1150 -0.3922 -0.3670
16551TIP3    H171144   2.690   2.461   6.448 -0.0439 -0.6540  0.0664
16551TIP3    H271145   2.672   2.562   6.558  0.7445  0.5701 -0.8989
16552TIP3   OH271146   4.195   0.490   6.134  0.1617  0.0945  0.1797
16552TIP3    H171147   4.103   0.504   6.108 -0.8338 -2.6923  1.8029
16552TIP3    H271148   4.233   0.441   6.061  0.3940  1.2108 -0.4750
16553TIP3   OH271149   6.579   6.589   1.276  0.1371 -0.0620  0.7640
16553TIP3    H171150   6.514   6.573   1.345 -0.4417 -0.6831  0.0953
16553TIP3    H271151   6.529   6.582   1.194  0.9639 -0.0910  0.2500
16554TIP3   OH271152   0.967   3.119   1.424 -0.3331 -0.5738  0.5373
16554TIP3    H171153   0.904   3.118   1.352  0.1880 -1.1596  0.0667
16554TIP3    H271154   0.917   3.092   1.501 -1.2299  1.4530  0.7215
16555TIP3   OH271155   1.133   2.264   4.992  0.3139 -0.2325  0.0609
16555TIP3    H171156   1.130   2.303   4.905  1.4322  1.1684  0.6093
16555TIP3    H271157   1.213   2.299   5.032  0.3796 -1.6563  1.2863
16556TIP3   OH271158   1.392   2.757  12.424  0.2459  0.3753  0.1479
16556TIP3    H171159   1.385   2.831  12.364  0.1177 -0.7261 -1.2463
16556TIP3    H271160   1.431   2.687  12.372 -0.6962 -0.9009  1.0766
16557TIP3   OH271161   0.860   5.269  12.701  0.0716 -0.0721  0.3993
16557TIP3    H171162   0.797   5.204  12.670 -0.1749  0.1312  0.4674
16557TIP3    H271163   0.925   5.218  12.750  1.3649 -0.6297 -1.7524
16558TIP3   OH271164   4.714   0.798   3.412 -0.5141 -0.1927  0.7738
16558TIP3    H171165   4.649   0.754   3.468 -1.1847  0.1216  0.2508
16558TIP3    H271166   4.675   0.882   3.390  0.8757  0.8371  1.9857
16559TIP3   OH271167   3.301   5.708   2.416  0.3907 -0.2734  0.1452
16559TIP3    H171168   3.394   5.687   2.404  0.0931 -0.9766 -1.2512
16559TIP3    H271169   3.256   5.656   2.349 -0.9411  0.6734  0.2519
16560TIP3   OH271170   5.937   2.935  17.095 -0.2063 -0.0027  0.0912
16560TIP3    H171171   6.024   2.971  17.116  0.7983 -1.5359 -1.1487
16560TIP3    H271172   5.929   2.945  17.000 -0.7923 -1.0914  0.0093
16561TIP3   OH271173   4.319   6.333   1.638  0.3832 -0.5090 -0.6252
16561TIP3    H171174   4.271   6.356   1.558  1.6989  1.4282 -0.9038
16561TIP3    H271175   4.365   6.252   1.615 -0.4222 -0.8006 -1.3007
16562TIP3   OH271176   3.018   1.186  11.889 -0.0225 -0.2595 -0.0951
16562TIP3    H171177   3.002   1.107  11.941 -0.6563  0.2124  0.4374
16562TIP3    H271178   3.016   1.258  11.952  1.6469  0.0953 -0.4095
16563TIP3   OH271179   6.263   4.402  11.532 -1.0959 -0.1229 -0.1351
16563TIP3    H171180   6.334   4.441  11.480 -0.7783 -1.7499 -0.9951
16563TIP3    H271181   6.205   4.475  11.552 -0.1488  0.9154 -1.0327
16564TIP3   OH271182   3.441   3.545   2.877  0.3194  0.2359 -0.1229
16564TIP3    H171183   3.460   3.639   2.882  0.6957  0.1419  0.2644
16564TIP3    H271184   3.468   3.521   2.788 -0.3585  0.6125 -0.4418
16565TIP3   OH271185   6.300   0.259  11.335 -0.2880  0.5148 -0.1146
16565TIP3    H171186   6.381   0.286  11.378  0.1099 -2.1395  0.9824
16565TIP3    H271187   6.277   0.177  11.376 -1.2368 -1.0110 -3.3385
16566TIP3   OH271188   4.327   1.187  15.298 -0.9502 -0.0032  0.6280
16566TIP3    H171189   4.242   1.148  15.320 -2.0356  2.1440  0.4066
16566TIP3    H271190   4.375   1.186  15.381 -1.0038 -1.5867  0.6730
16567TIP3   OH271191   0.574   4.867  12.873 -0.3388  0.5451 -0.5870
16567TIP3    H171192   0.551   4.790  12.925  0.9797 -0.1118 -0.9407
16567TIP3    H271193   0.541   4.848  12.785 -0.0790  0.3964 -0.6561
16568TIP3   OH271194   0.587   3.778  13.282  0.0331 -0.3985 -0.0161
16568TIP3    H171195   0.516   3.842  13.292  0.9494  0.3749  2.2405
16568TIP3    H271196   0.664   3.831  13.262  0.5303 -0.9351  0.4488
16569TIP3   OH271197   6.735   0.933  12.726 -0.7640  0.7291  0.2079
16569TIP3    H171198   6.780   0.939  12.642 -0.5188 -0.8606  0.1878
16569TIP3    H271199   6.663   0.872  12.710  0.5038 -1.2712  1.6068
16570TIP3   OH271200   5.833   4.799  12.682  0.5781 -0.3102  0.4246
16570TIP3    H171201   5.890   4.727  12.709 -0.7527 -0.8337  2.0362
16570TIP3    H271202   5.807   4.840  12.765 -1.0651  0.1257 -0.2690
16571TIP3   OH271203   5.323   5.370  15.875  0.0919  0.0541 -0.2378
16571TIP3    H171204   5.278   5.415  15.804  0.0396 -0.9375 -0.8586
16571TIP3    H271205   5.283   5.283  15.877  1.0481 -0.3927  0.0961
16572TIP3   OH271206   4.764   0.069   4.379 -0.4669  0.4309 -0.3614
16572TIP3    H171207   4.776   0.156   4.340  1.5040 -0.0666 -1.0186
16572TIP3    H271208   4.671   0.050   4.369 -0.8497  2.2544 -0.6290
16573TIP3   OH271209   2.585   2.555  12.721 -0.5811  0.4893  0.1395
16573TIP3    H171210   2.674   2.586  12.704  0.0459  0.2786  2.5584
16573TIP3    H271211   2.542   2.629  12.764 -0.3384 -0.5520  2.3294
16574TIP3   OH271212   5.745   3.352  15.110 -0.8450  0.5599 -0.4852
16574TIP3    H171213   5.747   3.288  15.181  1.3568  1.6730  0.5741
16574TIP3    H271214   5.664   3.400  15.123 -0.8324  0.2567  0.8584
16575TIP3   OH271215   0.710   0.273  15.734 -0.4088  0.4066  0.5443
16575TIP3    H171216   0.651   0.254  15.661 -0.9835 -0.8518  1.2987
16575TIP3    H271217   0.740   0.363  15.719  0.4562 -0.2181 -1.8845
16576TIP3   OH271218   5.435   2.909  15.908  0.0929 -0.6211  0.1651
16576TIP3    H171219   5.467   2.829  15.949  0.1421 -0.8774 -0.3665
16576TIP3    H271220   5.424   2.971  15.980  1.0411 -0.7720  0.4465
16577TIP3   OH271221   4.313   2.427   2.537  0.0476 -0.3477  0.3976
16577TIP3    H171222   4.313   2.485   2.461  0.6868 -0.1825  0.5229
16577TIP3    H271223   4.221   2.422   2.563 -0.7879 -2.9807 -2.3525
16578TIP3   OH271224   2.676   1.427   6.124  0.5338  0.1662 -0.1355
16578TIP3    H171225   2.757   1.478   6.124  0.1807  0.7822 -1.7722
16578TIP3    H271226   2.630   1.456   6.203  1.6152  0.2489  0.4926
16579TIP3   OH271227   0.578   3.776  11.842 -0.0756  0.1018  0.4822
16579TIP3    H171228   0.645   3.748  11.779  0.2518  0.6585  0.5784
16579TIP3    H271229   0.620   3.766  11.927 -0.9184 -1.7912  0.7199
16580TIP3   OH271230   5.034   2.244   0.781 -0.5723 -0.3880 -0.3399
16580TIP3    H171231   5.002   2.300   0.710  1.5828 -0.3837 -1.3899
16580TIP3    H271232   5.052   2.160   0.740  0.0678 -0.5980  0.3497
16581TIP3   OH271233   3.433   6.656   4.002 -0.2438  0.6919 -0.4804
16581TIP3    H171234   3.511   6.622   4.045 -0.7411  1.4520  1.0820
16581TIP3    H271235   3.385   6.702   4.071 -1.9056  0.5401 -1.4758
16582TIP3   OH271236   5.077   0.690   2.376 -0.1045 -0.1893 -0.5506
16582TIP3    H171237   5.000   0.734   2.412 -0.4470 -0.9000 -0.3819
16582TIP3    H271238   5.144   0.701   2.443 -0.1762  0.0979 -0.5242
16583TIP3   OH271239   4.130   6.147  12.357  0.3819 -0.0109  0.8200
16583TIP3    H171240   4.079   6.188  12.427 -0.9915 -1.4706  0.7338
16583TIP3    H271241   4.150   6.219  12.297  0.0469  0.9458  1.8106
16584TIP3   OH271242   3.254   1.018  14.564  0.4330 -0.0836  0.4014
16584TIP3    H171243   3.177   0.969  14.536  1.0949 -1.3735  0.7633
16584TIP3    H271244   3.264   1.087  14.498  0.4342 -1.4352 -1.0644
16585TIP3   OH271245   0.837   0.572   6.529 -0.4005 -0.4092  0.8904
16585TIP3    H171246   0.766   0.507   6.524  0.0519 -0.9507  1.4474
16585TIP3    H271247   0.900   0.534   6.590  1.4954 -1.0568 -1.2969
16586TIP3   OH271248   6.753   1.051   5.257 -0.0054 -0.1417  0.3752
16586TIP3    H171249   6.674   1.016   5.297  0.2638  0.8396  1.8453
16586TIP3    H271250   6.730   1.064   5.166 -0.5997 -2.6112  0.0832
16587TIP3   OH271251   1.794   3.799  13.728 -0.3911 -0.2158  0.0457
16587TIP3    H171252   1.790   3.869  13.792  1.7894 -1.3077  1.5022
16587TIP3    H271253   1.803   3.843  13.644  0.6978  1.2607  0.8962
16588TIP3   OH271254   1.338   0.482   6.277 -0.4261  0.1615 -0.7673
16588TIP3    H171255   1.276   0.453   6.210 -0.3037 -0.1113 -0.7646
16588TIP3    H271256   1.320   0.425   6.352 -1.0891  0.9770 -0.2914
16589TIP3   OH271257   4.758   4.148  11.182  0.9130  0.5770  0.4940
16589TIP3    H171258   4.669   4.119  11.162  0.9250 -0.8597  2.2359
16589TIP3    H271259   4.768   4.134  11.276  2.4693  2.2326  0.6383
16590TIP3   OH271260   2.765   3.577   2.559 -0.4664  0.4957 -0.2278
16590TIP3    H171261   2.730   3.649   2.506 -1.7392 -0.2193 -0.3953
16590TIP3    H271262   2.703   3.505   2.545 -0.2766 -0.0274  1.4367
16591TIP3   OH271263   6.051   1.700   3.372  0.2022 -0.3013 -0.3100
16591TIP3    H171264   5.981   1.659   3.322 -0.8400  0.5642  0.3864
16591TIP3    H271265   6.097   1.627   3.414 -0.1951 -0.8884 -0.8886
16592TIP3   OH271266   0.935   4.335  16.641 -0.1005 -0.5508  0.5247
16592TIP3    H171267   0.954   4.283  16.719  0.7966 -1.2246 -0.1234
16592TIP3    H271268   0.953   4.276  16.568 -0.6841  0.1500 -0.2072
16593TIP3   OH271269   2.672   5.297   2.833 -0.3723  0.1835  0.1037
16593TIP3    H171270   2.682   5.329   2.923  0.3464  1.4899 -0.4066
16593TIP3    H271271   2.742   5.232   2.823 -1.0937 -0.7180  0.7883
16594TIP3   OH271272   5.011   5.316  13.191 -0.0088  0.4793  0.8462
16594TIP3    H171273   4.916   5.309  13.202  0.2249 -2.4210  1.8189
16594TIP3    H271274   5.027   5.280  13.104  0.3047 -0.7791  1.3996
16595TIP3   OH271275   1.562   1.918   4.534 -0.7988 -0.4770 -0.0725
16595TIP3    H171276   1.614   1.850   4.577 -0.7600  0.9609  2.3568
16595TIP3    H271277   1.600   2.000   4.567 -0.5137  0.8125 -3.2544
16596TIP3   OH271278   0.019   1.560  12.144  0.3452 -0.0913  0.1771
16596TIP3    H171279  -0.062   1.548  12.194 -0.0472  0.0354 -0.4169
16596TIP3    H271280   0.088   1.536  12.205 -0.2346 -2.0543  0.1244
16597TIP3   OH271281   6.075   1.490  16.537 -0.5388  0.6098  0.1448
16597TIP3    H171282   6.156   1.478  16.487 -0.7054 -0.1709  0.0461
16597TIP3    H271283   6.053   1.582  16.524  1.8168  1.6326  2.4649
16598TIP3   OH271284   1.363   6.644   5.552  0.1750 -0.3960 -0.5603
16598TIP3    H171285   1.281   6.693   5.548  1.2453  1.7217  1.1591
16598TIP3    H271286   1.418   6.685   5.484 -0.8904 -3.5681 -3.6549
16599TIP3   OH271287   6.459   1.590  15.716 -0.3454  0.1755  0.1516
16599TIP3    H171288   6.508   1.508  15.706  1.6765  1.2461  0.8102
16599TIP3    H271289   6.385   1.581  15.655 -0.6857 -2.4524  0.8157
16600TIP3   OH271290   3.491   5.014  14.919  0.5579  0.1426 -0.8038
16600TIP3    H171291   3.562   5.062  14.962 -0.1429  0.5525 -0.0896
16600TIP3    H271292   3.415   5.027  14.976  0.2014 -1.3059 -0.9084
16601TIP3   OH271293   2.288   0.147  14.161  0.2458 -0.1434  0.6274
16601TIP3    H171294   2.259   0.218  14.219  2.5798  1.5655 -0.1592
16601TIP3    H271295   2.305   0.190  14.078 -2.1920 -2.4115 -1.2135
16602TIP3   OH271296   6.359   0.760  13.858 -0.9340  0.2095 -0.3707
16602TIP3    H171297   6.420   0.821  13.898 -0.6528  1.4451 -2.5360
16602TIP3    H271298   6.396   0.674  13.875  0.8389  0.8801 -0.6829
16603TIP3   OH271299   2.801   5.344   3.700 -0.3883 -0.7523  0.0824
16603TIP3    H171300   2.813   5.249   3.704  0.3064 -0.9265 -3.2341
16603TIP3    H271301   2.713   5.355   3.665  0.3910 -0.3066 -1.8445
16604TIP3   OH271302   0.039   3.737   5.297  0.1188 -0.2571  0.5283
16604TIP3    H171303   0.057   3.827   5.323 -0.1687 -0.2931  0.8733
16604TIP3    H271304   0.050   3.686   5.378 -1.8317 -0.2303  0.8705
16605TIP3   OH271305   2.637   2.963   1.677 -0.2572  0.1833 -0.1904
16605TIP3    H171306   2.605   2.902   1.611  0.7104  0.1292 -0.6173
16605TIP3    H271307   2.719   2.996   1.642 -0.8665  1.9268 -0.0902
16606TIP3   OH271308   2.436   1.456   1.943 -0.6240 -0.6222 -0.0832
16606TIP3    H171309   2.446   1.551   1.935  0.5227 -0.7313 -0.2023
16606TIP3    H271310   2.407   1.427   1.857  1.4791 -0.6325 -0.8503
16607TIP3   OH271311   2.748   0.324  16.915 -0.5661  0.2162 -0.5384
16607TIP3    H171312   2.675   0.372  16.953 -1.2744 -2.3330  1.5824
16607TIP3    H271313   2.743   0.237  16.954  2.6886 -0.5573 -1.5234
16608TIP3   OH271314   4.545   4.079   3.530  0.2745 -0.0439  0.1209
16608TIP3    H171315   4.521   4.145   3.464  0.3507 -1.1660 -1.0749
16608TIP3    H271316   4.601   4.126   3.591  0.4604  0.9743 -0.7914
16609TIP3   OH271317   3.796   1.215  16.346 -0.3615  0.4548 -0.0644
16609TIP3    H171318   3.748   1.290  16.308  0.6737  1.1225 -0.1020
16609TIP3    H271319   3.761   1.139  16.300  0.4285  1.1802 -1.9928
16610TIP3   OH271320   3.357   4.738   3.504  0.0796  0.4053  0.4224
16610TIP3    H171321   3.295   4.722   3.433 -2.0914  1.5919  1.9135
16610TIP3    H271322   3.405   4.816   3.476 -0.5820  0.7180  0.1335
16611TIP3   OH271323   4.107   0.628   2.009  0.2628  0.3079 -0.1893
16611TIP3    H171324   4.198   0.608   1.989  0.6692  1.7455  0.1612
16611TIP3    H271325   4.104   0.723   2.019 -1.2276  0.2619  0.0392
16612TIP3   OH271326   6.045   0.243   2.114  0.0153  0.5347 -0.1319
16612TIP3    H171327   6.053   0.244   2.019  0.7105 -0.0666 -0.0910
16612TIP3    H271328   6.091   0.164   2.141 -2.9387 -1.1591  0.4648
16613TIP3   OH271329   4.399   3.638  14.612  0.4812  0.1915 -0.1455
16613TIP3    H171330   4.337   3.640  14.539  0.3789  1.0065 -0.0484
16613TIP3    H271331   4.365   3.570  14.671 -0.0474  0.2927 -0.3271
16614TIP3   OH271332   0.264   5.871  11.266 -0.5364  0.5227 -0.2573
16614TIP3    H171333   0.219   5.954  11.252 -3.4660 -0.8724  0.0892
16614TIP3    H271334   0.235   5.816  11.193  0.8712 -0.4087 -0.1530
16615TIP3   OH271335   5.207   0.620   0.687 -0.3625  0.1459  0.0130
16615TIP3    H171336   5.222   0.620   0.593  0.9481 -0.0545  0.2020
16615TIP3    H271337   5.277   0.674   0.723  0.0733 -0.9984  0.9781
16616TIP3   OH271338   3.541   4.658   4.982  0.0059  0.2901 -0.1480
16616TIP3    H171339   3.483   4.630   4.911 -0.2859  2.6356 -0.9038
16616TIP3    H271340   3.629   4.637   4.951 -0.0804  1.7858 -1.4825
16617TIP3   OH271341   5.567   3.532  13.289 -0.3783 -0.2645  0.0274
16617TIP3    H171342   5.529   3.500  13.370  0.7378 -1.8621 -0.0343
16617TIP3    H271343   5.646   3.578  13.316  1.1867 -2.6218 -0.1829
16618TIP3   OH271344   0.283   1.508  14.257 -0.3736 -0.1911  0.5438
16618TIP3    H171345   0.191   1.532  14.267 -0.1771  0.8614 -0.0786
16618TIP3    H271346   0.284   1.445  14.185 -0.5605  0.1390  0.2498
16619TIP3   OH271347   5.798   6.554  15.686  0.6981 -0.0566  0.0850
16619TIP3    H171348   5.852   6.558  15.765  1.3848  0.9152 -0.4149
16619TIP3    H271349   5.712   6.528  15.717  1.0884 -0.2130  1.0807
16620TIP3   OH271350   6.727   1.642   2.033  0.4860  0.1826 -0.3924
16620TIP3    H171351   6.754   1.573   1.972 -0.4060 -1.0968  0.6018
16620TIP3    H271352   6.720   1.597   2.117  1.0472  1.7605  0.5376
16621TIP3   OH271353   2.945   5.491   1.821 -0.3648  0.4389 -0.1039
16621TIP3    H171354   2.923   5.518   1.732  0.0240 -0.7430 -0.5798
16621TIP3    H271355   2.862   5.464   1.859 -0.6211  1.4598  0.0939
16622TIP3   OH271356   5.994   6.817  11.254 -0.3994 -0.7060  0.8906
16622TIP3    H171357   5.941   6.897  11.254  0.8455  0.1594  1.6021
16622TIP3    H271358   5.930   6.746  11.262 -1.4956  0.2440  0.8753
16623TIP3   OH271359   6.008   1.902  14.321 -0.9295  0.0510  0.3458
16623TIP3    H171360   6.017   1.991  14.356 -2.2884  0.6360 -0.6562
16623TIP3    H271361   6.024   1.845  14.395  1.2439  1.0755  0.7433
16624TIP3   OH271362   0.201   1.161   5.402  0.1398  0.1649  0.5865
16624TIP3    H171363   0.109   1.141   5.387  0.1712  0.4211  0.0338
16624TIP3    H271364   0.248   1.102   5.344  0.4790 -2.1098  2.9892
16625TIP3   OH271365   5.002   1.726   0.288 -0.2809  0.2603  0.1822
16625TIP3    H171366   4.976   1.803   0.338 -1.9505  0.3495 -0.7568
16625TIP3    H271367   4.933   1.661   0.306  0.8008 -0.8431  0.5282
16626TIP3   OH271368   0.784   0.230  11.040 -0.1128  0.1876 -0.6378
16626TIP3    H171369   0.792   0.211  10.946 -1.8225  0.4169 -0.8579
16626TIP3    H271370   0.745   0.317  11.043  0.3556  0.3758  0.3103
16627TIP3   OH271371   4.941   1.333  14.254 -0.1538 -0.0140  0.8351
16627TIP3    H171372   5.007   1.382  14.205 -0.6002 -1.5865 -1.4890
16627TIP3    H271373   4.984   1.312  14.337  0.8760  2.1639  0.9446
16628TIP3   OH271374   1.302   2.299   3.198  0.0348 -0.0410  0.2010
16628TIP3    H171375   1.366   2.275   3.265  0.5361  0.5391 -0.0698
16628TIP3    H271376   1.218   2.301   3.245  0.5358  1.4396  1.0669
16629TIP3   OH271377   5.327   0.104  16.073  0.1428 -0.6682  0.8400
16629TIP3    H171378   5.378   0.023  16.080  0.1155 -0.8397 -0.6276
16629TIP3    H271379   5.393   0.173  16.061  0.1487 -0.5236  1.6947
16630TIP3   OH271380   2.405   0.471   3.194  0.1266  0.6086 -0.1289
16630TIP3    H171381   2.471   0.442   3.258 -0.2115  1.5967  0.6881
16630TIP3    H271382   2.326   0.423   3.219 -0.0486  1.1182  0.3023
16631TIP3   OH271383   2.375   6.002   5.017  0.0950  0.3295 -0.0504
16631TIP3    H171384   2.373   6.098   5.027 -2.2209  0.1087  2.6650
16631TIP3    H271385   2.463   5.977   5.043  0.6578  1.6660 -0.5591
16632TIP3   OH271386   6.649   2.798   3.449  0.0353  0.4951 -0.4935
16632TIP3    H171387   6.691   2.863   3.504  0.3061  0.6787 -0.9088
16632TIP3    H271388   6.630   2.845   3.367 -0.6627  0.3243 -0.4420
16633TIP3   OH271389   5.777   2.566   1.193  0.3180 -0.3532  0.1110
16633TIP3    H171390   5.713   2.516   1.244  1.0756 -0.3072  1.1385
16633TIP3    H271391   5.755   2.657   1.210  0.0073 -0.3342 -0.3810
16634TIP3   OH271392   1.594   3.422  17.012 -0.0877 -1.0484 -0.1999
16634TIP3    H171393   1.638   3.396  16.930 -0.8252 -0.4295 -0.8079
16634TIP3    H271394   1.626   3.359  17.077 -1.1742 -2.9503 -1.4241
16635TIP3   OH271395   0.129   0.955  12.142  0.7110  0.3393  0.3497
16635TIP3    H171396   0.121   0.968  12.048 -0.0672 -1.3280  0.1373
16635TIP3    H271397   0.070   1.020  12.180  1.6892  1.6098 -0.2402
16636TIP3   OH271398   0.575   1.376   2.006  0.4797 -0.1491  0.5920
16636TIP3    H171399   0.542   1.350   2.092 -0.3483 -1.1494  0.0057
16636TIP3    H271400   0.638   1.308   1.983  0.7061  0.1174  0.4138
16637TIP3   OH271401   2.584   2.221  17.162  0.0442  0.3268  0.4709
16637TIP3    H171402   2.510   2.225  17.102 -0.2362 -0.6636  0.7337
16637TIP3    H271403   2.586   2.131  17.193  0.4217  0.7110  1.6500
16638TIP3   OH271404   4.922   5.141   1.248 -0.5638 -0.4607  0.1317
16638TIP3    H171405   4.945   5.070   1.307 -1.7894 -1.7160 -0.8447
16638TIP3    H271406   4.991   5.207   1.261 -1.2668 -0.2092  3.6691
16639TIP3   OH271407   6.007   0.026  13.151 -0.0146  0.1725  0.0027
16639TIP3    H171408   6.070  -0.029  13.104 -1.2129 -0.9395 -0.3631
16639TIP3    H271409   5.960   0.073  13.083 -0.1688  0.3332  0.2189
16640TIP3   OH271410   6.722   3.470   1.140 -0.4057  0.7058  0.1021
16640TIP3    H171411   6.643   3.415   1.137 -0.8805  1.4231 -1.1917
16640TIP3    H271412   6.776   3.436   1.069  0.2558  0.5275  0.6841
16641TIP3   OH271413   2.577   4.965  14.540 -0.1845 -0.1902 -0.3149
16641TIP3    H171414   2.630   4.937  14.465  0.0116 -0.3277 -0.1239
16641TIP3    H271415   2.568   5.060  14.528  0.3818 -0.1147 -0.1693
16642TIP3   OH271416   6.571   2.880  15.752  0.0603 -0.2957 -0.0749
16642TIP3    H171417   6.532   2.826  15.684  2.0905 -0.6834 -1.0087
16642TIP3    H271418   6.543   2.969  15.731  1.5837 -0.2443 -2.1832
16643TIP3   OH271419   2.635   4.157   0.904  0.3138 -0.0648 -0.2280
16643TIP3    H171420   2.624   4.251   0.920  0.6693  0.0494 -0.6460
16643TIP3    H271421   2.724   4.138   0.933  0.4317 -0.1614 -0.6498
16644TIP3   OH271422   1.864   3.485   0.446  0.6275  0.0896  0.2266
16644TIP3    H171423   1.807   3.438   0.507 -1.3209  2.0308  0.0348
16644TIP3    H271424   1.832   3.461   0.359  2.6100 -1.7072 -0.0979
16645TIP3   OH271425   1.148   1.499  14.338  0.4262  1.0958  0.2025
16645TIP3    H171426   1.128   1.543  14.421 -2.5808  1.0556 -0.3837
16645TIP3    H271427   1.108   1.412  14.348 -1.2936  1.5861 -1.7346
16646TIP3   OH271428   4.952   1.140   0.611 -0.0928  0.5481  0.3592
16646TIP3    H171429   4.910   1.198   0.675  2.3075  1.0724  1.5899
16646TIP3    H271430   4.936   1.052   0.645 -0.0703  0.7467  0.9011
16647TIP3   OH271431   1.013   0.346  14.024 -0.1894  1.0172  0.0512
16647TIP3    H171432   1.067   0.425  14.012  0.3474  0.4669 -1.3535
16647TIP3    H271433   1.062   0.294  14.088  0.8651  0.6452 -1.0087
16648TIP3   OH271434   2.120   1.187  14.612  0.2120 -0.1711  0.1357
16648TIP3    H171435   2.155   1.220  14.530 -1.1749  1.1179  0.0147
16648TIP3    H271436   2.155   1.099  14.620  0.4727 -0.2748 -1.7836
16649TIP3   OH271437   4.108   1.468   3.279  0.5082  0.1459  0.1229
16649TIP3    H171438   4.144   1.522   3.349  1.6327  2.9771 -2.3947
16649TIP3    H271439   4.036   1.520   3.243  0.8652 -0.5215 -1.6923
16650TIP3   OH271440   5.430   5.320  13.808  0.1243  0.3599  0.2044
16650TIP3    H171441   5.478   5.326  13.726 -1.4565 -1.9418 -0.9623
16650TIP3    H271442   5.346   5.362  13.790 -0.1793 -0.0299  0.7034
16651TIP3   OH271443   3.503   2.745  16.824 -0.2558 -0.1731 -0.5666
16651TIP3    H171444   3.509   2.798  16.745 -0.0737 -1.2780 -1.3279
16651TIP3    H271445   3.486   2.656  16.792 -0.3551 -0.6173  0.6467
16652TIP3   OH271446   0.587   5.836   4.909 -0.0928 -0.6192  0.0433
16652TIP3    H171447   0.562   5.918   4.951  0.9201 -0.5722  0.5797
16652TIP3    H271448   0.507   5.784   4.908 -0.9472  0.6579 -1.0199
16653TIP3   OH271449   2.644   3.688  12.950  0.2124 -0.0771  0.1482
16653TIP3    H171450   2.581   3.648  12.889  1.2790 -1.1893 -0.2588
16653TIP3    H271451   2.615   3.779  12.958 -0.9054 -0.3327 -0.7462
16654TIP3   OH271452   1.975   5.222  16.469 -0.1186  0.0735  0.1718
16654TIP3    H171453   1.953   5.289  16.403  0.0565 -0.8258 -0.8250
16654TIP3    H271454   1.909   5.233  16.537 -0.9107  0.3778 -0.6296
16655TIP3   OH271455   4.056   6.734  11.685  0.1173  0.6982  0.3508
16655TIP3    H171456   4.031   6.646  11.658  2.7673  0.0907 -0.3716
16655TIP3    H271457   3.996   6.755  11.757 -1.4251 -1.1290 -0.3155
16656TIP3   OH271458   5.345   4.483  12.992  0.4597  0.3037  0.1296
16656TIP3    H171459   5.340   4.578  12.983 -1.7402  0.2368  0.0816
16656TIP3    H271460   5.255   4.456  13.010  1.2454 -1.6488  1.5125
16657TIP3   OH271461   5.070   0.316  13.113 -0.4093  0.3587  0.6599
16657TIP3    H171462   5.156   0.306  13.153  0.7954 -0.2925 -1.9082
16657TIP3    H271463   5.060   0.410  13.100  0.9346  0.3244 -0.9737
16658TIP3   OH271464   0.070   1.248  13.020 -0.0564  0.0908  0.5495
16658TIP3    H171465   0.078   1.179  13.085 -0.0237 -3.1190 -2.5850
16658TIP3    H271466   0.159   1.263  12.989 -0.2214  0.6811  0.3356
16659TIP3   OH271467   6.197   3.537  15.865  0.0550 -0.0193 -0.5992
16659TIP3    H171468   6.173   3.518  15.774 -0.4980  1.3777 -0.7709
16659TIP3    H271469   6.235   3.624  15.861  1.0903 -0.4167  0.3577
16660TIP3   OH271470   1.349   1.535  17.188  0.5210 -0.2880  0.4506
16660TIP3    H171471   1.262   1.504  17.161  0.7065 -0.6118  0.2273
16660TIP3    H271472   1.357   1.620  17.145  0.0712  0.0181  0.9541
16661TIP3   OH271473   2.747   5.788  12.120 -0.2705  0.4337  0.1155
16661TIP3    H171474   2.655   5.808  12.110  0.0224  1.4189 -0.6879
16661TIP3    H271475   2.789   5.823  12.041  0.5773 -1.4237 -0.3090
16662TIP3   OH271476   4.758   3.142  15.333 -0.0729  0.3232  0.0810
16662TIP3    H171477   4.746   3.216  15.394  2.1101  0.9017 -0.0938
16662TIP3    H271478   4.786   3.183  15.251 -0.5251 -0.6174 -0.5624
16663TIP3   OH271479   2.258   1.307  10.875  0.3137  0.0636 -0.7262
16663TIP3    H171480   2.179   1.285  10.924  0.9799  2.0781  1.4283
16663TIP3    H271481   2.228   1.364  10.804 -0.2100  0.6507 -0.0470
16664TIP3   OH271482   2.929   0.653  14.250  0.3228 -0.0790 -0.0168
16664TIP3    H171483   2.842   0.674  14.282  0.3971  0.3270 -0.0738
16664TIP3    H271484   2.958   0.579  14.304  0.0824  0.0050  0.2247
16665TIP3   OH271485   3.908   1.774   2.451  0.3351  0.3023 -0.2784
16665TIP3    H171486   3.902   1.838   2.522  0.4439  0.2043 -0.1807
16665TIP3    H271487   3.828   1.722   2.459 -0.4525  1.2896 -1.2043
16666TIP3   OH271488   2.766   6.157   1.344  0.1453 -0.3436  0.2145
16666TIP3    H171489   2.707   6.227   1.316  1.4476  1.1547  1.0672
16666TIP3    H271490   2.812   6.193   1.420  0.2371 -2.4726  1.2368
16667TIP3   OH271491   4.873   3.754  11.572  0.1168 -0.3475 -0.3712
16667TIP3    H171492   4.833   3.817  11.632  1.2680  0.1961 -0.1575
16667TIP3    H271493   4.858   3.669  11.613  1.0277  0.0283  0.7886
16668TIP3   OH271494   2.517   2.443   1.507 -0.6007 -0.0666  0.9241
16668TIP3    H171495   2.529   2.348   1.507  0.5643  0.0607  0.6829
16668TIP3    H271496   2.551   2.471   1.422  0.1969  0.6842  1.4760
16669TIP3   OH271497   2.703   6.532  11.415  0.0001 -0.6741  0.1344
16669TIP3    H171498   2.701   6.622  11.447  1.3633 -0.5186 -0.1717
16669TIP3    H271499   2.795   6.516  11.394 -0.0649 -2.4372  1.0068
16670TIP3   OH271500   3.115   3.325   0.665 -0.2527 -0.1098  0.6792
16670TIP3    H171501   3.029   3.368   0.666  0.4804  1.3999  1.1516
16670TIP3    H271502   3.141   3.326   0.572 -0.4806 -0.0080  0.6153
16671TIP3   OH271503   1.272   2.738   1.018  0.2427  0.3316 -0.3944
16671TIP3    H171504   1.272   2.829   0.991 -3.6982  0.7582  0.4535
16671TIP3    H271505   1.212   2.694   0.957  0.1477 -1.1238  0.6681
16672TIP3   OH271506   0.697   6.128   1.463  0.0363  0.2878 -0.6383
16672TIP3    H171507   0.790   6.143   1.473  0.0125  0.4864 -0.7240
16672TIP3    H271508   0.690   6.037   1.434  0.1767  0.1201 -0.1530
16673TIP3   OH271509   3.932   6.445   3.906  0.0759  0.2108  0.3053
16673TIP3    H171510   3.904   6.382   3.973  0.0285 -1.3376 -1.1260
16673TIP3    H271511   3.898   6.410   3.824  0.7251  1.7135 -0.6454
16674TIP3   OH271512   6.423   3.813   3.084 -0.2167 -0.5184  0.4314
16674TIP3    H171513   6.426   3.770   2.999 -2.3693  1.4585 -0.7734
16674TIP3    H271514   6.499   3.871   3.084  0.5780 -1.5354  0.4820
16675TIP3   OH271515   4.260   3.371  11.577  0.1507  0.0226 -0.5131
16675TIP3    H171516   4.245   3.460  11.608 -0.4845 -0.9896  2.3354
16675TIP3    H271517   4.195   3.318  11.622  2.5092 -2.3500  0.3735
16676TIP3   OH271518   5.721   1.735  13.695  0.6915 -0.5850 -0.7378
16676TIP3    H171519   5.753   1.736  13.605  0.9884 -0.5900 -0.6316
16676TIP3    H271520   5.637   1.689  13.690 -0.7296  1.9200 -1.4796
16677TIP3   OH271521   1.950   3.798   5.277 -0.2283 -0.2817 -0.0860
16677TIP3    H171522   1.858   3.817   5.291 -0.2606 -0.8338  0.5033
16677TIP3    H271523   1.950   3.725   5.215 -0.1754 -0.0720 -0.3351
16678TIP3   OH271524   0.624   1.708  12.882 -0.1682  0.1870 -0.2053
16678TIP3    H171525   0.669   1.789  12.906 -1.8134  1.2437 -0.5441
16678TIP3    H271526   0.642   1.648  12.955 -0.8020  1.6334  1.2148
16679TIP3   OH271527   0.693   3.223  13.463  0.7744  0.2863 -0.4713
16679TIP3    H171528   0.624   3.158  13.449  1.5062 -0.1937 -1.9561
16679TIP3    H271529   0.648   3.295  13.508 -0.7995  0.1437 -1.7177
16680TIP3   OH271530   0.349   4.573  13.521  0.2859  0.5269 -0.2207
16680TIP3    H171531   0.443   4.557  13.509  0.8235 -0.0644  3.5793
16680TIP3    H271532   0.311   4.486  13.529  0.3767  0.6829  3.3496
16681TIP3   OH271533   0.513   3.484   4.761  0.0910 -0.1215 -0.1692
16681TIP3    H171534   0.447   3.472   4.693 -0.4157  0.1060  0.2804
16681TIP3    H271535   0.504   3.576   4.788 -1.0397 -0.7047  1.5663
16682TIP3   OH271536   1.343   1.119   5.242  0.1563  0.8596  0.4028
16682TIP3    H171537   1.399   1.157   5.310  0.7325 -2.1592  1.8276
16682TIP3    H271538   1.402   1.098   5.170  0.7387 -1.1356  1.3832
16683TIP3   OH271539   6.727   4.330   3.959 -0.5547 -0.5206  0.5703
16683TIP3    H171540   6.681   4.262   3.911 -0.9176  0.2853 -0.2467
16683TIP3    H271541   6.763   4.387   3.892  1.2522 -0.8537  1.1911
16684TIP3   OH271542   0.399   1.588  11.400  0.6851 -0.0722 -0.9350
16684TIP3    H171543   0.421   1.681  11.400  0.3422  0.0285  0.1938
16684TIP3    H271544   0.304   1.586  11.389 -0.0192  0.0089  3.1954
16685TIP3   OH271545   4.178   6.002   0.381  0.1802 -0.0675  0.1096
16685TIP3    H171546   4.183   6.088   0.423 -0.1784  0.1557 -0.2975
16685TIP3    H271547   4.149   6.021   0.292  3.0398 -0.3112 -0.9857
16686TIP3   OH271548   0.023   2.845   0.996 -0.8707 -0.1195 -0.1609
16686TIP3    H171549  -0.002   2.808   1.081  0.0847 -1.3471 -0.3934
16686TIP3    H271550   0.054   2.770   0.945  0.0395  0.8329 -1.0548
16687TIP3   OH271551   4.469   5.812  12.485  0.1193  0.3487 -0.0252
16687TIP3    H171552   4.392   5.774  12.442  1.0464 -0.1646 -1.2732
16687TIP3    H271553   4.524   5.843  12.414  1.3007  0.2730  0.8222
16688TIP3   OH271554   0.035   2.488   2.296 -0.5172 -0.5304  0.5304
16688TIP3    H171555   0.009   2.579   2.309  0.0990 -0.7476  4.5789
16688TIP3    H271556   0.020   2.471   2.203  0.0222  3.8509 -0.5361
16689TIP3   OH271557   1.381   1.526   4.556  0.8279  0.0826  0.0385
16689TIP3    H171558   1.326   1.535   4.478 -0.3407 -0.8201  0.7112
16689TIP3    H271559   1.378   1.432   4.576  3.3149 -0.1384 -0.3487
16690TIP3   OH271560   1.218   2.703   6.711  0.1006  0.0383  0.0299
16690TIP3    H171561   1.295   2.647   6.703 -0.5282 -0.9943  0.8831
16690TIP3    H271562   1.244   2.770   6.774  0.6831  0.4042 -0.5882
16691TIP3   OH271563   0.437   3.060  14.475  0.9622 -0.6263 -0.3372
16691TIP3    H171564   0.469   2.970  14.485  0.6303 -0.8123 -0.8528
16691TIP3    H271565   0.403   3.083  14.561 -1.0161 -1.8261 -0.7208
16692TIP3   OH271566   3.241   6.386  11.115 -0.3351  0.0295 -0.1559
16692TIP3    H171567   3.272   6.474  11.092  1.2231 -0.0355  1.4603
16692TIP3    H271568   3.303   6.327  11.072 -1.4797 -0.3457 -1.3848
16693TIP3   OH271569   0.059   6.393  14.045  0.8160 -0.1113 -1.0288
16693TIP3    H171570   0.026   6.463  13.989 -2.6472 -0.3620  0.4366
16693TIP3    H271571   0.058   6.315  13.989 -0.1075  0.1169 -1.3406
16694TIP3   OH271572   4.090   3.278  14.762 -0.4279  0.0462 -0.1474
16694TIP3    H171573   4.002   3.313  14.753  0.2619  1.6003 -1.3147
16694TIP3    H271574   4.084   3.188  14.728 -1.7275 -0.2062  0.6870
16695TIP3   OH271575   4.275   4.800   5.697 -0.0686 -0.5244 -0.0683
16695TIP3    H171576   4.227   4.789   5.779 -0.2659  0.6752 -0.0039
16695TIP3    H271577   4.215   4.766   5.629 -1.1148  1.1079 -0.0085
16696TIP3   OH271578   3.749   2.833  16.104  0.2599 -0.5518 -0.4044
16696TIP3    H171579   3.789   2.912  16.066 -2.4546  1.7169  1.0219
16696TIP3    H271580   3.819   2.793  16.154  1.9467  0.5076 -1.7594
16697TIP3   OH271581   3.174   3.480  11.384  0.8460 -0.1545  0.6280
16697TIP3    H171582   3.180   3.404  11.442 -3.7570 -1.8225 -0.6591
16697TIP3    H271583   3.118   3.542  11.430 -0.0283 -0.0040 -0.5913
16698TIP3   OH271584   5.783   4.571   2.506  0.0160  0.1081  0.2506
16698TIP3    H171585   5.720   4.499   2.502  1.1416 -0.8485 -1.7428
16698TIP3    H271586   5.822   4.574   2.418  3.4525 -0.0021  1.6076
16699TIP3   OH271587   0.158   2.970   6.583 -0.0068 -0.3306  0.4324
16699TIP3    H171588   0.065   2.959   6.564  0.2499 -0.1668 -0.9929
16699TIP3    H271589   0.178   2.901   6.646 -1.8917  1.8478  3.7468
16700TIP3   OH271590   1.828   4.041   2.571  0.0821  0.5380 -0.7932
16700TIP3    H171591   1.877   3.994   2.504  2.3850  0.1446  1.0518
16700TIP3    H271592   1.882   4.117   2.592 -0.3092  0.3834  0.9579
16701TIP3   OH271593   4.532   2.660  15.886 -0.1802  0.2647  0.1351
16701TIP3    H171594   4.481   2.739  15.904  1.0357  1.5109 -1.5080
16701TIP3    H271595   4.526   2.649  15.791  3.3293  1.1253 -0.3471
16702TIP3   OH271596   0.696   1.315  16.495  0.0149  0.1535  0.3721
16702TIP3    H171597   0.676   1.221  16.491  0.4491  0.0728  0.0491
16702TIP3    H271598   0.717   1.339  16.404 -1.0464  0.7772  0.2697
16703TIP3   OH271599   3.087   1.277   1.670 -0.3153 -0.3351  1.4867
16703TIP3    H171600   3.159   1.308   1.724  0.5181  1.8395 -0.6544
16703TIP3    H271601   3.021   1.346   1.678 -0.3653 -0.2088  0.1654
16704TIP3   OH271602   4.599   3.807  12.601  0.6014 -0.0598 -0.0713
16704TIP3    H171603   4.546   3.755  12.541  0.1891  0.3825 -0.0965
16704TIP3    H271604   4.545   3.883  12.621 -0.1008 -1.1043  2.4112
16705TIP3   OH271605   2.450   6.756  16.009  0.2188  0.0225  0.0376
16705TIP3    H171606   2.355   6.768  16.009  0.2661  0.4092  0.5369
16705TIP3    H271607   2.473   6.748  15.916 -0.4505 -1.3287 -0.0442
16706TIP3   OH271608   1.512   4.200  16.907 -0.7427  0.1442  0.2465
16706TIP3    H171609   1.542   4.257  16.979 -0.7704  0.2000  0.2131
16706TIP3    H271610   1.567   4.122  16.915  0.7228  1.0044 -0.9521
16707TIP3   OH271611   4.479   4.517  11.266  0.3780 -0.1291 -0.0705
16707TIP3    H171612   4.556   4.564  11.300 -0.1645 -1.4438  3.4052
16707TIP3    H271613   4.509   4.478  11.184  3.8280 -1.3714  1.5789
16708TIP3   OH271614   6.417   1.223   2.656  0.0796  0.0450 -0.0402
16708TIP3    H171615   6.459   1.163   2.718 -0.4883  0.6156  0.9289
16708TIP3    H271616   6.370   1.285   2.712  0.6182  1.3750 -1.0146
16709TIP3   OH271617   0.823   4.595   1.892  0.1633  0.5067 -1.2920
16709TIP3    H171618   0.788   4.603   1.804 -1.3288  0.9871 -0.6803
16709TIP3    H271619   0.817   4.683   1.928 -0.1054  0.1299 -0.3960
16710TIP3   OH271620   3.794   0.520   2.776  0.0553 -0.0978 -0.4370
16710TIP3    H171621   3.762   0.544   2.689  1.5259 -0.1581 -1.0198
16710TIP3    H271622   3.718   0.483   2.820 -0.5426 -0.7586 -1.9595
16711TIP3   OH271623   5.447   1.894  12.155  0.4640  0.0965 -0.6359
16711TIP3    H171624   5.430   1.846  12.237  1.8914 -1.9060 -1.4158
16711TIP3    H271625   5.363   1.894  12.109 -0.0568  0.1482  0.2918
16712TIP3   OH271626   3.930   5.910  14.770 -0.1764  0.0842  0.7778
16712TIP3    H171627   3.937   6.002  14.797  1.3192  0.2283 -0.0278
16712TIP3    H271628   3.908   5.915  14.677  1.1693 -0.3600  0.4284
16713TIP3   OH271629   6.463   0.683   0.661 -0.2998  0.1009  0.4542
16713TIP3    H171630   6.408   0.610   0.632 -0.4041 -0.6315  2.3304
16713TIP3    H271631   6.474   0.738   0.584 -1.8148 -0.9062 -0.5187
16714TIP3   OH271632   6.006   5.679  16.194 -0.5579 -0.1398 -0.5584
16714TIP3    H171633   5.980   5.605  16.250  0.4526  0.2028  0.4023
16714TIP3    H271634   6.097   5.695  16.217 -0.4702  0.7727 -1.4845
16715TIP3   OH271635   4.514   6.220  15.084 -0.1261  0.1173 -0.2145
16715TIP3    H171636   4.564   6.180  15.014  0.3334  2.2805 -1.2171
16715TIP3    H271637   4.426   6.232  15.047 -0.6173 -1.0549  0.5206
16716TIP3   OH271638   5.953   3.856   4.342 -0.1661  0.1867  0.1012
16716TIP3    H171639   6.018   3.884   4.278  1.8915  0.0842  2.0124
16716TIP3    H271640   5.969   3.762   4.354  0.3556  0.4344  1.6153
16717TIP3   OH271641   5.853   5.070   3.395 -0.3139  0.1024 -0.1123
16717TIP3    H171642   5.820   5.136   3.456 -1.2820  1.5564 -2.0737
16717TIP3    H271643   5.940   5.047   3.428 -0.1108  2.0840  0.8520
16718TIP3   OH271644   6.805   1.340  14.518 -0.3848 -0.1113  0.3458
16718TIP3    H171645   6.849   1.330  14.602 -1.0294  0.3132  0.7418
16718TIP3    H271646   6.874   1.325  14.453  0.5556  1.4061  0.9419
16719TIP3   OH271647   4.246   6.765  15.501 -0.0681  0.2875  0.4156
16719TIP3    H171648   4.235   6.680  15.543  0.1785  0.0008 -0.0983
16719TIP3    H271649   4.207   6.827  15.563  0.6141 -0.0884  1.2307
16720TIP3   OH271650   5.526   4.886   2.660  0.7955 -0.0401  0.1687
16720TIP3    H171651   5.468   4.841   2.722  0.1245  0.5577 -0.0181
16720TIP3    H271652   5.487   4.972   2.649  2.4728  0.9057  1.1267
16721TIP3   OH271653   3.284   1.097   1.205  0.3553 -0.3069 -0.2061
16721TIP3    H171654   3.285   1.169   1.268  1.0303  0.9598 -1.6003
16721TIP3    H271655   3.297   1.019   1.258  0.5382  0.6702  1.2596
16722TIP3   OH271656   0.854   6.319  13.967  0.0777  0.1205  0.0531
16722TIP3    H171657   0.826   6.336  14.056  0.9278  0.4179  0.2763
16722TIP3    H271658   0.917   6.248  13.975 -0.4365 -0.3927 -0.4064
16723TIP3   OH271659   6.718   2.064  15.437 -0.2274  0.2176 -0.5376
16723TIP3    H171660   6.775   2.055  15.513 -1.5441 -0.8782  0.3782
16723TIP3    H271661   6.721   1.978  15.394 -0.4697  0.4354 -1.0008
16724TIP3   OH271662   4.674   4.686  12.454  0.2675  0.1540  0.0851
16724TIP3    H171663   4.680   4.771  12.411  0.3737 -0.0272 -0.2579
16724TIP3    H271664   4.668   4.623  12.383  2.2321 -0.3030  0.2538
16725TIP3   OH271665   6.157   1.821   0.983  0.1761  0.2409 -0.3183
16725TIP3    H171666   6.136   1.781   1.068 -3.4594  0.5076 -0.9046
16725TIP3    H271667   6.196   1.750   0.932 -1.9203 -1.3535  0.1499
16726TIP3   OH271668   3.743   0.982  14.717 -0.3537 -0.0698 -0.1113
16726TIP3    H171669   3.796   0.923  14.664  0.1945  0.8361 -0.5949
16726TIP3    H271670   3.799   1.006  14.791  0.1358  1.2840 -0.8855
16727TIP3   OH271671   0.970   4.094  10.373 -0.0781 -1.0996  0.0093
16727TIP3    H171672   1.031   4.059  10.438 -0.8574 -1.0062  0.8132
16727TIP3    H271673   0.906   4.025  10.360 -2.0317  0.1616  2.1258
16728TIP3   OH271674   5.758   0.199   3.191  0.1593  0.4713 -0.4890
16728TIP3    H171675   5.685   0.145   3.163  0.5166 -0.5515  0.4445
16728TIP3    H271676   5.745   0.208   3.286 -0.1046  2.3820 -0.6705
16729TIP3   OH271677   4.115   0.036  12.922  0.2916 -0.2903 -0.1213
16729TIP3    H171678   4.114   0.120  12.876  0.5468  0.0569  0.4827
16729TIP3    H271679   4.151   0.057  13.009 -1.6839 -0.6016  0.8295
16730TIP3   OH271680   2.224   2.754   3.343  0.3615  0.7692 -0.4801
16730TIP3    H171681   2.183   2.689   3.400  0.9552 -0.6550 -1.5945
16730TIP3    H271682   2.166   2.758   3.266  1.3334  0.0382 -1.2867
16731TIP3   OH271683   0.253   0.665  14.989  0.1499 -0.4480  0.1521
16731TIP3    H171684   0.323   0.728  14.973 -0.0950  0.4492  2.2738
16731TIP3    H271685   0.189   0.683  14.920  1.1994 -0.1305 -0.7851
16732TIP3   OH271686   1.889   1.980   2.202 -0.0819  0.5402 -0.1828
16732TIP3    H171687   1.883   2.074   2.218  0.9944  0.8147 -1.2659
16732TIP3    H271688   1.841   1.965   2.121  0.1126  0.2229 -0.2449
16733TIP3   OH271689   0.529   4.683   4.970 -0.1242 -0.3310 -0.3323
16733TIP3    H171690   0.588   4.728   4.910 -0.1841  0.8670  0.4702
16733TIP3    H271691   0.577   4.604   4.997  2.6495  2.1350  2.8215
16734TIP3   OH271692   5.520   3.281   4.794 -0.4300  0.1984 -0.2993
16734TIP3    H171693   5.547   3.345   4.728 -0.1302 -0.6729 -1.0452
16734TIP3    H271694   5.445   3.321   4.838 -0.1400  1.1249 -0.6325
16735TIP3   OH271695   1.416   0.737   6.235 -0.4174 -0.3065  0.5893
16735TIP3    H171696   1.449   0.755   6.147 -0.2175  1.4643  0.9891
16735TIP3    H271697   1.417   0.641   6.242  1.8793 -0.4105 -0.4432
16736TIP3   OH271698   1.353   4.937   3.066 -0.5604  0.3570 -0.2610
16736TIP3    H171699   1.322   4.937   2.976 -0.9117 -3.1755 -0.2802
16736TIP3    H271700   1.449   4.938   3.058 -0.5005 -2.2647 -0.9161
16737TIP3   OH271701   4.433   0.857   2.692  1.1929  0.1128  0.8040
16737TIP3    H171702   4.372   0.820   2.755  1.4269 -2.2536 -0.2671
16737TIP3    H271703   4.379   0.876   2.615  1.2266  1.3390  1.0550
16738TIP3   OH271704   2.895   2.555  15.580 -0.1454  0.4374  0.0242
16738TIP3    H171705   2.990   2.560  15.595 -0.0012 -0.3191 -0.5684
16738TIP3    H271706   2.880   2.464  15.556 -1.0152  0.5782  0.0169
16739TIP3   OH271707   5.382   3.565   0.368  0.7670  0.1211 -0.2468
16739TIP3    H171708   5.393   3.489   0.426  0.3822  0.7912  0.7453
16739TIP3    H271709   5.465   3.612   0.373  0.2931  0.8844  0.8422
16740TIP3   OH271710   0.873   4.733   4.144  0.1507 -0.7037 -0.0059
16740TIP3    H171711   0.782   4.718   4.169 -0.0816  1.0352  0.3710
16740TIP3    H271712   0.925   4.693   4.213 -0.2557 -2.8796 -0.8984
16741TIP3   OH271713   5.380   6.604  15.852  0.3829  0.1925 -0.1984
16741TIP3    H171714   5.363   6.633  15.941  0.6794 -2.5279  0.8184
16741TIP3    H271715   5.444   6.667  15.818 -1.3107  2.5508  0.6672
16742TIP3   OH271716   1.143   5.336   0.204  0.0796 -0.1807  0.3154
16742TIP3    H171717   1.179   5.306   0.120 -2.2275 -0.2512 -0.7113
16742TIP3    H271718   1.050   5.348   0.187 -0.2298  1.0001  2.5711
16743TIP3   OH271719   5.892   6.693   4.291  0.1140 -0.1184 -0.1146
16743TIP3    H171720   5.816   6.642   4.261  0.0466 -0.1938  0.1839
16743TIP3    H271721   5.944   6.707   4.211 -1.5198  2.1931 -0.8798
16744TIP3   OH271722   5.028   4.526   5.654 -0.4801 -0.2224 -0.3973
16744TIP3    H171723   4.948   4.501   5.702 -0.6214  1.9091  0.6206
16744TIP3    H271724   5.099   4.502   5.713 -0.5751  0.9166  0.2140
16745TIP3   OH271725   2.848   0.203  13.046  0.7192 -0.2575 -0.6670
16745TIP3    H171726   2.867   0.256  12.969 -0.5579 -0.0432 -0.8544
16745TIP3    H271727   2.788   0.136  13.014  2.3084 -1.8836 -0.4429
16746TIP3   OH271728   0.810   3.160   1.000  0.4554 -0.4277 -0.0827
16746TIP3    H171729   0.715   3.160   0.984  0.4134  1.8503 -0.2274
16746TIP3    H271730   0.819   3.157   1.095  0.1764  0.4757 -0.0185
16747TIP3   OH271731   6.519   5.090  13.918 -0.4057 -0.4292  0.4508
16747TIP3    H171732   6.508   5.164  13.979  1.3216 -0.0825  0.3814
16747TIP3    H271733   6.608   5.058  13.935  0.2398 -0.1321 -2.0678
16748TIP3   OH271734   6.205   3.168   0.937  0.3960 -0.8165  0.2767
16748TIP3    H171735   6.121   3.158   0.892 -0.2002  0.6387  0.9928
16748TIP3    H271736   6.266   3.111   0.889 -0.3035  0.3370 -2.1051
16749TIP3   OH271737   1.203   1.299  16.040  0.4572  0.4884 -0.2821
16749TIP3    H171738   1.228   1.257  16.123 -1.4262  1.0338  0.6171
16749TIP3    H271739   1.227   1.235  15.973  1.5081 -0.2021  0.7096
16750TIP3   OH271740   2.230   4.408   5.664 -0.7412  0.2217  0.3079
16750TIP3    H171741   2.243   4.329   5.716  0.5407  0.2355  0.0352
16750TIP3    H271742   2.151   4.391   5.612 -0.4959 -0.8586  0.2797
16751TIP3   OH271743   1.426   2.945   0.451  0.0943 -0.0258  0.4976
16751TIP3    H171744   1.460   2.857   0.434  0.8293 -0.1284  2.2644
16751TIP3    H271745   1.338   2.930   0.486 -0.4930  0.0609 -0.8951
16752TIP3   OH271746   2.805   4.874  12.486 -0.0024  0.2430  0.4573
16752TIP3    H171747   2.847   4.960  12.498  0.8161 -0.0826  0.0628
16752TIP3    H271748   2.757   4.883  12.404  1.7798 -0.2756 -0.7145
16753TIP3   OH271749   0.096   4.599  14.716  0.3867  0.5442  0.0976
16753TIP3    H171750   0.158   4.536  14.681  0.8805  1.5375 -0.8783
16753TIP3    H271751   0.133   4.625  14.800 -0.4628 -1.3595  1.1250
16754TIP3   OH271752   3.063   2.330  13.747 -0.1496  0.8544  0.1487
16754TIP3    H171753   3.035   2.251  13.793 -1.0972  0.0894 -1.6438
16754TIP3    H271754   3.121   2.299  13.678 -2.0160  1.4195 -1.8154
16755TIP3   OH271755   6.476   0.207   2.749  0.1408 -0.2065  0.2599
16755TIP3    H171756   6.457   0.290   2.705  0.7628 -0.2663 -0.1371
16755TIP3    H271757   6.553   0.226   2.803  0.6724 -0.6673 -0.3089
16756TIP3   OH271758   3.092   5.530  12.332  0.2023  0.0086  0.7101
16756TIP3    H171759   3.080   5.493  12.245  2.1172  1.1253 -0.1046
16756TIP3    H271760   3.073   5.623  12.321  2.6233  0.5935  0.8648
16757TIP3   OH271761   3.221   0.766  15.955  0.3259 -0.4028  0.2549
16757TIP3    H171762   3.203   0.860  15.943  2.7569  0.0319 -0.8103
16757TIP3    H271763   3.189   0.725  15.875 -0.3795 -0.4345  0.5483
16758TIP3   OH271764   5.475   6.331  12.521 -0.2319  0.1243  0.0644
16758TIP3    H171765   5.399   6.379  12.486 -1.9088 -1.3720  1.4389
16758TIP3    H271766   5.524   6.304  12.443 -0.9721  1.3274 -0.8527
16759TIP3   OH271767   2.821   2.149  13.629  0.3206 -0.0540  0.0355
16759TIP3    H171768   2.866   2.115  13.707 -0.7302 -0.7175  0.3779
16759TIP3    H271769   2.853   2.094  13.558  1.3156  0.5789 -0.0355
16760TIP3   OH271770   6.156   1.461   4.175 -0.4625 -0.2299  0.5827
16760TIP3    H171771   6.130   1.525   4.108  3.4424 -0.3939 -1.3752
16760TIP3    H271772   6.196   1.514   4.244  0.6029 -0.3504  0.0797
16761TIP3   OH271773   0.234   3.809   0.427 -0.0042  0.1181  0.7189
16761TIP3    H171774   0.271   3.772   0.346  1.3506 -0.2269  1.4550
16761TIP3    H271775   0.141   3.821   0.408  0.7423  3.1673 -2.0877
16762TIP3   OH271776   2.473   2.041   1.336 -0.5711 -0.2556 -0.1067
16762TIP3    H171777   2.512   2.026   1.250 -0.2818  0.4360 -0.1074
16762TIP3    H271778   2.381   2.020   1.325 -0.6534  0.3994 -0.7539
16763TIP3   OH271779   3.674   1.159   2.577 -0.1991 -0.4183  0.5377
16763TIP3    H171780   3.737   1.174   2.507  0.1374  0.0071  0.9243
16763TIP3    H271781   3.708   1.082   2.623  0.1258 -0.1081  0.8302
16764TIP3   OH271782   5.569   3.953   1.162  0.4400  0.0168 -0.2731
16764TIP3    H171783   5.641   3.977   1.103  0.6110 -0.6675 -0.3463
16764TIP3    H271784   5.552   3.861   1.143 -1.0112  0.3786 -0.8236
16765TIP3   OH271785   3.594   2.167   0.325  0.0770 -0.0060  0.2395
16765TIP3    H171786   3.550   2.084   0.307  0.4686  0.0582 -1.1055
16765TIP3    H271787   3.531   2.216   0.379  0.5455 -1.8275  2.6089
16766TIP3   OH271788   3.887   2.314   1.011 -1.0292 -0.3165 -0.0370
16766TIP3    H171789   3.823   2.290   1.078 -0.5332  0.0741  0.5876
16766TIP3    H271790   3.844   2.292   0.928 -0.6377 -3.3762  0.4451
16767TIP3   OH271791   4.819   1.810   0.088  0.3693 -0.9686  0.6395
16767TIP3    H171792   4.781   1.890   0.125  1.3702  0.3331 -1.0230
16767TIP3    H271793   4.885   1.783   0.153 -0.3274 -0.7727  1.4559
16768TIP3   OH271794   1.499   4.583  16.519 -0.8723 -0.2166  0.3109
16768TIP3    H171795   1.410   4.614  16.506 -1.4172 -2.3716 -2.0327
16768TIP3    H271796   1.489   4.493  16.550  0.4220 -0.7988 -0.8456
16769TIP3   OH271797   0.022   1.605   2.595 -0.3631 -0.4233 -0.0383
16769TIP3    H171798  -0.064   1.644   2.583 -1.0103 -2.0822 -1.2105
16769TIP3    H271799   0.005   1.515   2.622  0.9576 -1.0037 -0.9776
16770TIP3   OH271800   4.702   2.166  15.704 -0.5295 -0.4704 -0.0826
16770TIP3    H171801   4.638   2.162  15.775 -0.6930  0.4319 -0.1774
16770TIP3    H271802   4.721   2.259  15.693 -0.7357 -0.5721 -1.4368
16771TIP3   OH271803   2.097   3.538  15.494 -0.4641 -0.3500 -0.2889
16771TIP3    H171804   2.040   3.536  15.571  1.3736  2.4144  1.3252
16771TIP3    H271805   2.085   3.626  15.458  1.0449 -0.5301 -1.3118
16772TIP3   OH271806   5.025   0.038   2.806  0.2419  0.4020  0.5190
16772TIP3    H171807   4.979   0.114   2.840  0.7600  0.8361  0.2814
16772TIP3    H271808   4.963  -0.004   2.747 -0.0330  0.6675  0.6199
16773TIP3   OH271809   3.200   6.532  13.867  0.2623  0.7990  0.4685
16773TIP3    H171810   3.128   6.587  13.836  0.4616  0.1382 -1.2875
16773TIP3    H271811   3.230   6.485  13.789  0.3934 -1.4825  1.8107
16774TIP3   OH271812   2.575   2.706   5.832  0.3952  0.2999  0.1377
16774TIP3    H171813   2.492   2.710   5.784 -0.5136  2.1586  1.7034
16774TIP3    H271814   2.564   2.632   5.891  0.4742 -0.3785 -0.6742
16775TIP3   OH271815   6.551   3.269   1.032 -0.5210 -0.2922 -0.3172
16775TIP3    H171816   6.505   3.188   1.008 -0.8162 -0.5166  0.9355
16775TIP3    H271817   6.576   3.308   0.948 -0.1125 -1.8191 -0.9418
16776TIP3   OH271818   0.852   0.447  15.175 -0.5362  0.2353  0.3360
16776TIP3    H171819   0.763   0.451  15.140 -0.3687  0.2517 -0.0960
16776TIP3    H271820   0.851   0.504  15.252 -1.5381 -1.5931  1.7618
16777TIP3   OH271821   6.748   6.633   4.659 -0.0281 -0.2629  0.6063
16777TIP3    H171822   6.771   6.641   4.752 -0.1580 -1.8253  0.8010
16777TIP3    H271823   6.666   6.583   4.659 -0.4264  0.3598 -0.3350
16778TIP3   OH271824   6.531   0.977   4.020 -0.0820 -0.2832  0.0446
16778TIP3    H171825   6.607   0.992   3.965  0.0550 -1.2545 -0.0498
16778TIP3    H271826   6.538   1.042   4.090  1.0163 -0.5671  0.2142
16779TIP3   OH271827   0.480   3.779  16.430 -0.1515  0.4448  0.4455
16779TIP3    H171828   0.414   3.717  16.397 -0.6590  1.9842 -1.6609
16779TIP3    H271829   0.553   3.771  16.368  0.3255  1.0124  0.9238
16780TIP3   OH271830   1.153   6.643   3.016  0.4155 -0.3266 -0.3193
16780TIP3    H171831   1.114   6.557   3.032 -0.5815  0.4081  1.5545
16780TIP3    H271832   1.246   6.631   3.036 -0.0099 -0.6021  1.7310
16781TIP3   OH271833   0.483   5.794   4.615 -0.2994  0.8305 -0.3440
16781TIP3    H171834   0.431   5.740   4.556  0.0223 -0.7384  0.7376
16781TIP3    H271835   0.457   5.765   4.703  2.6885 -0.3611  0.2679
16782TIP3   OH271836   1.120   6.466   0.437 -0.2313 -0.2061 -0.1843
16782TIP3    H171837   1.132   6.469   0.342  0.5187 -0.5617 -0.1115
16782TIP3    H271838   1.127   6.557   0.465 -2.4476  0.1825 -0.6692
16783TIP3   OH271839   3.931   5.248   2.971 -0.6622 -0.0297  0.2811
16783TIP3    H171840   3.912   5.298   2.892 -0.1664 -0.2249  0.0330
16783TIP3    H271841   4.021   5.271   2.993 -0.9090  0.2745  0.9804
16784TIP3   OH271842   3.503   1.120  16.486 -0.3241 -0.0795  0.0239
16784TIP3    H171843   3.534   1.173  16.560 -1.2364 -1.6307  1.6026
16784TIP3    H271844   3.478   1.184  16.420 -0.2118  1.4243  1.3700
16785TIP3   OH271845   6.740   5.690  15.336 -0.8042 -0.6872  0.1201
16785TIP3    H171846   6.712   5.617  15.391 -2.3835 -0.0839  0.1519
16785TIP3    H271847   6.772   5.756  15.397  0.3810 -1.2221  0.1057
16786TIP3   OH271848   1.207   4.927   0.996  0.0144  0.5726  0.3924
16786TIP3    H171849   1.118   4.950   0.970 -0.3324  0.8779  1.7960
16786TIP3    H271850   1.202   4.909   1.090  1.0260 -1.5174  0.1135
16787TIP3   OH271851   1.695   0.523   4.849 -0.3223  0.3275 -0.9885
16787TIP3    H171852   1.701   0.430   4.825  1.6168  0.4670 -1.2229
16787TIP3    H271853   1.618   0.555   4.803 -1.6805 -1.3998 -0.0143
16788TIP3   OH271854   1.106   1.663  14.108  0.1861  0.2097 -0.3096
16788TIP3    H171855   1.124   1.608  14.184 -2.4489  0.4044  0.5634
16788TIP3    H271856   1.111   1.753  14.141 -2.0445  0.2779 -0.0017
16789TIP3   OH271857   5.952   4.527   5.398  0.0688 -0.4929  0.6913
16789TIP3    H171858   5.972   4.510   5.490 -0.1536 -1.3255  0.5985
16789TIP3    H271859   5.913   4.445   5.367  0.2751 -0.2703 -0.1804
16790TIP3   OH271860   2.501   1.257  13.374 -0.3175 -0.3605  0.0328
16790TIP3    H171861   2.540   1.178  13.411 -0.2940  0.1480  1.1351
16790TIP3    H271862   2.434   1.225  13.313  0.3894 -1.2249 -0.3000
16791TIP3   OH271863   1.442   6.342   2.909 -0.0909 -0.1317  0.3510
16791TIP3    H171864   1.358   6.381   2.884  0.2914 -0.8178 -2.3300
16791TIP3    H271865   1.465   6.285   2.835  1.7201 -1.6278  1.9549
16792TIP3   OH271866   2.032   1.173   6.843  0.1298  0.2510  0.0249
16792TIP3    H171867   2.092   1.247   6.840  0.1145  0.3307  1.2170
16792TIP3    H271868   2.075   1.109   6.900  0.6696 -1.1619 -1.8655
16793TIP3   OH271869   2.235   4.569   0.674  0.3568 -0.5061 -0.6922
16793TIP3    H171870   2.178   4.639   0.642  0.3275 -0.3479 -0.3004
16793TIP3    H271871   2.314   4.614   0.703 -0.1694 -0.4748  0.7853
16794TIP3   OH271872   4.698   4.284   2.131  1.1363 -0.7625 -0.2032
16794TIP3    H171873   4.793   4.270   2.121  0.8882 -1.7606 -1.4197
16794TIP3    H271874   4.660   4.247   2.051 -0.1756  0.9374 -0.4288
16795TIP3   OH271875   2.363   0.454  12.016 -0.1995 -0.0499 -0.2586
16795TIP3    H171876   2.342   0.542  11.986 -1.5672  0.1663  1.1790
16795TIP3    H271877   2.310   0.396  11.961  1.7546 -0.1540 -2.1705
16796TIP3   OH271878   0.078   3.222  11.664  0.1740  0.3921  0.3960
16796TIP3    H171879   0.098   3.268  11.746  0.0581  2.1126 -0.4976
16796TIP3    H271880   0.146   3.251  11.603 -0.5818  0.2617 -0.5320
16797TIP3   OH271881   4.212   1.700  14.846 -0.2174  0.1436 -0.3586
16797TIP3    H171882   4.141   1.750  14.886 -0.2093 -0.2768  0.1921
16797TIP3    H271883   4.292   1.738  14.884 -0.2620 -1.4252  1.4599
16798TIP3   OH271884   2.894   5.196   4.903  0.0876 -0.3460 -0.4719
16798TIP3    H171885   2.980   5.235   4.921 -0.4647  0.2322  1.0669
16798TIP3    H271886   2.843   5.266   4.865  0.3446 -0.7590 -1.6197
16799TIP3   OH271887   6.403   0.968  14.348  0.4926  0.7674 -0.1326
16799TIP3    H171888   6.495   0.944  14.362  0.7580  2.1129  0.5467
16799TIP3    H271889   6.395   1.055  14.385 -0.5830  1.5160 -1.9873
16800TIP3   OH271890   4.971   0.799  12.978 -0.5297  0.5122  0.2632
16800TIP3    H171891   5.056   0.823  13.015  0.5032  1.3263 -2.4144
16800TIP3    H271892   4.919   0.879  12.984  0.0837  1.0440 -1.1311
16801TIP3   OH271893   2.272   5.460  12.450 -0.1634 -0.6585 -0.1907
16801TIP3    H171894   2.331   5.515  12.502  0.3566  0.6723 -2.0882
16801TIP3    H271895   2.184   5.486  12.479  0.1140 -0.3059  0.3650
16802TIP3   OH271896   1.567   2.205  15.953 -1.3979  0.5625  0.2115
16802TIP3    H171897   1.552   2.190  15.860  0.0164 -1.1500  0.1928
16802TIP3    H271898   1.636   2.272  15.956 -0.2486 -0.5587 -0.0731
16803TIP3   OH271899   0.065   3.120  13.916 -0.4077 -0.0633 -0.1479
16803TIP3    H171900   0.158   3.142  13.907 -0.5077  0.8568  0.8992
16803TIP3    H271901   0.061   3.066  13.995 -0.9980  1.5504  0.9676
16804TIP3   OH271902   5.745   5.265   4.736 -0.5823 -0.0024 -0.2690
16804TIP3    H171903   5.720   5.225   4.820  0.4038  0.0597  0.0682
16804TIP3    H271904   5.764   5.190   4.679  0.1714 -0.0360  0.0182
16805TIP3   OH271905   6.599   0.713  12.303  0.2084  0.1263  0.1133
16805TIP3    H171906   6.524   0.772  12.305  1.1113  1.3104  1.3592
16805TIP3    H271907   6.564   0.628  12.329 -0.5597  0.8578  1.5895
16806TIP3   OH271908   4.524   5.737  14.250  0.3438  0.3021 -0.4616
16806TIP3    H171909   4.439   5.724  14.292  2.3250  0.9306  4.3704
16806TIP3    H271910   4.574   5.658  14.271  1.5579  0.7065 -1.6519
16807TIP3   OH271911   0.253   4.693  11.938 -0.2415  0.0491  0.2234
16807TIP3    H171912   0.160   4.669  11.943  0.2564 -2.7201 -1.3516
16807TIP3    H271913   0.290   4.661  12.020 -0.5796  0.7268  0.6479
16808TIP3   OH271914   1.521   6.207  14.270  0.5371 -0.3216  0.2718
16808TIP3    H171915   1.519   6.158  14.188  2.6033 -0.7653  0.4360
16808TIP3    H271916   1.594   6.269  14.259  0.1126  0.4018  1.3547
16809TIP3   OH271917   2.093   5.719   6.621 -0.2554 -0.1700  0.9578
16809TIP3    H171918   2.030   5.704   6.550  0.6702 -3.2424  0.6313
16809TIP3    H271919   2.064   5.800   6.662 -2.2757  0.4234 -1.3992
16810TIP3   OH271920   1.670   3.600  11.388  0.2758 -0.1523  0.7128
16810TIP3    H171921   1.618   3.669  11.347  1.2182  0.2132  0.0965
16810TIP3    H271922   1.632   3.518  11.355 -0.2793  0.0876  0.7470
16811TIP3   OH271923   3.020   4.651   1.906  0.5108  0.1523 -1.0028
16811TIP3    H171924   2.975   4.577   1.946 -0.2790  1.0027 -0.2687
16811TIP3    H271925   3.078   4.684   1.975  0.6825  0.3743 -1.2475
16812TIP3   OH271926   0.536   1.823  16.188  0.3175 -0.0246  0.7058
16812TIP3    H171927   0.460   1.878  16.207  1.8946  2.4631  0.3168
16812TIP3    H271928   0.572   1.801  16.274  1.0190  1.6403  0.8725
16813TIP3   OH271929   0.617   5.917   0.280 -0.6441  0.5045 -0.0708
16813TIP3    H171930   0.551   5.849   0.296 -0.6131  0.6557  0.7040
16813TIP3    H271931   0.630   5.915   0.185 -0.2081 -0.9724  0.0007
16814TIP3   OH271932   5.042   3.094  15.678 -0.3228  0.0304  0.4357
16814TIP3    H171933   5.082   3.120  15.595  0.5414  0.2212  0.8920
16814TIP3    H271934   5.018   3.176  15.720 -0.2522 -0.0348  0.6069
16815TIP3   OH271935   1.510   1.027   4.970  0.5203 -0.2292  0.5289
16815TIP3    H171936   1.485   0.935   4.981 -1.2109  0.3596  2.0273
16815TIP3    H271937   1.446   1.061   4.907  1.2493 -0.0646 -0.1351
16816TIP3   OH271938   3.832   4.609   4.273 -0.2004  0.5131  0.1281
16816TIP3    H171939   3.897   4.651   4.329 -1.2503  3.3856 -0.6246
16816TIP3    H271940   3.869   4.612   4.185  0.3540 -1.6912  0.2132
16817TIP3   OH271941   2.036   4.579   1.307 -0.1496  0.4370 -0.0041
16817TIP3    H171942   1.962   4.625   1.345  0.9070  1.0505  1.4115
16817TIP3    H271943   2.009   4.487   1.305 -1.2890  0.7674 -0.4164
16818TIP3   OH271944   5.108   0.692   4.688  0.2924  0.3569 -0.6849
16818TIP3    H171945   5.036   0.668   4.746 -0.5541  0.3949 -1.6951
16818TIP3    H271946   5.153   0.609   4.670 -0.1284  0.1700 -0.8796
16819TIP3   OH271947   2.404   3.569   7.065  0.5981 -0.0248  0.3223
16819TIP3    H171948   2.407   3.646   7.008 -1.3507  0.5703  0.9603
16819TIP3    H271949   2.387   3.604   7.152  1.4374 -1.0798  0.9400
16820TIP3   OH271950   2.831   6.417  12.426  0.2636  0.1920 -0.0223
16820TIP3    H171951   2.816   6.402  12.332  0.9037 -1.4118  0.1106
16820TIP3    H271952   2.921   6.449  12.430 -0.2606  1.8062 -0.0554
16821TIP3   OH271953   2.009   2.623  13.983  0.0584  0.2241 -0.4365
16821TIP3    H171954   1.973   2.700  13.939 -2.7074  0.1768  1.5012
16821TIP3    H271955   1.972   2.549  13.936  1.0416  0.0703 -0.9991
16822TIP3   OH271956   6.283   0.427   4.089  0.0640  0.1683 -0.2531
16822TIP3    H171957   6.329   0.511   4.100  1.9840 -0.8979  0.2662
16822TIP3    H271958   6.209   0.433   4.150 -0.6916  2.0086 -1.2443
16823TIP3   OH271959   3.846   6.276  11.197 -0.3557  0.0940 -0.3181
16823TIP3    H171960   3.765   6.312  11.234 -0.4065  1.9606 -2.0032
16823TIP3    H271961   3.818   6.234  11.116  0.2891  0.3528 -0.6824
16824TIP3   OH271962   0.130   4.218  17.072 -0.2813 -0.4356 -0.2026
16824TIP3    H171963   0.127   4.228  16.977  0.8686  0.2800 -0.1899
16824TIP3    H271964   0.039   4.222  17.100 -0.4960  2.1293 -1.0407
16825TIP3   OH271965   4.315   4.902  14.887  0.1678  0.0321 -0.0668
16825TIP3    H171966   4.330   4.955  14.965 -0.4238 -1.9065  1.4590
16825TIP3    H271967   4.380   4.832  14.893 -0.9065 -1.0430 -0.4295
16826TIP3   OH271968   6.228   3.001   3.913 -0.1499 -0.3568 -0.0636
16826TIP3    H171969   6.196   2.915   3.940  0.5239 -0.1753  1.4104
16826TIP3    H271970   6.320   3.001   3.938  0.3253  0.1700 -1.6555
16827TIP3   OH271971   0.817   1.922   4.970 -0.4559  0.3273  0.1456
16827TIP3    H171972   0.766   1.982   5.024 -0.7123  1.4644 -1.3017
16827TIP3    H271973   0.908   1.948   4.983 -0.6179  1.7434 -1.2095
16828TIP3   OH271974   1.452   1.784   3.585 -0.7312  0.4681 -0.2142
16828TIP3    H171975   1.394   1.786   3.661 -0.5475 -1.3361  0.0235
16828TIP3    H271976   1.511   1.858   3.598 -1.7981  1.2318  0.4800
16829TIP3   OH271977   2.816   2.630  13.406  0.1005 -0.6059  0.2559
16829TIP3    H171978   2.876   2.679  13.352  0.3064 -1.1255  0.0034
16829TIP3    H271979   2.861   2.547  13.423 -0.5571 -1.0180  0.0223
16830TIP3   OH271980   3.421   1.752   1.729  0.3101  0.0528 -0.4152
16830TIP3    H171981   3.410   1.840   1.692  4.2545  1.2981  0.9210
16830TIP3    H271982   3.353   1.746   1.795 -1.2369  1.2864 -1.7886
16831TIP3   OH271983   0.000   1.089   4.171  0.5114  0.0133 -0.1229
16831TIP3    H171984   0.017   0.997   4.190  0.1665 -0.2180 -0.9261
16831TIP3    H271985   0.059   1.111   4.099  0.7091  0.4742  0.1696
16832TIP3   OH271986   3.708   1.445  16.567 -0.2421  0.6458 -0.3181
16832TIP3    H171987   3.748   1.461  16.481  0.8776  0.6250  0.1850
16832TIP3    H271988   3.629   1.499  16.567 -0.6893  0.0185 -1.6767
16833TIP3   OH271989   0.146   6.191  12.692 -0.1445  0.0021 -0.5994
16833TIP3    H171990   0.095   6.110  12.682 -0.5088  0.1478  0.0676
16833TIP3    H271991   0.112   6.249  12.624 -1.4863  0.4148  0.4102
16834TIP3   OH271992   5.141   6.394   4.317  0.1576  0.7212  0.6450
16834TIP3    H171993   5.059   6.357   4.349 -0.7989  2.3960  0.2763
16834TIP3    H271994   5.148   6.362   4.227 -0.3685  0.9713  0.5088
16835TIP3   OH271995   4.621   6.757   1.515 -0.2013 -0.2049  0.0070
16835TIP3    H171996   4.705   6.792   1.544 -0.2776 -0.0753  0.0691
16835TIP3    H271997   4.626   6.663   1.535 -1.2001  0.2520  2.7399
16836TIP3   OH271998   5.522   3.364   3.772 -0.1390  0.3998 -0.2383
16836TIP3    H171999   5.603   3.356   3.720 -0.2840  0.4030 -0.4674
16836TIP3    H272000   5.466   3.293   3.739 -0.4650  0.7822 -0.5064
16837TIP3   OH272001   4.764   6.335  14.243 -0.3049 -0.9500  0.3167
16837TIP3    H172002   4.694   6.273  14.263 -0.8004 -0.7191 -0.6318
16837TIP3    H272003   4.722   6.401  14.188  1.0247 -1.7346 -1.7325
16838TIP3   OH272004   6.195   5.209  16.619 -0.0315  0.1320 -0.3707
16838TIP3    H172005   6.218   5.266  16.545  1.6896  0.7297  0.5673
16838TIP3    H272006   6.166   5.128  16.577 -0.8906  1.0824 -1.7134
16839TIP3   OH272007   0.674   0.401   2.614  0.0196 -0.7443  0.3570
16839TIP3    H172008   0.604   0.389   2.679 -0.2106 -0.7665  0.1089
16839TIP3    H272009   0.628   0.404   2.530  0.4308 -2.4708  0.0140
16840TIP3   OH272010   3.221   5.056  16.415 -0.3510 -0.3253 -0.1091
16840TIP3    H172011   3.202   5.141  16.376 -0.5612 -0.6684 -0.7719
16840TIP3    H272012   3.315   5.059  16.434 -0.2258 -0.1890 -0.7411
16841TIP3   OH272013   3.225   1.136   3.114 -0.2490 -0.3018  0.3288
16841TIP3    H172014   3.216   1.220   3.070 -1.3429 -0.5405  0.0750
16841TIP3    H272015   3.149   1.085   3.084  0.1668 -1.2224  0.8121
16842TIP3   OH272016   3.470   6.313  15.110  0.9845  0.4896  0.6052
16842TIP3    H172017   3.517   6.345  15.033  0.2553  1.9453  0.7304
16842TIP3    H272018   3.388   6.278  15.075 -0.6626  3.6912  0.8211
16843TIP3   OH272019   6.656   5.196   4.702 -0.2721  0.8901  0.4033
16843TIP3    H172020   6.622   5.282   4.675  0.0670  0.5465 -1.2538
16843TIP3    H272021   6.641   5.140   4.626 -1.8465 -0.9483  1.9602
16844TIP3   OH272022   0.239   6.214   3.386 -0.1307 -0.2707  1.1957
16844TIP3    H172023   0.273   6.258   3.464  2.3082  0.8033 -0.3784
16844TIP3    H272024   0.266   6.269   3.313  1.2781 -3.2949 -0.7577
16845TIP3   OH272025   1.355   4.657  14.177  0.1409  0.0520  0.1855
16845TIP3    H172026   1.328   4.566  14.167  0.4989 -0.0897  0.4951
16845TIP3    H272027   1.397   4.661  14.262  2.0029  0.0315 -0.6817
16846TIP3   OH272028   5.538   4.490  15.473  0.3145  0.3708 -0.3953
16846TIP3    H172029   5.625   4.461  15.444  0.3759  0.7202 -0.5612
16846TIP3    H272030   5.554   4.528  15.560 -0.0212 -1.5705  0.5583
16847TIP3   OH272031   3.643   3.786  15.396 -0.4467 -0.2258 -0.2661
16847TIP3    H172032   3.603   3.712  15.349  0.9934 -0.6842 -0.8313
16847TIP3    H272033   3.569   3.836  15.430 -1.4875 -1.0975 -1.1784
16848TIP3   OH272034   3.644   2.518   4.182  0.2399 -0.1562  0.8393
16848TIP3    H172035   3.714   2.565   4.137 -2.1455  2.1047 -0.8919
16848TIP3    H272036   3.634   2.564   4.265 -1.2155  1.7432 -0.2956
16849TIP3   OH272037   6.668   0.124   0.017  0.1799  0.3773  0.5186
16849TIP3    H172038   6.725   0.075  -0.042  0.2768 -0.9009  1.6208
16849TIP3    H272039   6.725   0.150   0.089  0.1042  2.0758 -0.0026
16850TIP3   OH272040   0.246   5.489   5.959  0.7820  0.2338 -0.0697
16850TIP3    H172041   0.274   5.483   6.050  0.4944 -1.2076 -0.0402
16850TIP3    H272042   0.327   5.492   5.909  0.9398  1.0042  0.2301
16851TIP3   OH272043   6.629   5.451   0.023  0.0238 -0.4836  0.1568
16851TIP3    H172044   6.697   5.507  -0.014 -0.2915 -0.5291 -0.4989
16851TIP3    H272045   6.556   5.457  -0.038 -0.5358 -0.5093  0.8023
16852TIP3   OH272046   6.337   0.851  15.765  0.0941 -0.1825 -0.3854
16852TIP3    H172047   6.391   0.905  15.708  0.0307  0.5674  0.2504
16852TIP3    H272048   6.368   0.870  15.853 -1.2453  0.3270  0.0071
16853TIP3   OH272049   1.887   1.570  11.836 -0.1037  0.1443  0.6756
16853TIP3    H172050   1.915   1.648  11.883 -1.9666  1.2345  0.1098
16853TIP3    H272051   1.853   1.511  11.903 -0.2640  0.5600  0.9622
16854TIP3   OH272052   4.740   6.101  10.447 -0.0140  0.1426 -0.2800
16854TIP3    H172053   4.824   6.063  10.473 -0.4331  0.2728  1.3776
16854TIP3    H272054   4.749   6.195  10.462 -0.5899  0.1082  0.3160
16855TIP3   OH272055   1.413   2.133   1.598 -0.1871  0.7179  0.1570
16855TIP3    H172056   1.405   2.050   1.645  0.8355  0.3864 -0.2334
16855TIP3    H272057   1.322   2.159   1.580 -0.5072 -1.2617 -1.4009
16856TIP3   OH272058   3.382   0.053  16.246 -0.2404  0.0442  0.0865
16856TIP3    H172059   3.344  -0.018  16.298  0.7601 -1.8148 -1.5811
16856TIP3    H272060   3.385   0.127  16.306 -2.6258 -0.8758  1.5074
16857TIP3   OH272061   2.100   6.298  12.518  0.2600 -0.4767 -0.1806
16857TIP3    H172062   2.064   6.372  12.471  0.4402  0.7603  1.5240
16857TIP3    H272063   2.121   6.332  12.605  2.8720 -1.8405 -0.1632
16858TIP3   OH272064   4.548   0.472  12.242  0.0192 -0.0568 -0.1607
16858TIP3    H172065   4.457   0.464  12.212 -0.0501  0.8402 -0.2266
16858TIP3    H272066   4.584   0.383  12.235 -0.4794 -0.1759 -1.3336
16859TIP3   OH272067   5.570   0.252  14.127 -0.2196 -0.6157  0.6874
16859TIP3    H172068   5.611   0.338  14.139 -0.8477  0.2296 -2.2724
16859TIP3    H272069   5.518   0.239  14.206  0.1084  1.6284  1.3446
16860TIP3   OH272070   0.059   4.517  13.165  0.3497 -0.1467 -0.4389
16860TIP3    H172071   0.145   4.479  13.185 -0.4363 -0.9732  1.6754
16860TIP3    H272072   0.079   4.606  13.136  1.9003  0.0152  0.9490
16861TIP3   OH272073   0.424   5.152   1.866  0.2641 -0.3608  0.1288
16861TIP3    H172074   0.469   5.069   1.882 -0.4616 -0.8619 -0.3779
16861TIP3    H272075   0.413   5.191   1.953  1.1902 -0.4765  0.3079
16862TIP3   OH272076   1.271   0.030   4.858  0.2979 -0.3240  0.1146
16862TIP3    H172077   1.210   0.054   4.789  0.5203  2.6622  0.8156
16862TIP3    H272078   1.353   0.011   4.812 -0.6319 -2.6322 -0.6902
16863TIP3   OH272079   2.758   2.414  13.727  0.2656 -0.3932  0.2102
16863TIP3    H172080   2.802   2.343  13.681  0.9553 -0.6580  1.2341
16863TIP3    H272081   2.796   2.412  13.815  2.1997  2.8026 -0.3908
16864TIP3   OH272082   0.202   0.472  14.103 -0.5882  0.3706 -0.0424
16864TIP3    H172083   0.269   0.429  14.156 -0.2505 -1.3708 -1.7514
16864TIP3    H272084   0.129   0.485  14.164  0.0207 -0.9059  1.0341
16865TIP3   OH272085   1.339   3.859   5.628  0.2695 -0.4605 -0.4303
16865TIP3    H172086   1.349   3.765   5.611 -1.5242 -0.7265 -0.2112
16865TIP3    H272087   1.402   3.901   5.569  0.3161 -1.7441 -1.3421
16866TIP3   OH272088   6.017   4.496  16.117 -0.1993 -0.0397 -0.4992
16866TIP3    H172089   5.999   4.520  16.208  1.1391 -0.8922  0.0073
16866TIP3    H272090   6.099   4.540  16.096 -1.0827  1.1241 -1.7144
16867TIP3   OH272091   0.498   2.002  12.065  0.4925 -0.7295 -0.5048
16867TIP3    H172092   0.557   2.073  12.039 -0.3850  0.0580 -0.4133
16867TIP3    H272093   0.455   1.976  11.984 -1.1247  0.6834 -0.1505
16868TIP3   OH272094   3.437   1.736   6.120  0.0072  0.7007  0.3788
16868TIP3    H172095   3.399   1.771   6.200  0.1547  0.3709  0.5904
16868TIP3    H272096   3.532   1.743   6.133  0.0404  0.0258  0.5047
16869TIP3   OH272097   1.678   4.815   0.080 -1.0548 -0.6029 -0.1292
16869TIP3    H172098   1.722   4.875   0.140 -0.2716 -1.1171 -0.1700
16869TIP3    H272099   1.592   4.854   0.065 -0.2281  0.9709 -0.8784
16870TIP3   OH272100   5.264   3.193  13.898  0.5939 -0.6958  0.5484
16870TIP3    H172101   5.224   3.272  13.932  0.7933 -0.7090  0.8106
16870TIP3    H272102   5.313   3.221  13.820  0.3249 -0.6314  0.4020
16871TIP3   OH272103   1.465   1.866   1.688  0.3469 -0.1756 -0.0970
16871TIP3    H172104   1.487   1.863   1.781 -1.4835 -0.3142  0.3828
16871TIP3    H272105   1.548   1.852   1.642  1.5748  1.5203  1.4795
16872TIP3   OH272106   1.699   6.108   0.156  0.2148  0.2244 -0.0454
16872TIP3    H172107   1.744   6.184   0.120 -0.8171  1.3796  1.0079
16872TIP3    H272108   1.611   6.112   0.118  0.4401 -1.0668 -0.7931
16873TIP3   OH272109   4.416   5.248   1.058 -0.1114 -0.0484 -0.1525
16873TIP3    H172110   4.470   5.299   0.998 -0.2043 -1.5145 -1.5549
16873TIP3    H272111   4.478   5.202   1.113 -0.0254  2.1312  1.7100
16874TIP3   OH272112   1.855   6.736   2.198  0.4438  0.6733  0.6547
16874TIP3    H172113   1.926   6.740   2.262  0.5808 -1.3989  0.6915
16874TIP3    H272114   1.846   6.643   2.177 -0.1675  1.1934 -1.7132
16875TIP3   OH272115   0.475   6.631   1.107  0.3282 -0.1449  0.3933
16875TIP3    H172116   0.470   6.569   1.180 -0.0362 -0.2819  0.2509
16875TIP3    H272117   0.386   6.665   1.098  0.9115  2.0292  1.8691
16876TIP3   OH272118   1.756   5.290   3.028  0.2473 -0.0402 -0.1220
16876TIP3    H172119   1.845   5.318   3.006 -0.5508  1.6107 -1.4572
16876TIP3    H272120   1.746   5.206   2.985  0.8706  0.1761 -0.6967
16877TIP3   OH272121   4.099   6.268  13.351 -0.4844 -0.7911  0.8515
16877TIP3    H172122   4.118   6.240  13.440  0.5262  1.3250  1.3629
16877TIP3    H272123   4.164   6.223  13.297  0.3877 -0.3039  1.4882
16878TIP3   OH272124   3.704   4.049  14.873 -0.1757  0.0731 -0.0180
16878TIP3    H172125   3.626   4.032  14.820  0.4430  1.1173 -1.3251
16878TIP3    H272126   3.773   3.998  14.831  0.5047  1.5551 -0.7656
16879TIP3   OH272127   0.481   2.688   2.379  0.4975 -0.8110  0.3117
16879TIP3    H172128   0.511   2.598   2.371  0.8120 -0.6857  0.0859
16879TIP3    H272129   0.559   2.738   2.400  0.3093 -0.5994  0.5178
16880TIP3   OH272130   1.499   2.157  14.119  0.3761 -0.5022  0.2667
16880TIP3    H172131   1.454   2.172  14.202 -0.4097 -0.0103 -0.2291
16880TIP3    H272132   1.446   2.091  14.074  0.1156  0.1102 -0.3433
16881TIP3   OH272133   5.882   1.389   1.795 -0.2368  0.0305  0.5369
16881TIP3    H172134   5.858   1.337   1.872  1.2981 -2.4311 -0.5512
16881TIP3    H272135   5.960   1.437   1.821  0.3625 -0.9090  0.5044
16882TIP3   OH272136   1.186   2.358  14.759 -0.5627  0.5820 -0.2355
16882TIP3    H172137   1.252   2.311  14.810  0.3586  2.0017 -0.0671
16882TIP3    H272138   1.178   2.308  14.678 -1.7294 -1.4646  1.0544
16883TIP3   OH272139   4.748   6.615  12.880 -0.9055 -0.0848 -0.3924
16883TIP3    H172140   4.663   6.644  12.849 -1.8254 -0.5405  1.5297
16883TIP3    H272141   4.787   6.694  12.920 -0.4084  0.1235 -1.2710
16884TIP3   OH272142   6.728   5.906   0.723  0.1287  0.7373 -0.2167
16884TIP3    H172143   6.667   5.918   0.650  0.5450 -1.9846 -1.1572
16884TIP3    H272144   6.815   5.904   0.682  0.3885 -0.5853  0.3353
16885TIP3   OH272145   2.245   6.037   0.289 -0.0125  0.5888 -0.0793
16885TIP3    H172146   2.221   6.006   0.377  0.2740  1.5047  0.3300
16885TIP3    H272147   2.299   6.114   0.305  1.0105  0.0960 -1.0485
16886TIP3   OH272148   0.721   1.038  14.246  0.3332  0.0708  0.2144
16886TIP3    H172149   0.796   1.024  14.304  0.1699  0.4372  0.5140
16886TIP3    H272150   0.741   1.120  14.200  0.7066 -0.4816 -0.6393
16887TIP3   OH272151   0.241   2.838  16.236  0.3345  0.4121  0.0582
16887TIP3    H172152   0.229   2.933  16.233 -1.5743  0.2123  0.1532
16887TIP3    H272153   0.152   2.803  16.244  1.0472 -1.3681  0.5668
16888TIP3   OH272154   5.383   4.971  15.558  0.3060  0.3159 -0.5134
16888TIP3    H172155   5.431   5.034  15.505  0.5243  1.4696  0.9757
16888TIP3    H272156   5.354   4.904  15.496 -1.3389  2.6759 -2.4702
16889TIP3   OH272157   4.172   1.145   1.823  0.0257 -0.4773  0.0603
16889TIP3    H172158   4.179   1.108   1.735  0.7973 -1.7846  0.6412
16889TIP3    H272159   4.212   1.232   1.816 -0.7726 -0.1870 -1.0803
16890TIP3   OH272160   5.182   3.573  16.017  0.2747 -0.1442  0.7096
16890TIP3    H172161   5.261   3.557  16.070  0.1559 -0.1283  0.8920
16890TIP3    H272162   5.146   3.655  16.052  0.5736  0.2357  0.1489
16891TIP3   OH272163   1.509   4.829  16.689 -0.8584  0.8053 -0.2181
16891TIP3    H172164   1.504   4.735  16.670 -1.6771  1.0791 -1.5386
16891TIP3    H272165   1.589   4.858  16.645  1.0236  0.2688  2.6141
16892TIP3   OH272166   0.858   2.485   4.608 -0.3566  0.7029 -0.4698
16892TIP3    H172167   0.849   2.514   4.517 -1.3698  0.1594 -0.5490
16892TIP3    H272168   0.821   2.557   4.660 -0.0381  0.8895 -0.4998
16893TIP3   OH272169   3.586   3.977  14.170 -0.5192  0.5373  0.3357
16893TIP3    H172170   3.511   3.919  14.157  1.6297 -2.4526  0.4132
16893TIP3    H272171   3.641   3.932  14.234  3.0025  0.8095 -2.2031
16894TIP3   OH272172   3.302   5.254  13.557 -0.3263  0.3265 -0.3385
16894TIP3    H172173   3.357   5.177  13.547  0.0204  0.1685  2.1337
16894TIP3    H272174   3.215   5.220  13.580  0.2188  0.5709  2.4734
16895TIP3   OH272175   5.843   6.822   3.722  1.2906 -0.2024 -0.1475
16895TIP3    H172176   5.798   6.906   3.715 -0.2732 -1.0252 -0.2059
16895TIP3    H272177   5.893   6.830   3.804  0.1289  0.3162  0.5408
16896TIP3   OH272178   4.732   3.502  15.279 -0.4395  0.0059  0.1660
16896TIP3    H172179   4.806   3.458  15.238  0.7050  1.1452  0.9548
16896TIP3    H272180   4.753   3.503  15.372 -1.3013  0.6114  0.3682
16897TIP3   OH272181   5.868   0.465  11.961  1.0757 -0.1698  0.7219
16897TIP3    H172182   5.865   0.496  11.871  1.7168  0.5913  0.9509
16897TIP3    H272183   5.819   0.383  11.960  0.2322  0.3249 -0.1093
16898TIP3   OH272184   2.581   2.254   4.065 -0.1204 -0.4471 -0.0839
16898TIP3    H172185   2.580   2.350   4.069  0.2359 -0.4755  0.9438
16898TIP3    H272186   2.641   2.234   3.993  3.1059  0.1001  2.2488
16899TIP3   OH272187   4.044   2.994  15.436  0.3599 -0.4172  0.5568
16899TIP3    H172188   4.127   3.023  15.400  1.7646  1.0898  4.4552
16899TIP3    H272189   4.057   2.902  15.458 -0.9757 -1.7795 -3.5062
16900TIP3   OH272190   4.395   2.152   1.821  0.2347  0.0473  0.3232
16900TIP3    H172191   4.379   2.076   1.765 -1.3564  1.5718 -1.4023
16900TIP3    H272192   4.310   2.192   1.834  0.7683  0.5872  2.7246
16901TIP3   OH272193   0.017   6.242   4.689  0.3068  0.1507 -0.8944
16901TIP3    H172194  -0.006   6.334   4.672 -0.9825  0.5510  2.2982
16901TIP3    H272195  -0.024   6.194   4.617 -1.5320  1.8592 -1.0829
16902TIP3   OH272196   1.644   1.152   2.913  0.4267  0.0449  0.4900
16902TIP3    H172197   1.613   1.231   2.958 -0.8674 -0.2407  0.1295
16902TIP3    H272198   1.566   1.097   2.903  0.6154  0.1245 -2.1981
16903TIP3   OH272199   6.161   6.240  15.185  0.0005  0.2814 -0.0515
16903TIP3    H172200   6.075   6.229  15.224 -0.3277  1.9898 -0.2218
16903TIP3    H272201   6.169   6.168  15.123 -2.1429  1.2237 -1.4957
16904TIP3   OH272202   3.163   3.101  13.599 -0.6314  0.1113  0.7994
16904TIP3    H172203   3.232   3.145  13.649  0.5976 -1.3379  0.4519
16904TIP3    H272204   3.142   3.162  13.528  2.6770 -0.6989 -1.0737
16905TIP3   OH272205   3.980   5.922  16.343  0.1060 -0.0263 -0.0530
16905TIP3    H172206   3.921   5.997  16.335  0.6088  0.3481 -0.3095
16905TIP3    H272207   4.050   5.954  16.401  0.1446 -0.4089  0.1100
16906TIP3   OH272208   6.678   0.890   4.973 -0.5331 -0.9388 -0.3055
16906TIP3    H172209   6.603   0.913   5.028 -1.2650 -1.3077 -1.1304
16906TIP3    H272210   6.676   0.794   4.970  1.3789 -1.1065  1.5815
16907TIP3   OH272211   0.016   1.267   3.735 -0.1323 -0.2012 -0.1937
16907TIP3    H172212   0.068   1.187   3.744 -1.0156 -0.9414 -1.2984
16907TIP3    H272213   0.059   1.331   3.792 -0.1238 -1.8122  1.7396
16908TIP3   OH272214   3.038   1.046   2.942 -0.4716  0.2734 -0.2533
16908TIP3    H172215   3.006   1.124   2.896 -0.4621 -0.3777 -1.4036
16908TIP3    H272216   3.077   0.992   2.873 -1.3476 -1.2017  0.3508
16909TIP3   OH272217   3.021   4.640   4.773 -0.1333  0.0924  0.1690
16909TIP3    H172218   3.033   4.592   4.855 -1.8060 -2.0668 -0.7365
16909TIP3    H272219   2.979   4.722   4.799 -0.4483 -0.4656  1.5050
16910TIP3   OH272220   2.955   3.027   4.938 -0.3971 -0.3025 -0.5160
16910TIP3    H172221   2.987   3.056   5.023  0.3105 -0.1628 -0.8187
16910TIP3    H272222   2.904   2.948   4.956  0.9382 -1.1066 -0.1174
16911TIP3   OH272223   0.744   3.794   1.519 -0.2992 -0.2430  0.1487
16911TIP3    H172224   0.703   3.739   1.452  0.3911 -0.9397  0.2849
16911TIP3    H272225   0.831   3.813   1.484 -0.4495  0.6131  0.1969
16912TIP3   OH272226   4.381   1.450  16.201  0.3452  0.2323 -0.0786
16912TIP3    H172227   4.468   1.416  16.222  0.3596  1.2553  1.7566
16912TIP3    H272228   4.370   1.433  16.107  0.9186 -3.3371  0.3782
16913TIP3   OH272229   0.498   6.540  11.916 -0.2052 -0.1723 -0.0499
16913TIP3    H172230   0.529   6.520  12.005 -0.0463  0.7733  0.1167
16913TIP3    H272231   0.563   6.501  11.858  0.5676  0.5869  0.2838
16914TIP3   OH272232   5.416   4.101  10.982  0.4302  0.4958 -0.6283
16914TIP3    H172233   5.508   4.128  10.984  0.8733 -0.9006  1.4380
16914TIP3    H272234   5.395   4.083  11.074 -1.2939 -1.1645 -1.3032
16915TIP3   OH272235   0.982   6.481   3.940 -0.0003 -0.4654  0.2056
16915TIP3    H172236   1.020   6.500   3.854  0.1623 -1.7898 -0.0266
16915TIP3    H272237   0.888   6.493   3.927 -0.0202 -1.1294 -0.2864
16916TIP3   OH272238   1.322   4.629   1.329 -0.0901  0.0458 -0.0109
16916TIP3    H172239   1.359   4.616   1.416 -0.1864  1.1349  0.2033
16916TIP3    H272240   1.374   4.572   1.272  0.6454  0.1000  0.5922
16917TIP3   OH272241   1.836   2.684   2.854  0.3590  0.1207  0.4801
16917TIP3    H172242   1.773   2.704   2.785  0.7253 -0.1246  0.0664
16917TIP3    H272243   1.892   2.761   2.858 -0.0578  0.4074  0.9609
16918TIP3   OH272244   0.746   3.212  16.038  0.1967  0.4281  0.6569
16918TIP3    H172245   0.798   3.141  16.076  3.2567  1.7847 -0.6841
16918TIP3    H272246   0.693   3.169  15.971  0.5846 -0.8301  1.1253
16919TIP3   OH272247   4.794   3.005   5.567  0.0032 -0.0035  0.0697
16919TIP3    H172248   4.785   2.947   5.642  1.0658 -0.8758 -0.4441
16919TIP3    H272249   4.820   3.089   5.605 -0.8092 -0.0470  0.7613
16920TIP3   OH272250   5.807   3.031  13.246 -0.6307  0.4323 -0.2388
16920TIP3    H172251   5.727   3.007  13.198 -0.0254 -0.8838 -0.6313
16920TIP3    H272252   5.856   2.949  13.253  0.2260  1.0153  0.8901
16921TIP3   OH272253   3.773   0.367   4.736  0.5373 -0.6217  0.1965
16921TIP3    H172254   3.834   0.433   4.768 -0.0539 -0.2571  0.5824
16921TIP3    H272255   3.732   0.408   4.660  0.6301 -0.7917  0.0550
16922TIP3   OH272256   0.459   3.612   3.917  0.0390 -0.4700  0.3029
16922TIP3    H172257   0.370   3.650   3.916  0.5604  0.8249 -0.4791
16922TIP3    H272258   0.516   3.686   3.939  0.8300 -1.6198  2.4168
16923TIP3   OH272259   1.662   2.635   6.342 -0.4538 -0.1107 -0.3718
16923TIP3    H172260   1.699   2.667   6.425  0.2809 -2.3350  0.2326
16923TIP3    H272261   1.614   2.556   6.367 -0.9513 -0.3426 -1.9709
16924TIP3   OH272262   6.474   3.845  15.366  0.2083 -0.2175  0.6207
16924TIP3    H172263   6.381   3.845  15.388  0.4288 -1.4638  1.6857
16924TIP3    H272264   6.516   3.794  15.435  1.4627 -1.0769 -0.6961
16925TIP3   OH272265   4.309   4.168   4.442  0.1684 -0.0661 -0.2751
16925TIP3    H172266   4.353   4.208   4.517 -3.1394 -0.2910  2.0439
16925TIP3    H272267   4.235   4.227   4.425  0.1515 -0.6935 -2.6399
16926TIP3   OH272268   0.535   3.212   6.104  0.3664 -0.3667 -0.4558
16926TIP3    H172269   0.495   3.127   6.122  2.7004 -1.4483  0.0917
16926TIP3    H272270   0.589   3.197   6.027  2.4671 -0.0375  0.8723
16927TIP3   OH272271   3.762   4.015  14.474 -0.5335 -0.6620  0.0366
16927TIP3    H172272   3.788   4.092  14.424  0.5397 -0.1677  1.3110
16927TIP3    H272273   3.792   3.941  14.421  1.2161 -0.1392  0.2672
16928TIP3   OH272274   2.248   3.367   6.631 -0.5558  0.2253  0.1212
16928TIP3    H172275   2.233   3.306   6.703  0.0468 -0.4841 -0.3430
16928TIP3    H272276   2.305   3.320   6.571  3.4964  2.6422  1.6778
16929TIP3   OH272277   2.029   1.314   6.567 -0.0435 -0.1023 -0.2210
16929TIP3    H172278   1.999   1.286   6.481 -0.5562  0.1483 -0.1333
16929TIP3    H272279   1.973   1.265   6.628  0.3451 -0.3101 -0.0303
16930TIP3   OH272280   1.797   4.590   1.077  0.6578 -0.0651 -0.5028
16930TIP3    H172281   1.839   4.522   1.130 -0.1451  0.2390  0.5669
16930TIP3    H272282   1.852   4.597   0.999  1.8601 -0.5442  0.2725
16931TIP3   OH272283   0.447   6.751  10.763 -0.2485 -0.1235 -0.4152
16931TIP3    H172284   0.412   6.799  10.688 -0.7959  0.6824  0.3305
16931TIP3    H272285   0.373   6.699  10.795 -0.5086  0.8067  0.5494
16932TIP3   OH272286   1.767   5.149   2.534 -0.2701  0.4084  0.0975
16932TIP3    H172287   1.852   5.158   2.489 -0.2068  1.0684  0.3394
16932TIP3    H272288   1.756   5.231   2.580 -0.7168  0.0436  0.6474
16933TIP3   OH272289   3.266   6.191   1.194 -0.5192 -0.0890 -0.4067
16933TIP3    H172290   3.291   6.274   1.233  0.8848 -1.5725  2.0508
16933TIP3    H272291   3.330   6.177   1.124  0.1016  0.2434  0.0903
16934TIP3   OH272292   0.793   1.555   2.706  0.2935  0.0040  0.6175
16934TIP3    H172293   0.860   1.600   2.757  0.2425 -0.2854  0.9466
16934TIP3    H272294   0.836   1.475   2.676 -0.2337 -0.7660  1.8086
16935TIP3   OH272295   1.833   2.468   2.567 -0.0204  1.0151 -0.1793
16935TIP3    H172296   1.917   2.482   2.610  0.7356  3.7470 -2.2034
16935TIP3    H272297   1.839   2.381   2.529  2.3588  1.5073 -1.0885
16936TIP3   OH272298   1.070   3.551  12.638  0.3315 -0.1920  0.6666
16936TIP3    H172299   1.080   3.570  12.731  2.7024  3.0128 -0.0885
16936TIP3    H272300   1.005   3.615  12.607 -0.6331 -1.3957  0.0946
16937TIP3   OH272301   1.741   4.931   3.240  0.5286 -0.0892  0.6308
16937TIP3    H172302   1.708   4.925   3.329  1.3228  1.4328  1.0733
16937TIP3    H272303   1.793   4.852   3.228 -1.1662 -1.2775  0.7913
16938TIP3   OH272304   5.036   3.176   3.900 -0.5477 -0.4653  0.0282
16938TIP3    H172305   5.089   3.150   3.975  0.8898 -1.8651 -1.3819
16938TIP3    H272306   5.062   3.115   3.831 -0.9742  1.4832 -1.9441
16939TIP3   OH272307   1.035   0.488  16.863 -0.3157  0.1662 -0.6787
16939TIP3    H172308   1.084   0.449  16.935 -1.3676 -2.6063 -1.3495
16939TIP3    H272309   1.080   0.458  16.784  0.3291  2.4818 -1.2830
16940TIP3   OH272310   6.108   1.294  12.479  0.3375  0.1821 -0.0149
16940TIP3    H172311   6.156   1.316  12.399 -0.0544  1.5651  0.1064
16940TIP3    H272312   6.164   1.326  12.550  0.1481 -0.0046  0.2216
16941TIP3   OH272313   2.800   3.868  17.108  0.2851 -0.1659  0.3263
16941TIP3    H172314   2.827   3.937  17.168  0.4812  0.7845 -0.8114
16941TIP3    H272315   2.877   3.853  17.053 -0.1582 -0.4053 -0.2373
16942TIP3   OH272316   4.963   3.734  12.900  0.2644 -0.0375 -0.1796
16942TIP3    H172317   4.972   3.806  12.963 -1.1759  1.0859 -1.1561
16942TIP3    H272318   4.874   3.745  12.865  0.3604 -1.7488 -1.0548
16943TIP3   OH272319   1.609   1.786  13.958  0.0174 -0.1277  0.0270
16943TIP3    H172320   1.681   1.725  13.941  0.3456  0.7888 -2.1985
16943TIP3    H272321   1.530   1.736  13.940  0.2989  0.1758 -2.2804
16944TIP3   OH272322   5.236   2.692   2.657  0.0328  0.5078 -0.1399
16944TIP3    H172323   5.149   2.657   2.678  0.1273  1.4014  2.0618
16944TIP3    H272324   5.222   2.743   2.577 -1.3938  0.3235 -0.0385
16945TIP3   OH272325   1.721   3.765   5.673  0.2735  0.7360 -0.2834
16945TIP3    H172326   1.753   3.700   5.735  2.4308  1.9383 -0.0323
16945TIP3    H272327   1.686   3.836   5.727 -0.4306  0.5664 -0.5113
16946TIP3   OH272328   5.529   4.921  12.697 -0.0143 -0.2387 -0.3024
16946TIP3    H172329   5.441   4.891  12.672 -0.2027  0.0378  0.0103
16946TIP3    H272330   5.582   4.907  12.619 -0.4908  0.2089 -0.7221
16947TIP3   OH272331   4.647   6.685   3.479  0.1320 -1.0115 -0.0940
16947TIP3    H172332   4.648   6.713   3.571  0.3658 -0.2374 -0.3190
16947TIP3    H272333   4.736   6.701   3.448 -0.2192 -0.2184 -0.7465
16948TIP3   OH272334   6.207   2.141   2.484 -0.9322  0.3588 -0.8415
16948TIP3    H172335   6.124   2.177   2.454 -2.0026 -0.5433  0.9376
16948TIP3    H272336   6.187   2.097   2.566  1.7138  1.9710  0.7966
16949TIP3   OH272337   1.180   6.758   5.893 -0.0394 -0.5554 -0.0861
16949TIP3    H172338   1.187   6.696   5.965 -1.6903  0.5610  1.1053
16949TIP3    H272339   1.150   6.839   5.933  1.7529  0.9759 -1.6393
16950TIP3   OH272340   3.814   5.256  15.578 -0.0591 -0.1947 -0.2924
16950TIP3    H172341   3.779   5.294  15.497 -0.0757 -0.2435 -0.3089
16950TIP3    H272342   3.740   5.207  15.615  0.4902 -1.8723 -1.2939
16951TIP3   OH272343   0.266   5.333  11.863  0.0395 -0.4292  0.1991
16951TIP3    H172344   0.203   5.358  11.931 -0.2375 -2.3893  0.7251
16951TIP3    H272345   0.229   5.369  11.782  0.4443  2.0572  1.0335
16952TIP3   OH272346   0.843   3.495   4.020 -0.2098 -0.2753 -0.3218
16952TIP3    H172347   0.830   3.549   4.098 -2.6393 -1.5739  0.2498
16952TIP3    H272348   0.825   3.554   3.947 -1.1256  0.1414  0.2258
16953TIP3   OH272349   1.639   4.102   1.449 -0.1611 -0.0910  0.0526
16953TIP3    H172350   1.702   4.032   1.467  1.8382  1.3172 -0.9867
16953TIP3    H272351   1.632   4.150   1.531 -1.1206 -1.1748  0.6146
16954TIP3   OH272352   3.833   4.955  15.508  0.1194 -0.4501  0.2570
16954TIP3    H172353   3.894   5.029  15.516  0.8983 -1.0225 -0.2438
16954TIP3    H272354   3.766   4.986  15.448 -0.9831  0.7547  2.0136
16955TIP3   OH272355   0.543   2.097   4.157 -0.1222  0.0627  0.3220
16955TIP3    H172356   0.602   2.024   4.172 -1.9992 -1.8212 -0.8856
16955TIP3    H272357   0.486   2.099   4.234 -0.7911 -0.5347 -0.1364
16956TIP3   OH272358   6.227   5.279  14.080 -0.6023 -0.0963 -0.4502
16956TIP3    H172359   6.205   5.253  13.991  0.0899 -0.9301 -0.3828
16956TIP3    H272360   6.196   5.207  14.135  0.0909 -0.1605 -0.1356
16957TIP3   OH272361   5.377   3.560   4.253 -0.0430 -0.0714 -0.3819
16957TIP3    H172362   5.367   3.499   4.327  0.0984  0.3293 -0.0278
16957TIP3    H272363   5.437   3.627   4.286 -0.9026  0.7460 -0.4574
16958TIP3   OH272364   4.889   5.470  13.510  0.3166  0.1545  0.0532
16958TIP3    H172365   4.978   5.471  13.475  0.6209 -0.2922  0.7795
16958TIP3    H272366   4.883   5.548  13.566  0.5210 -0.2322  0.6255
16959TIP3   OH272367   2.798   1.977   2.358 -0.4205  0.1583 -0.3987
16959TIP3    H172368   2.776   1.975   2.265  0.6228  0.9744 -0.6837
16959TIP3    H272369   2.885   2.016   2.361  0.1462 -1.1173  0.8261
16960TIP3   OH272370   4.288   4.307  11.664 -0.0327 -0.2560  0.5292
16960TIP3    H172371   4.323   4.289  11.577 -0.2813 -1.3210  0.6271
16960TIP3    H272372   4.345   4.374  11.700  1.4685 -1.3988  0.3906
16961TIP3   OH272373   6.700   6.378  10.559  0.0790  0.4745  0.3454
16961TIP3    H172374   6.736   6.301  10.516  1.2279  0.1909  1.7312
16961TIP3    H272375   6.699   6.445  10.491  0.0605 -0.4653 -0.6079
16962TIP3   OH272376   3.577   0.536  12.514  0.6010 -0.4831  0.4914
16962TIP3    H172377   3.642   0.491  12.460  0.6656  0.1982 -0.0016
16962TIP3    H272378   3.553   0.614  12.464  1.2861  0.6167  1.8034
16963TIP3   OH272379   2.085   4.149  16.318 -0.1235 -0.3939 -0.0918
16963TIP3    H172380   2.058   4.226  16.268 -1.0033 -0.5089  0.1797
16963TIP3    H272381   2.108   4.183  16.405 -1.6768 -0.5522  0.4150
16964TIP3   OH272382   2.596   2.848   0.860  0.0392  0.3836 -0.5717
16964TIP3    H172383   2.529   2.781   0.868 -0.6414  1.2803  2.6974
16964TIP3    H272384   2.677   2.803   0.885  0.4695 -0.2676 -2.8797
16965TIP3   OH272385   0.994   1.044  13.039  0.1126  0.4606  0.0156
16965TIP3    H172386   1.004   1.137  13.019 -0.4498  1.1373  2.5460
16965TIP3    H272387   1.071   1.022  13.091 -1.3058  0.4345  2.2395
16966TIP3   OH272388   5.874   0.880   2.516  0.2290 -0.2012  0.2863
16966TIP3    H172389   5.857   0.883   2.422  0.4406 -3.9354 -0.0460
16966TIP3    H272390   5.821   0.951   2.553 -0.2861  1.0168 -2.5590
16967TIP3   OH272391   4.956   3.372  15.973 -0.1887 -0.8957 -0.1311
16967TIP3    H172392   5.011   3.329  16.039  0.1325  1.0688  0.9496
16967TIP3    H272393   5.013   3.438  15.933 -1.3330  0.1943 -0.0208
16968TIP3   OH272394   1.425   0.955  13.459 -0.2547 -0.0197 -0.1122
16968TIP3    H172395   1.459   0.867  13.442  2.4007  0.2573  2.7751
16968TIP3    H272396   1.331   0.949  13.442 -0.1423 -3.3766 -0.1390
16969TIP3   OH272397   6.414   2.212  12.103  0.5462 -0.6094 -0.3259
16969TIP3    H172398   6.426   2.190  12.010 -0.8715 -2.4494 -0.1196
16969TIP3    H272399   6.455   2.140  12.150 -0.0074 -0.4180  0.4607
16970TIP3   OH272400   5.305   3.928   0.590 -0.4703 -0.4751 -0.3910
16970TIP3    H172401   5.394   3.961   0.576 -0.1293 -1.6910 -1.1991
16970TIP3    H272402   5.315   3.860   0.657 -1.2998  1.5372  1.9505
16971TIP3   OH272403   0.352   3.887  11.681 -0.3361  0.3274  0.3501
16971TIP3    H172404   0.402   3.858  11.757 -1.4243 -0.1653  0.8985
16971TIP3    H272405   0.394   3.844  11.606  0.3355  0.2907  0.7412
16972TIP3   OH272406   0.096   3.988  11.776 -0.4781  0.5617 -0.2136
16972TIP3    H172407   0.162   3.921  11.755 -1.6657 -0.6614 -0.1415
16972TIP3    H272408   0.112   4.009  11.867  1.4899  2.2369 -0.8697
16973TIP3   OH272409   0.083   1.938  10.767  0.4935  0.0799 -0.6522
16973TIP3    H172410   0.118   1.978  10.846  1.4824  0.3354 -1.1930
16973TIP3    H272411   0.122   1.989  10.695  1.1239 -1.3031 -1.3358
16974TIP3   OH272412   4.648   5.916   2.809 -0.6580  0.2302 -0.1103
16974TIP3    H172413   4.733   5.919   2.767 -0.6230  0.6709 -0.0075
16974TIP3    H272414   4.654   5.841   2.870 -0.6915 -0.3641 -0.8257
16975TIP3   OH272415   5.866   1.434  16.362 -0.6016  1.0163  0.4093
16975TIP3    H172416   5.915   1.422  16.444 -0.9041 -0.4200  0.4083
16975TIP3    H272417   5.933   1.457  16.297  0.3574 -2.0288  0.1581
16976TIP3   OH272418   4.007   3.788   0.442 -0.1559 -0.1501 -0.1084
16976TIP3    H172419   3.962   3.763   0.522 -0.3156 -0.0570 -0.1686
16976TIP3    H272420   4.100   3.782   0.464 -0.1571  1.9365  0.7789
16977TIP3   OH272421   3.181   6.093   3.824  0.2116 -0.6056  0.0111
16977TIP3    H172422   3.235   6.171   3.815 -1.1153  0.3151 -0.3364
16977TIP3    H272423   3.128   6.109   3.902 -0.2793 -1.0249 -0.2286
16978TIP3   OH272424   4.199   1.905   3.061  0.3489 -0.7139 -0.2505
16978TIP3    H172425   4.122   1.909   3.003  0.1550  3.0211  0.0608
16978TIP3    H272426   4.167   1.939   3.145  2.1278  0.1021  0.1261
16979TIP3   OH272427   2.010   4.777   3.067  0.0943  0.1978  0.9890
16979TIP3    H172428   1.961   4.697   3.047 -0.8883  1.1887 -0.8769
16979TIP3    H272429   2.094   4.765   3.022  0.6779 -0.5151  2.2291
16980TIP3   OH272430   5.508   3.878  13.235  0.7699  0.1247  0.7107
16980TIP3    H172431   5.577   3.813  13.249  0.2169 -0.6222  0.0893
16980TIP3    H272432   5.514   3.899  13.142  0.9315  0.9569  0.9073
16981TIP3   OH272433   0.932   1.895   3.126 -0.1628  0.1798  0.3175
16981TIP3    H172434   0.852   1.876   3.175  0.1709  0.6004  1.0343
16981TIP3    H272435   0.964   1.977   3.163  0.5610  0.0495 -0.0099
16982TIP3   OH272436   3.557   1.258  12.740  0.3947  0.1941 -0.0277
16982TIP3    H172437   3.593   1.178  12.702  1.1818  0.6718 -0.3477
16982TIP3    H272438   3.469   1.235  12.769  0.2911 -0.5570 -0.8973
16983TIP3   OH272439   2.662   5.693   6.094 -0.0075 -0.2557  0.0413
16983TIP3    H172440   2.665   5.732   6.007 -1.6060 -0.3587 -0.0793
16983TIP3    H272441   2.614   5.756   6.147  1.0064 -0.1672  0.8714
16984TIP3   OH272442   6.067   2.502   3.905 -0.1660 -0.0765  0.4489
16984TIP3    H172443   6.011   2.465   3.973 -0.8219  1.0556  0.5352
16984TIP3    H272444   6.084   2.592   3.933 -1.6136  0.8956 -1.5575
16985TIP3   OH272445   1.061   4.225  10.991  0.0748  0.0008  0.0019
16985TIP3    H172446   1.052   4.247  10.899  1.2298 -0.8653 -0.3530
16985TIP3    H272447   1.119   4.292  11.027  0.2104 -0.0785 -0.0709
16986TIP3   OH272448   3.332   1.249  14.408 -0.1272  0.1163 -0.1462
16986TIP3    H172449   3.294   1.337  14.416  0.3303  0.2933  0.1087
16986TIP3    H272450   3.389   1.255  14.331 -0.4223 -0.0773 -0.3792
16987TIP3   OH272451   2.525   5.144  12.667 -0.7326  0.1835  0.4888
16987TIP3    H172452   2.571   5.228  12.673  1.7680 -0.9666 -1.0661
16987TIP3    H272453   2.577   5.084  12.721 -0.5359 -1.1016 -1.0599
16988TIP3   OH272454   4.487   4.502   3.354  0.2780  0.2607 -0.0103
16988TIP3    H172455   4.413   4.535   3.406 -1.3239 -1.1108 -1.3217
16988TIP3    H272456   4.487   4.557   3.276  1.5386  1.1258  0.5602
16989TIP3   OH272457   6.529   2.167   1.570 -0.6056  0.1089 -0.1903
16989TIP3    H172458   6.533   2.167   1.474 -0.9918  2.0286 -0.2418
16989TIP3    H272459   6.620   2.157   1.597 -0.6210 -1.9475 -0.6874
16990TIP3   OH272460   5.113   5.178  14.688 -0.0870  0.2351 -0.4519
16990TIP3    H172461   5.054   5.150  14.617  0.4721  0.3014 -0.9449
16990TIP3    H272462   5.144   5.096  14.725 -2.0278  0.1386  1.1446
16991TIP3   OH272463   1.701   4.090  15.371 -0.3135  0.3513 -0.5471
16991TIP3    H172464   1.785   4.117  15.409 -0.2713  0.9335 -1.0204
16991TIP3    H272465   1.723   4.018  15.312 -0.6683 -2.0050  2.0555
16992TIP3   OH272466   5.024   4.748  12.029 -0.6990 -0.8087  0.3119
16992TIP3    H172467   4.966   4.677  12.055  1.8168 -3.5246 -0.9553
16992TIP3    H272468   5.035   4.738  11.935 -0.0133  1.1201  0.1247
16993TIP3   OH272469   4.423   1.746   3.445 -0.0309  0.1606  0.1618
16993TIP3    H172470   4.353   1.686   3.473  0.2809 -0.4599 -0.3544
16993TIP3    H272471   4.446   1.716   3.357  1.7885 -0.4746  0.8127
16994TIP3   OH272472   6.288   4.266   1.368  0.1892  0.1403  0.0072
16994TIP3    H172473   6.222   4.210   1.329  1.8251 -1.5585 -0.4967
16994TIP3    H272474   6.353   4.279   1.299  2.2460 -1.4250  1.5146
16995TIP3   OH272475   6.623   6.462   3.065  0.4646  0.3506 -0.1174
16995TIP3    H172476   6.545   6.511   3.038  0.7545  2.0289  1.8559
16995TIP3    H272477   6.667   6.440   2.982  0.1841  3.2524 -1.1515
16996TIP3   OH272478   3.156   2.945  14.124 -0.0644 -0.1476  0.6492
16996TIP3    H172479   3.165   2.883  14.196  0.5169 -0.9706 -0.1151
16996TIP3    H272480   3.062   2.963  14.119 -0.1256 -0.1884  1.5180
16997TIP3   OH272481   4.192   1.255  15.003  0.2682 -0.1930 -0.3830
16997TIP3    H172482   4.236   1.279  15.085 -0.3500  0.3050 -0.1871
16997TIP3    H272483   4.211   1.162  14.992 -0.4549 -0.5116  0.8485
16998TIP3   OH272484   4.804   4.472  15.993 -0.6434 -0.0658 -0.1056
16998TIP3    H172485   4.727   4.444  15.943 -2.6520  0.5772  2.3953
16998TIP3    H272486   4.792   4.567  16.003  0.5978  0.0778  0.1463
16999TIP3   OH272487   1.336   1.436  16.515 -0.5369 -0.5990  0.2462
16999TIP3    H172488   1.397   1.509  16.507 -0.6065 -0.6667 -1.3056
16999TIP3    H272489   1.289   1.452  16.596  2.6827 -1.4336  2.4505
17000TIP3   OH272490   3.748   0.504   3.342 -0.3757  0.1196  0.6311
17000TIP3    H172491   3.831   0.458   3.346  0.9629  2.3973  4.4217
17000TIP3    H272492   3.686   0.445   3.386  0.1629 -0.0632  1.1591
17001TIP3   OH272493   4.873   0.850   0.173  0.1622  0.3779  0.1070
17001TIP3    H172494   4.914   0.766   0.193  2.4525  1.5683  0.7101
17001TIP3    H272495   4.825   0.873   0.252  1.0049  0.4459  0.6113
17002TIP3   OH272496   6.416   4.000  15.649  0.0472 -0.2327  0.1180
17002TIP3    H172497   6.505   3.969  15.666  0.1008 -0.5574 -0.6868
17002TIP3    H272498   6.427   4.066  15.580 -0.4407 -1.1485 -0.8704
17003TIP3   OH272499   2.808   6.495   2.047 -0.2310 -0.0386 -0.0334
17003TIP3    H172500   2.877   6.444   2.005 -0.5863  0.9791 -1.9279
17003TIP3    H272501   2.819   6.584   2.013 -1.3620  0.5458  1.0474
17004TIP3   OH272502   0.680   2.140   2.711 -0.4199  0.3400 -0.0559
17004TIP3    H172503   0.760   2.194   2.708 -1.0116  1.2964  0.6717
17004TIP3    H272504   0.684   2.098   2.797 -0.4453 -0.0233 -0.2328
17005TIP3   OH272505   1.241   1.681   1.873  0.1456  0.1182 -0.2162
17005TIP3    H172506   1.190   1.762   1.867 -1.2784 -0.5539  1.5680
17005TIP3    H272507   1.218   1.632   1.794 -3.3068 -0.7863  1.1210
17006TIP3   OH272508   2.630   5.206  17.180  0.1944 -0.1666  0.5793
17006TIP3    H172509   2.572   5.154  17.236  0.2702  0.2167  1.0246
17006TIP3    H272510   2.582   5.217  17.098  0.0565 -0.6898  0.5885
17007TIP3   OH272511   4.120   4.764   1.094  0.2750  0.1810  0.7198
17007TIP3    H172512   4.053   4.752   1.027  1.8475  0.7267 -1.0321
17007TIP3    H272513   4.078   4.819   1.160 -1.3082 -0.3181  0.1654
17008TIP3   OH272514   3.544   3.828   3.149 -0.2878  0.3081  0.1841
17008TIP3    H172515   3.519   3.737   3.164 -1.2129  0.4089 -0.6031
17008TIP3    H272516   3.546   3.868   3.236  2.1116 -0.9071  0.7755
17009TIP3   OH272517   2.275   2.571  12.702 -0.1845  0.5535  0.1559
17009TIP3    H172518   2.317   2.566  12.616 -1.8979 -0.7174 -0.6586
17009TIP3    H272519   2.329   2.515  12.758 -0.5290 -0.7422 -0.7706
17010TIP3   OH272520   6.483   4.684  13.047 -0.4949 -0.5239  0.2472
17010TIP3    H172521   6.547   4.732  12.993 -0.3563 -0.1665  0.7175
17010TIP3    H272522   6.526   4.601  13.067 -1.6739 -1.9342 -2.5804
17011TIP3   OH272523   0.709   0.227   1.802 -0.1747  0.4361 -0.2932
17011TIP3    H172524   0.649   0.275   1.744 -0.6547  0.5161  0.2651
17011TIP3    H272525   0.784   0.286   1.812 -1.2157  1.5712  1.2382
17012TIP3   OH272526   2.289   6.349   0.140 -0.1410 -0.1155 -0.8897
17012TIP3    H172527   2.271   6.442   0.156  0.4264 -0.0768 -0.4323
17012TIP3    H272528   2.214   6.318   0.089 -1.5815 -0.0067  1.0325
17013TIP3   OH272529   0.845   0.583  13.638 -0.1525  0.6717  0.3075
17013TIP3    H172530   0.860   0.675  13.615  1.1814  0.2912 -0.4306
17013TIP3    H272531   0.929   0.552  13.670 -0.3532 -0.5236 -0.2577
17014TIP3   OH272532   0.875   0.762  15.722  0.7866  0.2802 -0.1430
17014TIP3    H172533   0.906   0.672  15.710  2.7283  0.5384  2.0984
17014TIP3    H272534   0.780   0.755  15.719  0.8328 -2.0850  1.0623
17015TIP3   OH272535   1.254   0.488  12.638 -0.3599  0.6170 -0.3894
17015TIP3    H172536   1.313   0.561  12.619 -0.6887  0.6575 -1.2980
17015TIP3    H272537   1.172   0.530  12.662  0.2865  0.5895  2.1055
17016TIP3   OH272538   4.329   5.135   1.616 -0.1058 -0.3402  0.0122
17016TIP3    H172539   4.365   5.128   1.705  1.6108  1.6343 -0.4598
17016TIP3    H272540   4.242   5.173   1.628 -0.0213 -0.3840  0.8533
17017TIP3   OH272541   1.414   1.657   6.583 -0.2335  0.7893  0.3492
17017TIP3    H172542   1.489   1.643   6.642  0.1533 -0.8831 -0.4977
17017TIP3    H272543   1.373   1.571   6.576 -0.1497  0.8965 -1.9810
17018TIP3   OH272544   2.971   0.328  10.474 -0.0440  0.0941 -0.0080
17018TIP3    H172545   3.034   0.260  10.449  1.4662  1.4677 -0.0371
17018TIP3    H272546   3.022   0.408  10.478 -1.4517  0.9745  1.6633
17019TIP3   OH272547   1.674   1.723  12.973 -0.0306  0.1139  0.3405
17019TIP3    H172548   1.592   1.746  13.017 -0.6734 -1.8032  0.2620
17019TIP3    H272549   1.700   1.639  13.012  0.4118 -0.6754 -1.5161
17020TIP3   OH272550   5.279   0.934  16.538 -0.1138  0.2162 -0.2581
17020TIP3    H172551   5.343   0.992  16.497  0.1222 -0.5546 -1.0139
17020TIP3    H272552   5.220   0.992  16.586  0.0233  1.0815 -1.1246
17021TIP3   OH272553   3.835   0.058  15.928  0.0596 -0.3394  0.2720
17021TIP3    H172554   3.850   0.150  15.948  2.5434 -0.4001 -0.9189
17021TIP3    H272555   3.827   0.016  16.013  4.1084  0.2862  1.1633
17022TIP3   OH272556   0.862   6.425  15.756  0.5761 -0.1157  0.2375
17022TIP3    H172557   0.779   6.466  15.731  0.3902 -1.0838 -0.8206
17022TIP3    H272558   0.841   6.332  15.765  1.6116 -0.4280 -0.4001
17023TIP3   OH272559   3.191   5.562   4.701  0.1365  0.0293  0.1876
17023TIP3    H172560   3.286   5.555   4.703  0.0394 -2.0619 -0.1820
17023TIP3    H272561   3.166   5.523   4.617 -1.2101 -3.2737  1.9639
17024TIP3   OH272562   5.482   5.531  17.191  0.0298 -0.0940 -0.0607
17024TIP3    H172563   5.535   5.591  17.138  1.7312 -1.7897 -0.3607
17024TIP3    H272564   5.541   5.499  17.258 -0.9854 -1.1027  0.3858
17025TIP3   OH272565   0.348   1.466  14.524 -0.5700  0.3678  0.2667
17025TIP3    H172566   0.346   1.556  14.556  0.9293  1.0084 -1.2757
17025TIP3    H272567   0.322   1.473  14.432  0.2303 -0.6611 -0.0615
17026TIP3   OH272568   1.305   3.427  16.011  0.6576 -0.1618 -0.1321
17026TIP3    H172569   1.283   3.399  15.922  0.4119  0.5044 -0.2841
17026TIP3    H272570   1.398   3.448  16.006  0.6073  0.0305 -0.2717
17027TIP3   OH272571   5.802   5.224  11.887 -0.6182 -0.1862 -0.4307
17027TIP3    H172572   5.743   5.157  11.851 -0.0749 -0.9295  0.0441
17027TIP3    H272573   5.888   5.182  11.889  0.2530  1.2973 -2.3534
17028TIP3   OH272574   6.217   4.439  11.896 -0.6095 -0.9265 -0.0156
17028TIP3    H172575   6.199   4.347  11.875 -0.9765 -1.0112  0.6452
17028TIP3    H272576   6.131   4.479  11.906 -0.4509 -0.4563 -0.5186
17029TIP3   OH272577   4.523   6.520   0.241  0.3290 -0.3274 -0.1230
17029TIP3    H172578   4.524   6.564   0.326 -0.3062  1.4865 -0.9945
17029TIP3    H272579   4.453   6.455   0.247  1.0234 -0.9922  1.0752
17030TIP3   OH272580   5.394   0.259  11.871  0.7306  0.1286 -0.3348
17030TIP3    H172581   5.479   0.242  11.830  0.7554 -0.2985 -0.1141
17030TIP3    H272582   5.392   0.201  11.947  0.0580 -0.1921 -0.5908
17031TIP3   OH272583   1.096   6.391   6.263  0.6653 -0.2619  0.5749
17031TIP3    H172584   1.029   6.332   6.226  0.4403  0.9489 -1.0731
17031TIP3    H272585   1.086   6.382   6.358 -1.9910  0.0148  0.4042
17032TIP3   OH272586   0.508   2.090  14.324  0.0537  0.6396  0.0881
17032TIP3    H172587   0.436   2.031  14.301  0.7688 -0.0976 -0.3239
17032TIP3    H272588   0.483   2.128  14.408 -0.2016 -0.6300  0.6038
17033TIP3   OH272589   5.346   5.102   3.278  0.4097  0.0336  0.1316
17033TIP3    H172590   5.425   5.130   3.233  0.3011 -1.2806 -0.9318
17033TIP3    H272591   5.373   5.027   3.331 -0.0992 -0.3715 -0.1726
17034TIP3   OH272592   5.827   5.194  16.690 -0.1838 -0.4039 -0.1130
17034TIP3    H172593   5.770   5.148  16.751 -1.9265  0.8281 -0.7351
17034TIP3    H272594   5.783   5.187  16.606  0.3702  0.9156 -0.5358
17035TIP3   OH272595   2.958   1.233   2.002  0.2250 -0.1913  0.3101
17035TIP3    H172596   3.029   1.266   1.947 -0.3973  0.8025  0.0909
17035TIP3    H272597   2.943   1.302   2.066 -2.8586  1.2005 -1.7286
17036TIP3   OH272598   4.146   0.441   1.442  0.2565  0.0570 -0.0525
17036TIP3    H172599   4.173   0.414   1.354  1.7394 -1.3455  0.7790
17036TIP3    H272600   4.204   0.514   1.463  0.5462 -0.2146  0.1047
17037TIP3   OH272601   0.565   3.817   1.074  0.1779  0.2630 -0.2103
17037TIP3    H172602   0.632   3.794   1.009  1.0519  0.3097  0.6548
17037TIP3    H272603   0.588   3.906   1.101 -1.2678  0.9523 -1.1564
17038TIP3   OH272604   2.427   5.929   3.359  0.2446 -0.1788 -0.0017
17038TIP3    H172605   2.412   5.839   3.385  1.0530 -0.5980 -0.9109
17038TIP3    H272606   2.402   5.931   3.266 -0.1979  0.6485  0.1251
17039TIP3   OH272607   0.434   3.293   5.124  0.3823  0.7181 -0.2413
17039TIP3    H172608   0.370   3.348   5.170 -0.2197  0.2308 -0.4812
17039TIP3    H272609   0.501   3.355   5.094 -0.1852  1.3058 -0.3358
17040TIP3   OH272610   1.126   2.551   0.174 -0.1029  0.1762  0.3561
17040TIP3    H172611   1.142   2.576   0.265 -1.1826  1.7583  0.1405
17040TIP3    H272612   1.050   2.493   0.178  0.9477 -1.2154  0.6206
17041TIP3   OH272613   5.251   4.960  13.232  0.1866  0.0424 -0.4280
17041TIP3    H172614   5.321   4.971  13.297  1.6607  0.4836 -2.0113
17041TIP3    H272615   5.261   5.036  13.174 -2.1862  0.5779 -0.2259
17042TIP3   OH272616   1.328   6.323   4.083 -0.1017 -0.3388  0.4862
17042TIP3    H172617   1.342   6.258   4.152  1.0057  0.6666  1.2438
17042TIP3    H272618   1.235   6.342   4.087 -0.0729 -0.3603  1.6582
17043TIP3   OH272619   6.411   1.092   0.824  0.5649 -0.1751 -0.2230
17043TIP3    H172620   6.416   0.997   0.810 -1.3358 -0.1462 -1.5263
17043TIP3    H272621   6.326   1.117   0.787 -1.2196  1.3490  4.2326
17044TIP3   OH272622   1.021   6.218  11.562 -0.0393 -0.1263 -0.0785
17044TIP3    H172623   1.079   6.170  11.503  0.4145 -0.4781  0.6324
17044TIP3    H272624   1.068   6.299  11.580  0.4259 -0.5733  0.7926
17045TIP3   OH272625   2.973   1.882  10.964  0.3357  0.3852  0.3778
17045TIP3    H172626   2.906   1.943  10.933  1.3885  1.4080  0.0664
17045TIP3    H272627   2.948   1.798  10.926  0.2257  1.1143 -1.2491
17046TIP3   OH272628   0.665   4.932   1.145 -0.2719  0.0508 -0.6194
17046TIP3    H172629   0.639   5.011   1.099 -0.9683  0.3281  0.2056
17046TIP3    H272630   0.649   4.861   1.083 -0.6833  0.4615 -0.9851
17047TIP3   OH272631   1.321   6.134  11.650 -0.0775 -0.0966 -0.7753
17047TIP3    H172632   1.275   6.076  11.711  1.6758 -0.3748  0.3627
17047TIP3    H272633   1.337   6.080  11.573 -0.3040 -0.4695 -0.5663
17048TIP3   OH272634   6.731   5.037  12.432  0.0067 -0.1943  0.0057
17048TIP3    H172635   6.758   4.964  12.487 -1.0785  0.2403  1.1616
17048TIP3    H272636   6.727   5.112  12.491 -0.6522  0.4047 -0.7735
17049TIP3   OH272637   5.813   2.288  10.579 -0.5923  0.1585  0.3894
17049TIP3    H172638   5.732   2.325  10.615 -1.3583 -1.6006  0.5436
17049TIP3    H272639   5.814   2.319  10.488 -0.2708  1.9873  0.9661
17050TIP3   OH272640   1.776   6.110   3.245  0.1678 -0.1168 -0.0864
17050TIP3    H172641   1.732   6.086   3.326  0.3897  0.0814  0.0961
17050TIP3    H272642   1.869   6.102   3.265  0.2194 -0.3829 -0.4210
17051TIP3   OH272643   0.779   2.277   0.889  0.1184 -0.3442 -0.5428
17051TIP3    H172644   0.751   2.304   0.801  1.4626 -1.6725 -1.4378
17051TIP3    H272645   0.712   2.311   0.947 -0.8869  0.4691 -2.1044
17052TIP3   OH272646   3.271   4.816  16.548  0.2264 -0.2033  0.2852
17052TIP3    H172647   3.238   4.902  16.523  0.7889 -0.3217 -0.9690
17052TIP3    H272648   3.310   4.829  16.634 -0.4953  0.5843  0.5038
17053TIP3   OH272649   5.259   0.693   1.082  0.4387 -0.4977 -0.3118
17053TIP3    H172650   5.342   0.645   1.079 -0.4890 -2.1289 -1.0848
17053TIP3    H272651   5.255   0.740   0.999  0.3691 -0.8189 -0.4921
17054TIP3   OH272652   1.995   2.311   4.742  0.1146  0.0037 -0.2843
17054TIP3    H172653   1.984   2.305   4.647 -0.6347 -1.3008 -0.1412
17054TIP3    H272654   2.070   2.255   4.761  0.3825  0.4135 -0.1133
17055TIP3   OH272655   0.508   1.746   3.860 -0.4964 -0.4181 -0.6217
17055TIP3    H172656   0.540   1.665   3.901 -1.6416 -1.0890 -1.0290
17055TIP3    H272657   0.586   1.801   3.853 -0.1691 -0.3943  2.1462
17056TIP3   OH272658   6.831   5.148   5.353  0.1641 -0.6594  1.0099
17056TIP3    H172659   6.887   5.104   5.416  0.0345 -1.4162  0.6049
17056TIP3    H272660   6.892   5.200   5.299  0.5607 -1.8870  0.2330
17057TIP3   OH272661   3.776   2.813   5.586  0.8247  0.4148 -0.1600
17057TIP3    H172662   3.784   2.725   5.549  2.1294  0.6359 -0.4480
17057TIP3    H272663   3.839   2.815   5.657 -1.2670  0.1827  1.8011
17058TIP3   OH272664   0.898   3.214  16.422 -0.1288 -0.2508  1.2951
17058TIP3    H172665   0.826   3.273  16.443  1.3440  1.7953  0.8919
17058TIP3    H272666   0.911   3.161  16.500 -2.2284 -0.8740  1.2638
17059TIP3   OH272667   0.929   6.804   0.821 -0.0913 -0.0232 -0.1687
17059TIP3    H172668   0.869   6.797   0.746 -0.6373  0.2192  0.2437
17059TIP3    H272669   1.016   6.794   0.782 -0.3400  0.5912 -0.9076
17060TIP3   OH272670   0.063   1.727   1.282 -0.2347 -0.2503 -0.0299
17060TIP3    H172671   0.031   1.707   1.370 -1.5144  1.5254 -0.0269
17060TIP3    H272672   0.025   1.659   1.226 -0.3952 -0.7044  0.6175
17061TIP3   OH272673   6.473   1.892  14.582  0.4239  0.7696  0.0601
17061TIP3    H172674   6.538   1.826  14.605 -0.6073 -0.3177  0.0044
17061TIP3    H272675   6.463   1.945  14.662  0.2109 -0.0829  0.6151
17062TIP3   OH272676   5.676   6.735  16.718 -0.4695 -0.1737 -0.6511
17062TIP3    H172677   5.750   6.774  16.672 -0.9915  1.2198 -0.3498
17062TIP3    H272678   5.655   6.798  16.788  0.6116 -2.4111  1.8743
17063TIP3   OH272679   4.337   2.368   0.014  0.6532 -0.5867 -0.5454
17063TIP3    H172680   4.373   2.407  -0.065 -2.1721 -0.1611 -1.7735
17063TIP3    H272681   4.328   2.441   0.075 -1.8194  0.2606 -1.7595
17064TIP3   OH272682   3.917   6.106  15.310  0.3507 -0.0627 -0.1400
17064TIP3    H172683   3.847   6.166  15.284 -0.2572 -0.9157 -0.5231
17064TIP3    H272684   3.883   6.062  15.388  1.2146  0.8015  0.7610
17065TIP3   OH272685   1.138   0.005  12.100 -0.1138  0.0717  0.5689
17065TIP3    H172686   1.203   0.005  12.029  0.6062 -1.2169  1.1864
17065TIP3    H272687   1.159   0.084  12.151  0.8347 -0.1885  0.6119
17066TIP3   OH272688   3.672   2.707   0.861 -0.0009  0.0960  0.5339
17066TIP3    H172689   3.671   2.676   0.770  2.1482  2.2984 -0.3441
17066TIP3    H272690   3.663   2.627   0.913  0.5757 -1.4658 -1.5984
17067TIP3   OH272691   3.289   0.565  14.176 -0.1274  0.1870 -0.1764
17067TIP3    H172692   3.349   0.627  14.135  1.0492  0.2390  1.4929
17067TIP3    H272693   3.302   0.578  14.270 -0.5533 -1.9006  0.2266
17068TIP3   OH272694   5.931   0.961  11.486 -0.0609  0.0726 -0.1880
17068TIP3    H172695   6.021   0.938  11.509 -0.3731 -1.2252 -0.2134
17068TIP3    H272696   5.904   0.895  11.422 -0.9685  0.5576 -0.3306
17069TIP3   OH272697   6.325   3.416  12.200  0.2998 -0.8105 -0.3106
17069TIP3    H172698   6.367   3.346  12.249 -0.6358  0.0655  1.8556
17069TIP3    H272699   6.240   3.381  12.173  0.3090 -0.8893 -0.2338
17070TIP3   OH272700   2.024   0.144   2.989  0.6220 -0.1887  0.0789
17070TIP3    H172701   2.009   0.097   2.907 -0.0888  1.6133 -0.8911
17070TIP3    H272702   2.040   0.234   2.962 -0.1467  0.5669  1.9537
17071TIP3   OH272703   4.323   2.797  15.599 -0.0645  0.2360 -0.2511
17071TIP3    H172704   4.414   2.823  15.587 -0.0640  0.7907  0.8093
17071TIP3    H272705   4.317   2.711  15.558  1.0084  0.0799 -0.1156
17072TIP3   OH272706   1.851   4.650   4.029  0.8135  0.1534  0.2408
17072TIP3    H172707   1.804   4.733   4.018  0.5127  0.6069  3.6648
17072TIP3    H272708   1.940   4.675   4.053  0.9298 -0.5120  0.5483
17073TIP3   OH272709   1.491   2.749  11.853  0.3170 -0.5761  0.2893
17073TIP3    H172710   1.562   2.687  11.837  0.1537 -0.8143  0.4832
17073TIP3    H272711   1.512   2.824  11.797  1.5648  0.0336  1.5103
17074TIP3   OH272712   3.839   3.725   5.411  0.6000  0.0445  0.2268
17074TIP3    H172713   3.883   3.640   5.417 -2.2690 -1.6610 -0.4258
17074TIP3    H272714   3.862   3.758   5.324  3.5388  1.1345  1.3246
17075TIP3   OH272715   0.119   4.359   5.254  0.0374 -0.1015 -0.6193
17075TIP3    H172716   0.044   4.419   5.262  0.4226  0.3374 -0.2672
17075TIP3    H272717   0.133   4.351   5.160  1.1578  1.8605 -0.6769
17076TIP3   OH272718   4.185   4.448  14.103 -0.6481  0.0121  0.2051
17076TIP3    H172719   4.216   4.538  14.091 -0.9724  0.2185  0.8315
17076TIP3    H272720   4.130   4.430  14.027 -0.1700  0.1616 -0.1774
17077TIP3   OH272721   4.814   5.463   3.955 -0.4560 -0.3784  0.0478
17077TIP3    H172722   4.734   5.466   3.902 -1.4931  0.3954  1.5793
17077TIP3    H272723   4.792   5.404   4.027 -0.6819  1.9091  1.9691
17078TIP3   OH272724   3.160   6.645   6.260 -0.1843 -0.4477 -0.0010
17078TIP3    H172725   3.212   6.724   6.278  0.8155 -1.4660  1.9987
17078TIP3    H272726   3.073   6.667   6.291  0.4890 -0.6291  2.2083
17079TIP3   OH272727   4.943   0.256   1.752 -0.1291 -0.3609 -0.3568
17079TIP3    H172728   4.910   0.254   1.841 -0.1482 -1.1538 -0.3695
17079TIP3    H272729   4.906   0.177   1.711  0.3760 -0.3377 -0.8784
17080TIP3   OH272730   6.001   2.165   1.280  0.2673 -0.0671  0.2234
17080TIP3    H172731   6.093   2.164   1.306  0.6377  0.1261 -1.0324
17080TIP3    H272732   5.997   2.109   1.202 -0.7005 -0.1483  0.3131
17081TIP3   OH272733   6.202   4.787   4.862 -0.3974 -0.6030  0.0961
17081TIP3    H172734   6.255   4.847   4.916 -1.6558  0.3272  0.3474
17081TIP3    H272735   6.252   4.778   4.781  1.6205 -2.1510  1.4158
17082TIP3   OH272736   6.166   5.984  15.052  0.1288  0.7168 -1.1121
17082TIP3    H172737   6.246   6.001  15.002  2.1679 -1.6778  1.0232
17082TIP3    H272738   6.099   5.965  14.986  2.1106 -0.2127 -2.9584
17083TIP3   OH272739   1.236   2.612  10.964 -0.0005 -0.1616 -0.2646
17083TIP3    H172740   1.287   2.537  10.993 -1.1285 -0.4613  1.0569
17083TIP3    H272741   1.270   2.685  11.017 -0.3472 -0.1807 -0.0165
17084TIP3   OH272742   0.352   6.451   5.591  0.3142  0.6348  0.3570
17084TIP3    H172743   0.265   6.476   5.620  0.0519  0.5042 -0.2998
17084TIP3    H272744   0.374   6.514   5.522  1.0257  1.0899  0.9814
17085TIP3   OH272745   4.596   2.458   1.122  0.3283  0.3042  0.2434
17085TIP3    H172746   4.641   2.453   1.207 -0.1775  0.9184  0.5588
17085TIP3    H272747   4.667   2.461   1.058  0.7139 -0.7099  0.6001
17086TIP3   OH272748   1.975   6.433  15.812  0.0634  0.1283  0.6050
17086TIP3    H172749   2.002   6.519  15.780  0.0309  0.8226  2.3453
17086TIP3    H272750   2.047   6.374  15.788 -0.3962  0.3549 -1.5862
17087TIP3   OH272751   3.631   4.497  15.764 -0.1961 -0.1337  0.1440
17087TIP3    H172752   3.699   4.516  15.830  0.0513 -0.6716  0.0487
17087TIP3    H272753   3.660   4.544  15.686 -0.9422  1.2249  0.6612
17088TIP3   OH272754   2.326   6.296   1.330 -0.1663 -0.0638  0.2287
17088TIP3    H172755   2.354   6.240   1.402 -1.5848 -1.9128 -0.5699
17088TIP3    H272756   2.396   6.287   1.265  0.8951  1.2566  1.1135
17089TIP3   OH272757   6.409   1.125   2.073 -0.1872  0.1424  0.7763
17089TIP3    H172758   6.341   1.141   2.138 -0.0075 -0.9686  1.2570
17089TIP3    H272759   6.401   1.199   2.011 -1.0750  0.6211  1.4385
17090TIP3   OH272760   0.250   0.688  17.117 -0.1925 -0.3372  0.0883
17090TIP3    H172761   0.337   0.726  17.128 -0.5494  0.3482  0.6284
17090TIP3    H272762   0.203   0.749  17.060  0.2239 -1.6145 -1.7148
17091TIP3   OH272763   2.644   1.629   3.917 -0.1218 -0.0599  0.1441
17091TIP3    H172764   2.653   1.665   4.005 -1.7987  0.0419  0.2922
17091TIP3    H272765   2.698   1.688   3.863  2.7382 -1.3803  1.3246
17092TIP3   OH272766   1.774   0.077   0.793 -0.2745  0.6053 -0.3919
17092TIP3    H172767   1.719   0.155   0.786 -2.6752 -0.9741 -0.5339
17092TIP3    H272768   1.774   0.056   0.886  1.2684  1.3291 -0.2019
17093TIP3   OH272769   0.048   0.043  17.035  0.4091  0.0424  0.2766
17093TIP3    H172770   0.062  -0.051  17.020 -2.3710 -0.6824  1.5541
17093TIP3    H272771   0.090   0.061  17.119 -0.4656 -0.4951  0.8443
17094TIP3   OH272772   4.720   6.174  16.835  0.9814  0.1485 -0.1682
17094TIP3    H172773   4.731   6.093  16.885  0.6996  2.0391  3.2790
17094TIP3    H272774   4.661   6.151  16.763 -0.2882 -2.3910  1.5418
17095TIP3   OH272775   3.792   6.298  17.043 -0.3238  0.3516  0.0279
17095TIP3    H172776   3.883   6.326  17.055 -0.1969 -0.2383  0.4850
17095TIP3    H272777   3.752   6.368  16.991  0.8042 -0.1369 -1.5953
17096TIP3   OH272778   6.172   0.355  12.551 -0.6033 -0.5216  0.2316
17096TIP3    H172779   6.162   0.260  12.549 -0.0891 -0.5705 -1.2780
17096TIP3    H272780   6.216   0.373  12.634  1.2452 -1.8422 -0.4005
17097TIP3   OH272781   6.506   5.926  15.370 -0.0046  0.4389 -0.1758
17097TIP3    H172782   6.547   5.912  15.284  0.9955 -0.5400  0.4344
17097TIP3    H272783   6.412   5.921  15.352  0.1908  0.1464 -1.2073
17098TIP3   OH272784   2.212   4.627   1.713  0.1613 -0.1202  0.3325
17098TIP3    H172785   2.168   4.710   1.732 -0.3896  0.1462 -1.8442
17098TIP3    H272786   2.297   4.634   1.756 -0.3736  1.0420  1.2435
17099TIP3   OH272787   5.288   1.336   3.821  0.0290 -0.0770  0.5134
17099TIP3    H172788   5.248   1.276   3.885 -0.7228 -1.4430 -1.1510
17099TIP3    H272789   5.351   1.282   3.774 -1.5523 -0.0141 -1.8799
17100TIP3   OH272790   6.171   1.355   2.118 -0.1949 -0.2917 -0.5707
17100TIP3    H172791   6.230   1.406   2.173 -0.2542 -0.1086 -0.6788
17100TIP3    H272792   6.116   1.306   2.180 -0.5544  0.2434 -0.4650
17101TIP3   OH272793   4.611   3.867   6.152  0.6015  0.7014  0.1146
17101TIP3    H172794   4.591   3.784   6.194 -2.3927  1.4384  0.4399
17101TIP3    H272795   4.701   3.886   6.177  1.2168 -2.1648  0.4112
17102TIP3   OH272796   4.358   6.235   5.951  0.1163 -0.6850  0.2005
17102TIP3    H172797   4.381   6.301   5.885 -1.3529 -0.6539 -0.3198
17102TIP3    H272798   4.372   6.151   5.907  2.2547 -0.7865  0.9531
17103TIP3   OH272799   3.308   2.193   3.500  0.4198  0.3553 -0.1205
17103TIP3    H172800   3.243   2.153   3.558  1.7183 -1.0194  0.4585
17103TIP3    H272801   3.275   2.281   3.484 -0.5831  0.3749  1.7634
17104TIP3   OH272802   6.670   6.322   0.158  0.1469 -0.0606 -0.4623
17104TIP3    H172803   6.629   6.236   0.171  0.7684 -0.3249 -0.1866
17104TIP3    H272804   6.624   6.360   0.083 -1.1427 -0.0032  0.3334
17105TIP3   OH272805   0.033   5.981  13.786  0.4273 -0.3216  0.5212
17105TIP3    H172806  -0.043   6.001  13.731  0.2081  0.4606  1.0877
17105TIP3    H272807   0.089   5.926  13.731 -0.0005  0.0602 -0.3150
17106TIP3   OH272808   2.920   0.905  10.836 -0.2852 -0.2420 -0.7186
17106TIP3    H172809   2.883   0.992  10.817  0.0353  0.0800  0.0749
17106TIP3    H272810   2.864   0.844  10.788 -1.2329  0.3100 -0.3584
17107TIP3   OH272811   1.784   5.625  17.110 -0.7993 -0.4295  0.2104
17107TIP3    H172812   1.709   5.607  17.166  0.3067 -0.2103  1.8579
17107TIP3    H272813   1.817   5.710  17.141 -0.0015 -0.4192 -0.6112
17108TIP3   OH272814   0.831   5.568  17.115  0.1643  0.3578  0.3089
17108TIP3    H172815   0.903   5.509  17.091 -1.5892 -1.8164 -0.0033
17108TIP3    H272816   0.822   5.626  17.039  0.7698 -0.2069 -0.2111
17109TIP3   OH272817   4.189   4.988  15.623  0.2490  0.2007 -0.1145
17109TIP3    H172818   4.195   4.937  15.704 -1.0938 -0.7374 -0.5725
17109TIP3    H272819   4.134   5.063  15.646  1.3424  0.8949  0.2849
17110TIP3   OH272820   1.917   1.545  14.425  0.4154 -0.6408  0.2681
17110TIP3    H172821   1.884   1.559  14.513  0.3781 -1.3477  0.3749
17110TIP3    H272822   1.839   1.527  14.372  0.2811  1.1618 -0.2192
17111TIP3   OH272823   1.334   0.276   3.096  0.0216  0.2265 -0.3848
17111TIP3    H172824   1.247   0.308   3.121 -0.1878 -2.0049  2.1585
17111TIP3    H272825   1.319   0.225   3.017 -0.8492  0.4136 -0.3464
17112TIP3   OH272826   3.878   1.887  13.417 -0.1597 -0.0695 -0.1102
17112TIP3    H172827   3.821   1.825  13.462  1.4815 -0.3635  1.6890
17112TIP3    H272828   3.967   1.857  13.437  0.7356  3.1334  1.3527
17113TIP3   OH272829   1.713   6.589   5.662 -0.1936 -0.3085 -0.3742
17113TIP3    H172830   1.787   6.608   5.720 -0.4614  2.6374 -0.8556
17113TIP3    H272831   1.663   6.522   5.709  1.1925 -0.2179  1.3507
17114TIP3   OH272832   6.095   3.130  15.955  0.3490  0.4192 -0.0043
17114TIP3    H172833   6.115   3.169  16.040  1.3527  1.5639 -0.7300
17114TIP3    H272834   6.070   3.040  15.975  0.8631  0.5798  1.4665
17115TIP3   OH272835   3.628   1.595  11.110 -0.3451 -0.0550  0.3680
17115TIP3    H172836   3.645   1.589  11.016 -0.5479 -1.6849  0.4032
17115TIP3    H272837   3.658   1.683  11.135  1.3666 -0.2495 -0.8730
17116TIP3   OH272838   6.787   2.120  11.972 -0.4520 -0.3028  0.0750
17116TIP3    H172839   6.844   2.106  11.897 -0.2108 -1.5476  0.4610
17116TIP3    H272840   6.703   2.145  11.935 -0.3153 -0.8457 -0.6159
17117TIP3   OH272841   0.992   0.936   3.349  0.0504  0.0448 -0.1771
17117TIP3    H172842   1.015   0.974   3.264 -0.3935  1.2603  0.2121
17117TIP3    H272843   0.899   0.912   3.340  0.3770 -1.1568 -0.4784
17118TIP3   OH272844   3.202   1.903   0.486 -0.2158  0.3903  0.0149
17118TIP3    H172845   3.244   1.852   0.417  2.1579 -1.1858  2.4346
17118TIP3    H272846   3.152   1.839   0.537 -0.3968  1.1461  0.8260
17119TIP3   OH272847   1.734   0.165  14.972 -1.2448  0.2357  0.3677
17119TIP3    H172848   1.673   0.140  14.902 -1.3629 -1.5778  1.0680
17119TIP3    H272849   1.688   0.143  15.053  1.0955 -3.6456  0.9460
17120TIP3   OH272850   5.530   3.261   3.015  0.0713 -0.3659  0.0910
17120TIP3    H172851   5.561   3.256   2.924  0.8947 -1.0452  0.3959
17120TIP3    H272852   5.497   3.350   3.024 -0.1005 -0.3117 -0.8947
17121TIP3   OH272853   5.675   3.647   6.582 -0.4234  0.8062 -0.4653
17121TIP3    H172854   5.725   3.574   6.544 -2.2505 -0.1008 -1.2535
17121TIP3    H272855   5.741   3.714   6.600  1.3702 -1.0873  0.4879
17122TIP3   OH272856   5.114   1.457  15.536  0.0323  0.3817 -0.3234
17122TIP3    H172857   5.096   1.515  15.462  2.6440 -0.6982 -1.9515
17122TIP3    H272858   5.028   1.428  15.565 -1.2158  3.0329 -1.0800
17123TIP3   OH272859   4.014   3.431   1.833 -0.1333  0.2664  0.2307
17123TIP3    H172860   3.972   3.367   1.890 -0.2957 -0.7693 -1.0254
17123TIP3    H272861   4.046   3.498   1.893 -0.5410 -0.6482  1.5152
17124TIP3   OH272862   4.669   2.921   5.326 -0.1352 -0.3832  0.9671
17124TIP3    H172863   4.748   2.951   5.281  0.1256 -0.3175  1.4651
17124TIP3    H272864   4.681   2.948   5.417 -0.7549 -0.3262  1.0388
17125TIP3   OH272865   3.839   4.464  12.658  0.0756 -0.0565  0.0816
17125TIP3    H172866   3.869   4.547  12.696 -0.3057  0.2422 -0.2662
17125TIP3    H272867   3.795   4.489  12.577 -1.4598 -0.4383  0.7671
17126TIP3   OH272868   5.082   2.062  16.156 -0.7269  0.2192 -0.3030
17126TIP3    H172869   5.052   2.043  16.067 -1.8090 -0.0992  0.1151
17126TIP3    H272870   5.036   2.143  16.180 -0.8645  0.0032  0.1651
17127TIP3   OH272871   2.262   0.062  15.571  0.4294 -0.2659 -0.6583
17127TIP3    H172872   2.195   0.117  15.613  1.0050 -0.0493 -0.0009
17127TIP3    H272873   2.344   0.110  15.583  0.3934  0.8249 -3.8349
17128TIP3   OH272874   3.985   0.529   2.366 -0.2502  0.3257  0.3136
17128TIP3    H172875   4.040   0.606   2.353  0.8555 -0.5985 -0.7691
17128TIP3    H272876   4.020   0.464   2.304 -2.0702 -0.5694  0.1687
17129TIP3   OH272877   5.890   4.665  14.535 -0.0712 -0.1388  0.6245
17129TIP3    H172878   5.885   4.689  14.442 -0.0782 -2.1750  0.0466
17129TIP3    H272879   5.891   4.749  14.581 -0.5848  0.9250 -1.1763
17130TIP3   OH272880   5.347   4.174   5.356 -0.6183 -0.5876 -0.0704
17130TIP3    H172881   5.312   4.149   5.441 -1.6632  0.9069 -0.0287
17130TIP3    H272882   5.416   4.237   5.375 -0.1416 -1.0264 -0.3037
17131TIP3   OH272883   5.889   4.024  16.954 -0.1672 -0.0681  0.1491
17131TIP3    H172884   5.946   4.081  17.006 -0.7179 -1.2992  2.1955
17131TIP3    H272885   5.929   4.023  16.867  2.4404 -0.2123  1.2848
17132TIP3   OH272886   3.670   5.635  16.424 -0.1439  0.1824 -0.8845
17132TIP3    H172887   3.724   5.692  16.368 -1.7550  1.2640 -1.4003
17132TIP3    H272888   3.703   5.650  16.512 -0.5363  1.9692 -1.0022
17133TIP3   OH272889   3.343   2.946   6.645 -0.2973  0.4146  0.1317
17133TIP3    H172890   3.321   2.873   6.587  0.1805 -1.0276  1.6792
17133TIP3    H272891   3.423   2.917   6.689  0.2534  2.1643  0.3473
17134TIP3   OH272892   4.517   6.723   2.362 -0.0094  0.5465 -1.0160
17134TIP3    H172893   4.558   6.789   2.417  2.4576 -1.8895  0.3254
17134TIP3    H272894   4.483   6.658   2.424  0.2787 -0.8656 -2.2833
17135TIP3   OH272895   3.768   4.145   3.647 -0.1461  0.4874 -0.4945
17135TIP3    H172896   3.852   4.162   3.605 -0.7503  2.7494 -0.9244
17135TIP3    H272897   3.782   4.172   3.739  0.2150 -1.2901  0.0018
17136TIP3   OH272898   2.249   0.045   3.115 -0.4679  0.8830 -0.2232
17136TIP3    H172899   2.191   0.102   3.064 -0.0939 -0.5193 -2.3691
17136TIP3    H272900   2.332   0.046   3.067  0.4850  0.7963  1.3369
17137TIP3   OH272901   1.408   3.810  14.945  0.4502 -0.1834  0.3083
17137TIP3    H172902   1.486   3.803  14.999  1.2608  0.1139 -0.7850
17137TIP3    H272903   1.440   3.842  14.860 -0.9157  0.4267 -0.0096
17138TIP3   OH272904   2.965   0.480  13.111  0.0805 -0.0024 -0.6541
17138TIP3    H172905   2.896   0.516  13.055  0.6995  0.0121 -1.4153
17138TIP3    H272906   2.953   0.385  13.106 -0.9025  0.0275  0.5334
17139TIP3   OH272907   6.123   5.244   5.253  0.0121  0.0616  0.6201
17139TIP3    H172908   6.173   5.227   5.173 -0.7847  0.7303 -0.0371
17139TIP3    H272909   6.032   5.252   5.223 -0.3820 -0.2566  1.6731
17140TIP3   OH272910   1.826   5.638  15.056 -0.3147  0.2119 -0.0587
17140TIP3    H172911   1.800   5.560  15.105 -3.0240  0.9254 -0.2271
17140TIP3    H272912   1.856   5.604  14.972  2.8641 -0.8936  1.3565
17141TIP3   OH272913   3.049   2.452   3.847 -0.0516  0.0735  0.3532
17141TIP3    H172914   3.050   2.359   3.829 -0.5970  0.3333 -1.1014
17141TIP3    H272915   2.977   2.464   3.909  0.8431 -0.6153  1.5822
17142TIP3   OH272916   6.317   1.051   0.483 -0.1304 -0.2167 -0.2846
17142TIP3    H172917   6.383   1.119   0.493 -1.2623  0.6537  1.8553
17142TIP3    H272918   6.247   1.075   0.544 -0.7279 -3.1112  0.3579
17143TIP3   OH272919   5.501   0.503  16.800  0.4603 -0.3718  0.2606
17143TIP3    H172920   5.439   0.431  16.788 -0.4669  0.6153 -1.2466
17143TIP3    H272921   5.586   0.467  16.774  0.0506 -0.9886 -0.2704
17144TIP3   OH272922   3.175   0.310   1.871  0.3549  0.1709  0.0757
17144TIP3    H172923   3.115   0.373   1.910  2.8300  2.3225  0.7167
17144TIP3    H272924   3.214   0.357   1.797 -1.1265 -2.3496 -2.4983
17145TIP3   OH272925   1.708   0.114  11.062  0.2524 -0.1090  0.0790
17145TIP3    H172926   1.737   0.044  11.120  0.8269 -1.2936 -1.5479
17145TIP3    H272927   1.629   0.080  11.020  0.8278 -0.0239 -1.1186
17146TIP3   OH272928   3.194   3.554  13.851 -0.4019 -0.4342  0.8406
17146TIP3    H172929   3.136   3.621  13.816 -1.1386 -1.4335  0.0792
17146TIP3    H272930   3.282   3.589  13.838 -0.7629  0.2515  0.1744
17147TIP3   OH272931   6.055   1.894  16.695  0.3862 -0.7712 -0.7127
17147TIP3    H172932   6.050   1.842  16.775 -1.0438  0.8237  0.2970
17147TIP3    H272933   6.071   1.829  16.626  1.3139 -2.2287  0.7779
17148TIP3   OH272934   0.582   5.751   3.175  0.1547 -0.3224  0.0421
17148TIP3    H172935   0.511   5.816   3.179  0.6684  0.3006 -0.7493
17148TIP3    H272936   0.600   5.741   3.082  0.3314 -1.3426  0.1836
17149TIP3   OH272937   4.312   0.496   1.244 -0.1030  0.9065  0.2704
17149TIP3    H172938   4.356   0.579   1.259  1.3945  0.0774  0.6997
17149TIP3    H272939   4.383   0.431   1.242 -1.3302 -0.5550  1.4470
17150TIP3   OH272940   5.339   2.606   3.816  0.1073 -0.3682 -0.4170
17150TIP3    H172941   5.433   2.609   3.831  0.1359 -1.3925 -0.3279
17150TIP3    H272942   5.326   2.653   3.733  0.5987  0.4243 -0.0568
17151TIP3   OH272943   5.734   5.369   3.032 -0.6356 -0.5449  0.4960
17151TIP3    H172944   5.777   5.309   2.971 -0.9211  0.1574 -0.4163
17151TIP3    H272945   5.795   5.442   3.041 -0.2239 -1.0134  1.7154
17152TIP3   OH272946   4.703   4.267   0.180  0.2346 -0.3035 -0.0919
17152TIP3    H172947   4.662   4.180   0.179 -0.4551 -0.0313 -2.7487
17152TIP3    H272948   4.793   4.251   0.153  1.1423 -0.5209  2.7488
17153TIP3   OH272949   1.591   2.562   0.649 -0.5212  0.6808 -0.3156
17153TIP3    H172950   1.666   2.507   0.671 -0.8310  0.3593 -0.0554
17153TIP3    H272951   1.618   2.650   0.673  0.3950  0.8188 -1.7324
17154TIP3   OH272952   1.798   0.441  16.244 -0.3597  0.1086 -0.1443
17154TIP3    H172953   1.834   0.363  16.202  0.7116  0.6392 -0.2570
17154TIP3    H272954   1.742   0.480  16.177  1.2592  0.8940 -1.1190
17155TIP3   OH272955   1.511   5.789  11.884 -0.5833 -0.4097  0.3410
17155TIP3    H172956   1.506   5.695  11.864  2.1937 -0.7911  1.0662
17155TIP3    H272957   1.491   5.794  11.977  1.4695 -0.6327  0.8366
17156TIP3   OH272958   6.650   4.744  15.179 -0.0680 -0.0299 -0.5171
17156TIP3    H172959   6.660   4.705  15.093  1.4198 -1.8608  0.4312
17156TIP3    H272960   6.617   4.832  15.161  0.5566 -0.2181 -2.9622
17157TIP3   OH272961   0.636   3.225   5.364  0.0648 -0.2027 -0.2672
17157TIP3    H172962   0.633   3.316   5.394  4.3689  0.8081 -2.0439
17157TIP3    H272963   0.606   3.229   5.273  1.3976 -0.2198 -0.7380
17158TIP3   OH272964   3.421   0.571   0.975 -0.3003  0.4896 -0.5027
17158TIP3    H172965   3.437   0.485   1.012  2.4755  0.5960 -1.2741
17158TIP3    H272966   3.363   0.555   0.901 -0.7177 -0.5259  0.0239
17159TIP3   OH272967   2.568   4.656  10.593  0.0388 -0.2383  0.2873
17159TIP3    H172968   2.518   4.584  10.554  1.2410 -0.5726 -0.7068
17159TIP3    H272969   2.535   4.735  10.551 -0.1818 -0.3732  0.2053
17160TIP3   OH272970   1.987   6.342   5.588  0.1597  0.4249 -0.2664
17160TIP3    H172971   1.990   6.259   5.540 -0.3156  0.7768 -0.9367
17160TIP3    H272972   2.076   6.355   5.620  0.4879  0.1686 -1.0500
17161TIP3   OH272973   1.400   5.251   4.324  0.5154 -0.2787 -0.0113
17161TIP3    H172974   1.380   5.321   4.262  0.3956 -1.0827 -0.9032
17161TIP3    H272975   1.378   5.288   4.410 -1.3954  0.1299 -0.6349
17162TIP3   OH272976   5.517   4.817   0.641  0.2454 -0.1083 -0.0262
17162TIP3    H172977   5.476   4.837   0.725  3.0843  1.3943  1.1079
17162TIP3    H272978   5.524   4.902   0.597  0.5061 -0.6063 -0.9688
17163TIP3   OH272979   5.799   3.744  14.843  0.4223 -0.1339  1.0458
17163TIP3    H172980   5.820   3.652  14.861  1.3132  0.0108  0.8229
17163TIP3    H272981   5.855   3.794  14.903 -1.7436  0.2762  2.8703
17164TIP3   OH272982   3.486   1.294  15.717 -0.0267 -0.4034  0.2478
17164TIP3    H172983   3.496   1.369  15.775  0.8016 -2.0848  2.4521
17164TIP3    H272984   3.574   1.279  15.682 -0.3948  0.2162 -0.9981
17165TIP3   OH272985   1.303   3.356  10.751 -0.0864  0.5162 -0.0684
17165TIP3    H172986   1.369   3.292  10.777  1.6985  1.9087 -0.8648
17165TIP3    H272987   1.247   3.310  10.689  1.3002 -0.2499 -0.8107
17166TIP3   OH272988   3.262   0.082   1.716 -0.1071 -0.4064  0.2866
17166TIP3    H172989   3.353   0.110   1.706 -0.6430  1.0413 -0.8532
17166TIP3    H272990   3.228   0.134   1.789  0.2196 -1.6990  1.4184
17167TIP3   OH272991   2.373   4.341   0.215  0.2731  0.1510  0.0289
17167TIP3    H172992   2.336   4.257   0.189  0.2989 -0.3630  1.5629
17167TIP3    H272993   2.416   4.324   0.299  2.8741  1.0195 -1.0076
17168TIP3   OH272994   0.755   4.015  12.686 -0.2201  0.0492 -0.1071
17168TIP3    H172995   0.840   4.019  12.642 -0.8526 -0.5185 -1.4278
17168TIP3    H272996   0.777   4.020  12.779  1.1536  1.4734 -0.4471
17169TIP3   OH272997   5.208   6.718  17.154 -0.0193  0.4466 -0.1817
17169TIP3    H172998   5.236   6.808  17.137  2.2265  0.1743  1.5770
17169TIP3    H272999   5.278   6.664  17.116 -0.2977 -0.4668  0.5877
17170TIP3   OH273000   0.675   6.652   0.817 -0.3328 -0.1115  0.5669
17170TIP3    H173001   0.659   6.706   0.895 -0.1496 -1.4957  1.6062
17170TIP3    H273002   0.608   6.584   0.822 -0.0570 -0.4537 -0.2757
17171TIP3   OH273003   5.866   6.577   4.988  0.3756 -0.0598 -0.2055
17171TIP3    H173004   5.813   6.602   5.064  0.5585  1.0849 -0.4475
17171TIP3    H273005   5.936   6.641   4.985 -1.1392  1.6683 -2.9395
17172TIP3   OH273006   6.779   5.511  12.447 -0.1165 -0.1777  0.3990
17172TIP3    H173007   6.853   5.478  12.498  0.7460  1.4512  0.2992
17172TIP3    H273008   6.746   5.585  12.498 -0.7499  0.0105 -0.2705
17173TIP3   OH273009   3.787   0.625   4.279  0.2677  0.0720  0.8674
17173TIP3    H173010   3.869   0.674   4.280  0.6150 -0.4707 -0.0452
17173TIP3    H273011   3.740   0.657   4.202 -1.1759  1.6064  2.2956
17174TIP3   OH273012   1.880   3.819  14.254 -0.8422  0.6485 -0.2683
17174TIP3    H173013   1.895   3.894  14.311 -0.9848 -0.3845  1.1927
17174TIP3    H273014   1.795   3.837  14.212 -0.9952  1.1777  0.2608
17175TIP3   OH273015   0.502   1.353   0.878 -0.2598 -0.1685 -0.0418
17175TIP3    H173016   0.573   1.386   0.933 -0.2518 -0.5739  0.1942
17175TIP3    H273017   0.423   1.393   0.913 -0.5010 -1.8062  1.4423
17176TIP3   OH273018   6.619   5.909   2.552  0.5175 -0.5852 -0.6328
17176TIP3    H173019   6.637   5.949   2.467  0.6471  0.4440 -0.1363
17176TIP3    H273020   6.534   5.865   2.540 -0.0457  0.5510 -0.9644
17177TIP3   OH273021   4.008   6.762   2.223 -0.2098 -0.5911  0.5380
17177TIP3    H173022   4.016   6.833   2.287 -0.1824  1.3713 -1.5111
17177TIP3    H273023   3.925   6.778   2.179  0.8920 -0.3804 -1.5706
17178TIP3   OH273024   4.945   1.670  13.173  0.3963 -0.1260  0.0086
17178TIP3    H173025   4.851   1.667  13.191  0.1525 -2.1501 -1.2192
17178TIP3    H273026   4.959   1.756  13.133 -1.0526 -0.0256 -0.3376
17179TIP3   OH273027   5.464   4.028  12.427 -0.2655 -0.3276 -0.3414
17179TIP3    H173028   5.376   4.067  12.421 -0.2684 -0.3008 -0.1291
17179TIP3    H273029   5.500   4.063  12.508 -0.1537 -0.5371 -0.3003
17180TIP3   OH273030   2.863   1.386  16.572 -0.6673 -0.0242 -0.3642
17180TIP3    H173031   2.909   1.467  16.592 -1.7339  0.0223  2.3361
17180TIP3    H273032   2.909   1.350  16.496  0.0758  2.8740 -1.4280
17181TIP3   OH273033   3.361   2.530   6.016 -0.5763  0.1469  0.1976
17181TIP3    H173034   3.358   2.561   6.106 -1.2665 -1.1327  0.6410
17181TIP3    H273035   3.278   2.484   6.004 -0.1944 -0.2962 -0.8661
17182TIP3   OH273036   0.882   1.391   5.820 -0.0249  0.0196 -0.5080
17182TIP3    H173037   0.962   1.371   5.771 -1.2727  0.8783 -3.1069
17182TIP3    H273038   0.820   1.324   5.791 -0.7970  0.5374 -0.0715
17183TIP3   OH273039   1.621   1.273   4.021 -0.1811  0.4257  1.2747
17183TIP3    H173040   1.708   1.245   4.049  0.2504  0.1862 -0.2357
17183TIP3    H273041   1.636   1.351   3.967 -0.6979 -0.6230 -0.4727
17184TIP3   OH273042   6.822   1.678   5.644 -0.3652 -0.0074  0.6635
17184TIP3    H173043   6.855   1.765   5.622 -0.0369 -0.3058 -0.0243
17184TIP3    H273044   6.845   1.667   5.736 -0.2700  0.5693  0.7146
17185TIP3   OH273045   6.481   2.328   0.197 -0.0579  0.1352 -0.3150
17185TIP3    H173046   6.476   2.268   0.122 -2.2437 -0.1212 -0.0198
17185TIP3    H273047   6.457   2.413   0.161 -1.9048 -0.1280  0.1704
17186TIP3   OH273048   4.375   5.302  15.415  0.6665 -0.0177 -0.2919
17186TIP3    H173049   4.441   5.233  15.419 -0.6744 -1.3103  0.4464
17186TIP3    H273050   4.425   5.383  15.417  2.2240 -0.9531  0.5135
17187TIP3   OH273051   1.095   0.867   2.724 -0.1348  0.3954  0.6711
17187TIP3    H173052   1.003   0.890   2.709 -0.9283 -1.4997  2.1947
17187TIP3    H273053   1.093   0.774   2.745  2.2974  0.0517 -0.3276
17188TIP3   OH273054   0.943   5.877  17.098 -0.3785 -0.0307  0.0013
17188TIP3    H173055   1.015   5.815  17.109  0.0316  0.5135  0.4183
17188TIP3    H273056   0.977   5.943  17.037  0.1261  1.1834  1.5389
17189TIP3   OH273057   4.116   0.282   5.333 -0.2499 -0.2186  0.1811
17189TIP3    H173058   4.030   0.306   5.366 -1.0579  0.9163 -2.4716
17189TIP3    H273059   4.136   0.349   5.268  2.2930 -0.9242  0.1244
17190TIP3   OH273060   1.144   4.989  11.784 -0.1071  0.0134  0.2239
17190TIP3    H173061   1.164   4.956  11.696 -0.1547 -0.1351  0.2680
17190TIP3    H273062   1.065   4.942  11.810 -0.6047  0.7005 -0.0078
17191TIP3   OH273063   4.542   6.515  17.044 -0.0537  0.0487 -0.1464
17191TIP3    H173064   4.453   6.532  17.013  0.2457  0.3798 -0.8330
17191TIP3    H273065   4.563   6.590  17.099 -0.7313 -0.7246  1.2310
17192TIP3   OH273066   2.910   2.136  13.889  0.4836  0.2203  0.2760
17192TIP3    H173067   2.867   2.179  13.963  0.8914  0.7059  0.2331
17192TIP3    H273068   2.929   2.047  13.920 -2.1746 -0.6431 -0.3074
17193TIP3   OH273069   1.080   5.249   1.634 -0.1013  0.2097 -0.0906
17193TIP3    H173070   1.165   5.293   1.633 -0.6805  1.3574  0.5982
17193TIP3    H273071   1.102   5.156   1.622  1.3144  0.3672  1.0249
17194TIP3   OH273072   1.374   2.195  13.323  0.0794 -0.2487  0.1976
17194TIP3    H173073   1.308   2.251  13.282 -3.0373 -2.3538  1.9442
17194TIP3    H273074   1.421   2.155  13.249 -1.7464  0.0709 -1.2093
17195TIP3   OH273075   2.861   4.297  16.317  0.3352 -0.6515 -0.0447
17195TIP3    H173076   2.823   4.381  16.293 -3.3531 -1.2607  2.7367
17195TIP3    H273077   2.926   4.318  16.383  0.1892  0.0803 -0.1232
17196TIP3   OH273078   6.601   2.414   3.116 -0.1669 -0.1687 -0.5489
17196TIP3    H173079   6.625   2.485   3.056 -3.1904  1.2860 -0.1904
17196TIP3    H273080   6.645   2.437   3.198  0.7147  0.0117 -1.0548
17197TIP3   OH273081   6.453   0.438   1.095 -0.1519 -0.1119  0.3221
17197TIP3    H173082   6.490   0.517   1.055 -1.5461  0.5119  0.1821
17197TIP3    H273083   6.500   0.366   1.054  0.6209  0.6256 -0.1222
17198TIP3   OH273084   5.750   2.043   0.084  0.6428  0.0477  0.2931
17198TIP3    H173085   5.659   2.072   0.091  0.9386  0.9134  0.6018
17198TIP3    H273086   5.772   2.012   0.171 -0.4681 -3.6448 -0.5586
17199TIP3   OH273087   0.847   5.447   6.460  0.4272  0.3403  0.0524
17199TIP3    H173088   0.782   5.403   6.405 -1.1637  0.8877  1.3998
17199TIP3    H273089   0.930   5.408   6.435 -0.4370 -0.5549 -1.5857
17200TIP3   OH273090   4.846   2.319   2.614 -0.9627  0.2477 -0.1054
17200TIP3    H173091   4.776   2.327   2.549  0.5947 -0.6818 -2.0124
17200TIP3    H273092   4.850   2.225   2.634  0.2325  0.1526 -0.6641
17201TIP3   OH273093   4.382   2.140  15.660  0.0136  0.3490  0.9995
17201TIP3    H173094   4.407   2.048  15.650 -1.8122 -0.2387  1.5405
17201TIP3    H273095   4.401   2.159  15.752 -0.1055  0.3618  1.0210
17202TIP3   OH273096   5.293   0.039   0.801  0.2347  0.1597  0.0313
17202TIP3    H173097   5.355   0.001   0.863  0.2097 -0.1252 -0.1177
17202TIP3    H273098   5.347   0.088   0.740  0.4201 -0.9341 -0.7151
17203TIP3   OH273099   4.493   0.586  10.550 -0.4684  0.0705 -0.7941
17203TIP3    H173100   4.584   0.606  10.527 -0.0900  1.9229  1.8803
17203TIP3    H273101   4.494   0.494  10.574  0.5936 -0.0457 -1.2352
17204TIP3   OH273102   0.378   5.018  16.167  0.4066  0.0349 -0.8340
17204TIP3    H173103   0.372   4.923  16.177  2.7595  0.0240  1.6333
17204TIP3    H273104   0.458   5.032  16.118  0.5325  0.7579 -0.4331
17205TIP3   OH273105   5.664   2.878   5.483 -0.1457 -0.5249  0.2977
17205TIP3    H173106   5.651   2.784   5.495  4.0299 -1.2425  0.9062
17205TIP3    H273107   5.635   2.895   5.394 -0.4067 -2.5479 -0.0484
17206TIP3   OH273108   2.675   1.227   4.857  0.3044  0.5658  0.4538
17206TIP3    H173109   2.684   1.242   4.951 -0.8955  1.0114  0.5152
17206TIP3    H273110   2.643   1.137   4.850 -0.9122  0.9757  0.5593
17207TIP3   OH273111   2.372   3.160  13.476  0.4399 -0.1261  0.4957
17207TIP3    H173112   2.366   3.149  13.571  1.7942  2.7636  1.0131
17207TIP3    H273113   2.458   3.126  13.453  0.4902  0.0264  0.4562
17208TIP3   OH273114   2.594   0.113  13.742 -0.8706 -0.2448  0.5695
17208TIP3    H173115   2.679   0.070  13.740 -0.1073  1.1919  0.5803
17208TIP3    H273116   2.615   0.207  13.740 -2.4822  0.2148 -2.8043
17209TIP3   OH273117   0.153   1.206   1.994  0.6075 -0.0057  0.1402
17209TIP3    H173118   0.058   1.207   2.006  0.1698 -1.2727 -2.4208
17209TIP3    H273119   0.173   1.291   1.955  0.2017 -0.3821 -0.9423
17210TIP3   OH273120   1.490   6.578   3.576  0.7864 -0.3282 -0.5839
17210TIP3    H173121   1.513   6.513   3.510  0.9298  0.1955 -1.0604
17210TIP3    H273122   1.535   6.658   3.548  1.5396 -0.3014  0.6005
17211TIP3   OH273123   4.562   0.092   2.552 -0.5519  0.0373 -0.3617
17211TIP3    H173124   4.586   0.184   2.554  1.5118 -0.4333 -1.1957
17211TIP3    H273125   4.582   0.060   2.640 -2.3880  0.5952  0.3018
17212TIP3   OH273126   3.314   6.758  17.108 -0.2898 -0.5072  0.2611
17212TIP3    H173127   3.301   6.821  17.179  0.7754  0.2913 -0.2307
17212TIP3    H273128   3.360   6.685  17.149  0.7757  0.1685  0.3153
17213TIP3   OH273129   1.990   1.600  15.387 -0.0938  0.3822  0.5888
17213TIP3    H173130   2.062   1.628  15.444  0.5300  0.9154 -0.4239
17213TIP3    H273131   1.937   1.678  15.375 -0.8301 -0.0008  1.2951
17214TIP3   OH273132   3.749   4.903   2.069 -0.1037  0.2858  0.1240
17214TIP3    H173133   3.716   4.816   2.092  0.8647  0.2013  1.3084
17214TIP3    H273134   3.671   4.952   2.043 -1.0877 -0.1452  2.0321
17215TIP3   OH273135   4.153   0.164  12.258 -0.7563 -0.2933  0.2618
17215TIP3    H173136   4.223   0.115  12.302  0.7272  0.7224 -0.8400
17215TIP3    H273137   4.077   0.107  12.262 -0.2931 -0.8559  2.7756
17216TIP3   OH273138   2.768   5.587  14.669  0.0304  0.4362  0.2971
17216TIP3    H173139   2.764   5.502  14.713  0.2273  1.1048  1.6472
17216TIP3    H273140   2.752   5.567  14.577 -0.5789 -0.9865  0.6848
17217TIP3   OH273141   1.071   0.835   3.831 -0.4578  0.3226 -0.4654
17217TIP3    H173142   1.166   0.821   3.832 -0.1792  1.6619 -2.2836
17217TIP3    H273143   1.037   0.762   3.778 -0.5232 -0.4214  0.5768
17218TIP3   OH273144   0.317   3.213   2.824 -0.0423 -0.0224 -0.6136
17218TIP3    H173145   0.370   3.152   2.875 -2.2968 -2.0140 -0.4239
17218TIP3    H273146   0.375   3.243   2.754  1.2801 -2.2942 -0.6030
17219TIP3   OH273147   6.766   6.273   1.646 -0.2475 -0.2211  0.2600
17219TIP3    H173148   6.699   6.341   1.657 -0.2792 -0.1110 -0.5678
17219TIP3    H273149   6.721   6.192   1.669 -0.7424 -0.1725 -0.5030
17220TIP3   OH273150   4.143   3.101  13.436  0.3479  0.1294 -0.0101
17220TIP3    H173151   4.216   3.161  13.424  0.7249 -0.1553  0.8090
17220TIP3    H273152   4.093   3.108  13.354  1.1644  0.4872 -0.4936
17221TIP3   OH273153   6.409   0.955   4.383 -0.8923 -0.0921 -0.8335
17221TIP3    H173154   6.420   0.975   4.476  1.5916 -1.6814 -0.6902
17221TIP3    H273155   6.417   1.040   4.339  2.7846  0.2120  0.1418
17222TIP3   OH273156   0.095   2.135  14.282  0.0081 -0.4240 -0.5902
17222TIP3    H173157   0.021   2.078  14.302  0.2250 -0.0799  1.3926
17222TIP3    H273158   0.172   2.079  14.294  0.1163 -0.5028 -1.6087
17223TIP3   OH273159   4.495   2.383  13.278 -0.0097  0.7814 -0.0724
17223TIP3    H173160   4.502   2.288  13.270 -0.9980  0.7228 -0.3753
17223TIP3    H273161   4.585   2.414  13.265  0.3343 -0.1061  0.0715
17224TIP3   OH273162   2.333   6.598  13.257  0.1242  0.0873  0.1055
17224TIP3    H173163   2.296   6.608  13.345  1.2897  2.8713  0.3706
17224TIP3    H273164   2.256   6.588  13.201 -0.7479  0.0849  1.2496
17225TIP3   OH273165   1.019   5.938   4.923 -0.2324 -0.1845  0.1523
17225TIP3    H173166   0.971   6.017   4.948  1.8287  1.3570 -0.4610
17225TIP3    H273167   1.097   5.939   4.979  1.5282  0.1542 -2.1256
17226TIP3   OH273168   4.876   6.543  11.238 -0.2526 -0.3584  0.7692
17226TIP3    H173169   4.793   6.583  11.264 -0.0481  0.0383  0.8132
17226TIP3    H273170   4.850   6.463  11.191 -0.6880  0.1871  0.0491
17227TIP3   OH273171   1.377   3.132  14.084  0.0181  0.0436 -0.3710
17227TIP3    H173172   1.380   3.148  13.989 -1.7533  1.3305 -0.2837
17227TIP3    H273173   1.287   3.155  14.108  0.9797  1.7345  1.9505
17228TIP3   OH273174   1.108   4.868  10.829  0.0043  0.2694  0.1078
17228TIP3    H173175   1.060   4.838  10.752  0.3427 -1.3978  0.4965
17228TIP3    H273176   1.163   4.940  10.797  0.0243 -0.2889 -1.1707
17229TIP3   OH273177   5.343   4.129   2.628  0.0760 -0.3576  0.2138
17229TIP3    H173178   5.299   4.213   2.642 -0.9255 -1.0586  1.5266
17229TIP3    H273179   5.421   4.132   2.684 -0.4532 -0.6383  0.9828
17230TIP3   OH273180   4.816   6.045   4.219  0.4526  0.0721 -0.1255
17230TIP3    H173181   4.899   6.021   4.178 -0.6602 -0.0229 -2.5378
17230TIP3    H273182   4.774   6.104   4.155  0.4724  3.7340  2.8663
17231TIP3   OH273183   4.930   0.553  13.102  0.3493 -0.8142  0.0217
17231TIP3    H173184   4.910   0.593  13.018  2.7113 -1.4135 -0.8959
17231TIP3    H273185   4.939   0.627  13.163 -0.9728 -0.3559 -0.3069
17232TIP3   OH273186   2.955   3.888   3.662 -0.0878 -0.2149  0.5055
17232TIP3    H173187   2.957   3.938   3.580  0.2706 -2.4163 -0.9119
17232TIP3    H273188   3.041   3.846   3.666 -0.3851 -0.7497  1.6133
17233TIP3   OH273189   2.995   6.672   6.577 -0.0069 -0.0621  0.7250
17233TIP3    H173190   3.023   6.760   6.603 -2.0471  0.7106  0.4419
17233TIP3    H273191   2.941   6.685   6.499 -2.5045 -1.2161  2.1333
17234TIP3   OH273192   1.097   6.479  12.764  0.0241 -0.1940 -0.8656
17234TIP3    H173193   1.177   6.459  12.716 -0.6703 -0.8193 -1.7949
17234TIP3    H273194   1.031   6.495  12.695 -1.0504 -1.3222 -0.1368
17235TIP3   OH273195   3.226   2.889   4.494 -0.1683  0.6472  0.3512
17235TIP3    H173196   3.171   2.942   4.436 -1.1112  0.0296  0.6603
17235TIP3    H273197   3.242   2.809   4.445 -0.4343  0.3862  0.6878
17236TIP3   OH273198   2.151   1.185  13.406 -0.1972  0.0560 -0.6364
17236TIP3    H173199   2.210   1.176  13.330  0.0948 -1.7680 -0.2498
17236TIP3    H273200   2.067   1.152  13.375  0.3851 -2.5163  0.2892
17237TIP3   OH273201   5.422   3.744  16.138  0.4698 -0.0202  0.0555
17237TIP3    H173202   5.349   3.758  16.198 -0.7316 -0.8020 -1.1700
17237TIP3    H273203   5.452   3.655  16.157  0.6330  0.0370  0.0697
17238TIP3   OH273204   3.230   2.258  11.943 -0.0850  0.2022  0.4474
17238TIP3    H173205   3.315   2.240  11.983 -0.2996  0.0303  0.8304
17238TIP3    H273206   3.221   2.191  11.875 -0.2815 -0.3101  0.9697
17239TIP3   OH273207   2.310   3.403   3.001 -0.1221  0.4699  0.3512
17239TIP3    H173208   2.340   3.433   2.915 -0.3519  0.3917  0.2421
17239TIP3    H273209   2.378   3.433   3.062  0.4386 -0.1527  0.0432
17240TIP3   OH273210   4.609   6.490   5.806 -0.3394  0.6283 -0.1710
17240TIP3    H173211   4.542   6.423   5.792 -0.0431  0.2776  0.0619
17240TIP3    H273212   4.647   6.505   5.720 -1.4910  1.6722 -0.5239
17241TIP3   OH273213   0.276   4.555  12.180  0.5393  0.1252 -0.2400
17241TIP3    H173214   0.249   4.642  12.208  0.6445  0.6086 -1.5546
17241TIP3    H273215   0.266   4.500  12.258  0.6207  1.3357  0.6461
17242TIP3   OH273216   3.425   1.845  14.555 -0.4371 -0.2886 -0.0236
17242TIP3    H173217   3.500   1.895  14.589  0.4196 -2.0646  0.8406
17242TIP3    H273218   3.349   1.891  14.589  0.2634  1.1971 -0.3934
17243TIP3   OH273219   6.829   0.874   3.643 -0.7969 -0.6445  0.2716
17243TIP3    H173220   6.857   0.841   3.557  1.0109  1.1586  0.0878
17243TIP3    H273221   6.893   0.836   3.704  0.6596  1.5060  0.1867
17244TIP3   OH273222   6.830   4.618  16.658 -0.5665  0.7237 -0.2099
17244TIP3    H173223   6.890   4.691  16.672 -0.7835  0.5548  1.8912
17244TIP3    H273224   6.887   4.543  16.642 -0.1341  0.5182  1.9882
17245TIP3   OH273225   4.665   0.634  14.343  0.1149 -0.7737  0.1458
17245TIP3    H173226   4.579   0.668  14.368  0.2588 -0.4297  0.1751
17245TIP3    H273227   4.727   0.692  14.388  0.4131  0.5060 -1.7994
17246TIP3   OH273228   2.424   1.856   3.883 -0.0554  0.2673  0.9414
17246TIP3    H173229   2.337   1.844   3.919  0.2892 -1.1229  1.3487
17246TIP3    H273230   2.478   1.883   3.957  0.2632 -0.7987  1.1125
17247TIP3   OH273231   6.355   4.679  14.312 -0.2849  0.5840  0.0890
17247TIP3    H173232   6.377   4.691  14.405 -0.4095  0.1481  0.1751
17247TIP3    H273233   6.260   4.670  14.312 -0.1512 -1.0013  0.0938
17248TIP3   OH273234   2.343   5.221   2.434 -0.4423 -0.7597  0.2167
17248TIP3    H173235   2.296   5.176   2.504 -0.4532 -1.6981 -0.3723
17248TIP3    H273236   2.325   5.169   2.356 -1.7198  1.1074 -0.8244
17249TIP3   OH273237   2.585   5.675   6.444  0.8615  0.1314 -0.3499
17249TIP3    H173238   2.496   5.654   6.472  0.1803  1.2198 -1.6115
17249TIP3    H273239   2.600   5.764   6.477 -0.1579  1.6746 -3.6429
17250TIP3   OH273240   5.601   6.599   0.239  0.0810 -0.2105 -0.4458
17250TIP3    H173241   5.642   6.606   0.153 -0.5112 -1.7248 -0.8879
17250TIP3    H273242   5.507   6.605   0.221 -0.0986 -1.5018 -0.0563
17251TIP3   OH273243   2.331   6.600   2.410 -0.5359 -0.5238 -0.0171
17251TIP3    H173244   2.351   6.519   2.456  0.0185 -0.7057 -0.5779
17251TIP3    H273245   2.313   6.574   2.320  2.7219  0.2483 -1.0074
17252TIP3   OH273246   6.167   4.127  11.546  0.2369 -0.3502 -0.5905
17252TIP3    H173247   6.262   4.113  11.543  0.4705  0.8146  0.2975
17252TIP3    H273248   6.157   4.220  11.526 -0.4728  0.1669  1.8648
17253TIP3   OH273249   4.707   4.958  12.363 -0.3175  0.1958  0.0984
17253TIP3    H173250   4.735   5.041  12.323 -0.6703  1.3993  2.2082
17253TIP3    H273251   4.621   4.977  12.399 -0.8224 -1.4055 -0.1908
17254TIP3   OH273252   5.737   2.085   6.413  0.2249  0.2890 -0.2977
17254TIP3    H173253   5.806   2.149   6.399 -0.6628  1.7991  1.6762
17254TIP3    H273254   5.745   2.024   6.340  2.0816  1.7813 -1.4272
17255TIP3   OH273255   6.140   4.809   0.587 -1.0342  0.0849  0.1878
17255TIP3    H173256   6.185   4.858   0.519 -0.9442 -2.2363 -1.5543
17255TIP3    H273257   6.138   4.868   0.662  0.3961  2.1195 -1.2692
17256TIP3   OH273258   1.811   1.775  13.585  0.3611 -0.3142  0.1499
17256TIP3    H173259   1.805   1.869  13.599 -1.6039 -0.3005 -0.5386
17256TIP3    H273260   1.776   1.761  13.497 -0.3274 -1.7746  0.6161
17257TIP3   OH273261   2.443   0.705  16.538 -0.4265  0.0521  0.2295
17257TIP3    H173262   2.458   0.769  16.608  0.4367  1.3363 -1.0637
17257TIP3    H273263   2.348   0.690  16.539 -0.5646  0.8778  0.9671
17258TIP3   OH273264   5.599   5.227   5.332 -0.3613  0.4363  0.1388
17258TIP3    H173265   5.638   5.146   5.299 -2.2246 -1.2985  1.8996
17258TIP3    H273266   5.674   5.277   5.366  0.6341 -1.8850  1.6640
17259TIP3   OH273267   2.687   3.661   0.562 -0.1190 -0.1425 -0.2167
17259TIP3    H173268   2.680   3.648   0.657 -1.1569 -0.2064 -0.2857
17259TIP3    H273269   2.602   3.698   0.537  0.4546  0.6926 -0.9939
17260TIP3   OH273270   4.707   6.127   4.966  0.1118  0.2907  0.0552
17260TIP3    H173271   4.782   6.115   4.907 -0.9388 -0.0130 -1.2797
17260TIP3    H273272   4.707   6.049   5.021  1.8544  1.1692  1.3694
17261TIP3   OH273273   1.965   1.436   3.691  0.0233 -0.0177 -0.2445
17261TIP3    H173274   2.031   1.483   3.742 -1.2676  2.5871 -0.7983
17261TIP3    H273275   2.010   1.412   3.609  1.2576 -1.6315  0.8259
17262TIP3   OH273276   5.120   4.679  13.892 -0.2350 -0.4735 -0.4587
17262TIP3    H173277   5.157   4.697  13.806  0.0516 -0.5042 -0.3445
17262TIP3    H273278   5.071   4.757  13.914 -1.0487 -0.8106 -1.0336
17263TIP3   OH273279   2.252   6.145  11.940  0.6792 -0.0698  0.4086
17263TIP3    H173280   2.304   6.118  12.016  1.3066  0.8052  0.3079
17263TIP3    H273281   2.162   6.119  11.962  0.4540  2.0616  2.4698
17264TIP3   OH273282   3.780   6.621  13.309 -0.0876 -0.0218  0.5374
17264TIP3    H173283   3.749   6.677  13.380 -1.1393  0.0897  0.0081
17264TIP3    H273284   3.700   6.589  13.266  0.3768 -3.1258  1.7173
17265TIP3   OH273285   5.550   5.924   5.567  0.1405  0.3562  0.6194
17265TIP3    H173286   5.566   6.007   5.523 -0.0829 -0.0386 -0.2241
17265TIP3    H273287   5.476   5.885   5.520 -0.4668  0.1630  1.6799
17266TIP3   OH273288   4.506   3.292  11.660  0.3917 -0.4521 -0.6896
17266TIP3    H173289   4.415   3.319  11.648  0.3712 -0.2586 -0.1322
17266TIP3    H273290   4.506   3.198  11.644  0.4151 -0.1992 -2.3937
17267TIP3   OH273291   2.179   6.512   3.721 -0.8135 -0.3233  0.2571
17267TIP3    H173292   2.145   6.477   3.803 -0.6008 -1.9503 -0.3203
17267TIP3    H273293   2.123   6.589   3.704  0.3461  1.2362  2.8285
17268TIP3   OH273294   5.249   3.171   1.789  0.5040  0.3421  0.3482
17268TIP3    H173295   5.250   3.264   1.768  2.6289  0.0186 -1.3758
17268TIP3    H273296   5.316   3.160   1.856  1.7198 -0.1827 -0.9117
17269TIP3   OH273297   2.677   4.996  11.142 -0.3137 -0.4810 -0.1749
17269TIP3    H173298   2.676   4.944  11.062  1.1185  0.7789 -1.0741
17269TIP3    H273299   2.656   5.085  11.113  2.6428  0.5098  0.3342
17270TIP3   OH273300   1.613   2.181   2.014 -0.1387  0.9082  0.3067
17270TIP3    H173301   1.616   2.257   1.956  0.1541  1.5689  1.1635
17270TIP3    H273302   1.521   2.153   2.012  0.0867  0.1665 -1.3984
17271TIP3   OH273303   3.081   1.490   5.836 -0.1143  0.3600  0.2312
17271TIP3    H173304   3.020   1.501   5.909  0.4671  1.0615  0.6255
17271TIP3    H273305   3.166   1.476   5.878 -0.2060 -2.3354 -0.2746
17272TIP3   OH273306   0.719   4.801  17.081  0.6461 -0.7318 -0.0156
17272TIP3    H173307   0.793   4.806  17.142  0.8000  1.0787 -0.2741
17272TIP3    H273308   0.752   4.748  17.008  0.6904 -2.3395  1.1294
17273TIP3   OH273309   6.174   6.172  12.303 -0.1835  0.2147  0.2504
17273TIP3    H173310   6.107   6.240  12.297  0.5536  0.8386 -1.2861
17273TIP3    H273311   6.240   6.207  12.362 -0.4091  0.3044  0.4473
17274TIP3   OH273312   2.222   4.804   5.645 -0.5679  0.2597  0.6319
17274TIP3    H173313   2.247   4.808   5.553  3.9932 -0.6119  1.6154
17274TIP3    H273314   2.150   4.740   5.647  1.2015 -2.0739 -2.0699
17275TIP3   OH273315   3.801   5.940  12.807 -0.5944 -0.6280 -0.2649
17275TIP3    H173316   3.852   5.919  12.885  0.4530 -1.1100 -1.0545
17275TIP3    H273317   3.787   5.856  12.763 -2.5710 -0.5932  0.1959
17276TIP3   OH273318   6.217   3.835  15.276 -0.2077 -0.1223 -0.0059
17276TIP3    H173319   6.192   3.843  15.368 -0.1849  0.7542 -0.0669
17276TIP3    H273320   6.210   3.924  15.242 -0.6750 -0.5187 -0.9732
17277TIP3   OH273321   3.136   6.065  11.993  0.7206  0.6037  0.3755
17277TIP3    H173322   3.217   6.087  11.946 -0.1531  0.1729 -1.3879
17277TIP3    H273323   3.081   6.143  11.983  0.6563  0.6478  1.0254
17278TIP3   OH273324   0.244   2.350  12.833 -0.1092 -0.2124 -0.7071
17278TIP3    H173325   0.256   2.423  12.772 -1.3829 -1.4723 -2.5557
17278TIP3    H273326   0.177   2.295  12.793 -2.7761  0.0200  2.9192
17279TIP3   OH273327   4.926   6.715   5.075 -0.0175  0.2072  0.3374
17279TIP3    H173328   4.959   6.750   5.158  0.5500  1.2854 -0.3223
17279TIP3    H273329   4.998   6.661   5.041  0.5024  1.3126 -0.3588
17280TIP3   OH273330   0.540   4.113  14.116  0.1304  0.6176  0.5356
17280TIP3    H173331   0.516   4.203  14.097 -0.2031  0.0399 -2.2625
17280TIP3    H273332   0.636   4.115  14.125  0.0911  1.2799  0.8304
17281TIP3   OH273333   3.724   5.392   4.723 -0.0440 -0.3383 -0.3232
17281TIP3    H173334   3.677   5.466   4.685  2.0513  0.1859 -2.0847
17281TIP3    H273335   3.728   5.327   4.653  0.2539 -1.1079  0.3872
17282TIP3   OH273336   4.615   4.763   3.938 -0.2337 -0.3722  0.0194
17282TIP3    H173337   4.615   4.668   3.922  2.9759 -0.1001 -2.5675
17282TIP3    H273338   4.707   4.788   3.932 -0.8825  2.8511  1.4689
17283TIP3   OH273339   6.186   3.797   4.899  0.4684 -0.1893 -0.0458
17283TIP3    H173340   6.220   3.837   4.979  0.1477 -0.0717  0.0344
17283TIP3    H273341   6.091   3.798   4.911  0.3680  0.6726 -0.8241
17284TIP3   OH273342   0.766   4.079  10.701  0.2238 -0.0246 -0.0541
17284TIP3    H173343   0.835   4.023  10.737 -0.2407 -0.3280  0.3753
17284TIP3    H273344   0.688   4.024  10.703  0.0852  0.1102 -1.0904
17285TIP3   OH273345   1.219   3.760  15.999 -0.1491 -0.1147  0.2493
17285TIP3    H173346   1.215   3.786  15.907  2.0822  0.8967  0.3861
17285TIP3    H273347   1.302   3.713  16.008 -0.9622 -1.4109  1.4856
17286TIP3   OH273348   4.354   3.937  16.102 -0.1170  0.4892  0.1680
17286TIP3    H173349   4.383   3.954  16.192 -0.6007  0.5555  0.3187
17286TIP3    H273350   4.315   3.849  16.106  0.1451  0.3629 -0.0493
17287TIP3   OH273351   3.542   3.189  11.191 -0.1253 -0.5555  0.6956
17287TIP3    H173352   3.514   3.227  11.108 -0.1223  1.2696  1.4712
17287TIP3    H273353   3.515   3.098  11.187 -0.0556 -0.5184 -1.3282
17288TIP3   OH273354   3.433   1.472   1.154  0.0670  0.7366  0.0737
17288TIP3    H173355   3.474   1.558   1.160  4.0376 -0.9119 -0.7653
17288TIP3    H273356   3.454   1.441   1.066 -1.2839 -1.1220  0.3383
17289TIP3   OH273357   6.730   6.268   0.561 -0.1857  0.1201 -0.6447
17289TIP3    H173358   6.696   6.206   0.497 -0.2349  2.5170 -3.1250
17289TIP3    H273359   6.687   6.244   0.643 -1.2845 -2.1692 -1.8095
17290TIP3   OH273360   4.209   3.253   2.192  0.1353  0.1965 -0.8477
17290TIP3    H173361   4.238   3.164   2.172  0.7889  0.3652 -0.6546
17290TIP3    H273362   4.128   3.263   2.142 -1.4159 -1.4320  1.1546
17291TIP3   OH273363   3.198   5.650   3.649  0.1854  0.1735 -0.3819
17291TIP3    H173364   3.117   5.605   3.628  0.1409 -0.6215  1.3712
17291TIP3    H273365   3.176   5.743   3.642 -0.4538 -0.0342 -1.3562
17292TIP3   OH273366   5.531   6.730  11.477  0.2123 -0.3343 -0.8949
17292TIP3    H173367   5.478   6.658  11.512 -1.1792  0.2138 -1.7921
17292TIP3    H273368   5.606   6.687  11.437 -0.4955 -1.2957 -1.2317
17293TIP3   OH273369   4.241   1.000  14.741  0.2000 -0.3310  0.1963
17293TIP3    H173370   4.236   0.995  14.837  0.0880 -0.0430  0.2066
17293TIP3    H273371   4.328   1.038  14.724 -1.0863  3.0873  0.3207
17294TIP3   OH273372   5.263   2.387   3.402 -0.2395 -0.6162 -0.0532
17294TIP3    H173373   5.355   2.414   3.398 -0.6962  1.1018  0.4700
17294TIP3    H273374   5.237   2.374   3.311  0.2229 -0.0753 -0.2641
17295TIP3   OH273375   2.829   3.024   2.838 -0.1408 -0.2305  0.0391
17295TIP3    H173376   2.890   2.965   2.882  0.7304  0.9056  0.4234
17295TIP3    H273377   2.767   2.966   2.794 -0.7421 -1.4170  2.3010
17296TIP3   OH273378   6.796   2.612  14.541  0.0915  0.2628 -0.1909
17296TIP3    H173379   6.833   2.695  14.510 -0.2829  0.9843  1.2030
17296TIP3    H273380   6.702   2.622  14.527 -0.0629  0.5300  0.9693
17297TIP3   OH273381   0.909   5.851  13.465  0.0400 -0.3354  0.0191
17297TIP3    H173382   0.873   5.915  13.527  1.0344 -0.7371  1.0559
17297TIP3    H273383   1.003   5.865  13.469  0.2769 -1.8172  0.2326
17298TIP3   OH273384   3.913   3.939   0.759 -0.4719 -0.4482  0.1049
17298TIP3    H173385   3.882   3.875   0.824 -0.5795  0.5828  1.0889
17298TIP3    H273386   3.968   3.999   0.809 -1.1629  0.7999 -0.6105
17299TIP3   OH273387   3.329   2.981  15.798 -0.4927  0.2050  0.1051
17299TIP3    H173388   3.379   2.979  15.717 -1.2244 -0.3410 -0.3413
17299TIP3    H273389   3.389   2.948  15.865  0.3466  1.3261 -0.0661
17300TIP3   OH273390   6.202   1.825   1.703 -0.1776 -0.4495  0.1735
17300TIP3    H173391   6.245   1.769   1.638  0.5149  0.1266  0.1231
17300TIP3    H273392   6.251   1.809   1.784  1.6207  1.8582 -0.3734
17301TIP3   OH273393   1.699   1.941  15.690  0.0185  0.2709  0.2819
17301TIP3    H173394   1.717   1.851  15.662  1.4067  0.1747  1.3958
17301TIP3    H273395   1.692   1.991  15.608  0.0303 -0.6972 -0.3187
17302TIP3   OH273396   1.444   0.695  12.236 -0.0285  0.1006 -0.1129
17302TIP3    H173397   1.357   0.675  12.271  1.0306  0.0545  2.7871
17302TIP3    H273398   1.446   0.791  12.229 -0.7693  0.0343 -1.6666
17303TIP3   OH273399   4.531   5.634  14.573 -0.3960  0.2750 -0.4560
17303TIP3    H173400   4.558   5.576  14.644  0.0847 -0.4907 -1.2471
17303TIP3    H273401   4.588   5.610  14.499  0.0326  1.9646 -0.7175
17304TIP3   OH273402   4.339   4.729   3.779 -0.0091  0.1149  0.1914
17304TIP3    H173403   4.386   4.646   3.776 -0.3447 -0.1163  1.1887
17304TIP3    H273404   4.401   4.792   3.815  1.4207  1.1430 -3.5897
17305TIP3   OH273405   5.761   5.683   5.483  0.2211  0.0775  0.0938
17305TIP3    H173406   5.667   5.691   5.497 -0.0579  0.4554 -1.8056
17305TIP3    H273407   5.793   5.773   5.481  0.1074  0.1219 -2.2352
17306TIP3   OH273408   1.609   5.305  15.481 -0.0429 -0.5519  0.1711
17306TIP3    H173409   1.609   5.254  15.399 -0.6332 -1.6826  0.8498
17306TIP3    H273410   1.702   5.318  15.500  0.1391  1.2893 -1.5748
17307TIP3   OH273411   2.163   4.377   6.009 -0.1526  0.0657  0.4375
17307TIP3    H173412   2.247   4.403   6.046  0.4293 -1.1131  0.0074
17307TIP3    H273413   2.110   4.353   6.085  0.9187 -2.0136  0.6040
17308TIP3   OH273414   5.548   5.020   2.992  0.0291 -0.6784 -0.0873
17308TIP3    H173415   5.603   4.948   2.961 -0.1094 -0.1650 -1.5818
17308TIP3    H273416   5.578   5.035   3.082  1.8435 -0.8846 -0.6195
17309TIP3   OH273417   2.419   6.345   2.487 -0.1543 -0.0105  0.0396
17309TIP3    H173418   2.349   6.294   2.445  0.9507  0.1127 -2.0462
17309TIP3    H273419   2.443   6.293   2.564 -0.1730 -1.8459 -1.1419
17310TIP3   OH273420   4.967   4.532   3.534 -0.1258  0.1744  0.7283
17310TIP3    H173421   5.035   4.576   3.483 -1.0827 -0.5396 -1.2539
17310TIP3    H273422   5.015   4.483   3.601  1.5458 -1.9063 -1.8014
17311TIP3   OH273423   1.076   6.071   1.232 -0.0915  0.3808  0.0177
17311TIP3    H173424   1.161   6.114   1.231 -1.1006  2.7423  2.4821
17311TIP3    H273425   1.020   6.127   1.178 -0.8311  0.7829  1.1689
17312TIP3   OH273426   4.729   3.137  13.266 -0.0819 -0.0734  0.3591
17312TIP3    H173427   4.662   3.095  13.320 -2.3363  3.1894  0.4182
17312TIP3    H273428   4.756   3.213  13.318  1.5756  0.2661 -0.9336
17313TIP3   OH273429   3.538   3.431  12.873 -0.0536 -0.1264 -0.2262
17313TIP3    H173430   3.589   3.417  12.952 -1.6002  1.1291  1.0707
17313TIP3    H273431   3.576   3.371  12.808  2.8266  0.5322  0.7032
17314TIP3   OH273432   1.372   5.457   6.156 -0.0332  0.2460  0.2344
17314TIP3    H173433   1.324   5.476   6.236 -2.7344  1.0262 -1.4341
17314TIP3    H273434   1.403   5.542   6.125 -1.1623  0.3121 -0.7740
17315TIP3   OH273435   5.720   4.370   2.782 -0.0844  0.6571  0.2077
17315TIP3    H173436   5.730   4.447   2.727 -1.3967 -0.7331 -2.1537
17315TIP3    H273437   5.671   4.308   2.727  2.1719 -2.4278  1.4281
17316TIP3   OH273438   2.445   0.290   6.340  0.2346 -0.5771 -0.1616
17316TIP3    H173439   2.353   0.306   6.362 -0.0961 -2.6525  0.2163
17316TIP3    H273440   2.495   0.337   6.406 -0.5567  0.1018 -0.0331
17317TIP3   OH273441   3.600   1.049   0.402 -0.3396  0.3525 -0.0727
17317TIP3    H173442   3.598   1.125   0.461  1.5327  0.6564 -0.3394
17317TIP3    H273443   3.618   1.087   0.316  1.9896 -0.4543  0.0039
17318TIP3   OH273444   5.703   5.098   1.572 -0.3710  0.2301  0.1951
17318TIP3    H173445   5.690   5.029   1.637 -3.2945  0.1756 -0.3069
17318TIP3    H273446   5.666   5.062   1.492 -1.1231  2.0236 -0.3121
17319TIP3   OH273447   2.228   1.426  13.500 -0.2399 -0.2957  0.0093
17319TIP3    H173448   2.246   1.486  13.428  1.0279 -0.1267  0.4371
17319TIP3    H273449   2.209   1.342  13.458 -1.7812  0.3161 -0.5831
17320TIP3   OH273450   4.381   5.802   2.572 -0.3268  0.6719  0.1571
17320TIP3    H173451   4.332   5.786   2.653 -0.3433  0.1769  0.0510
17320TIP3    H273452   4.313   5.819   2.506 -0.2941  1.7002  0.3748
17321TIP3   OH273453   4.256   3.031   0.202 -0.1008  0.1282  0.3008
17321TIP3    H173454   4.197   2.981   0.259  0.1996 -2.3589 -1.4030
17321TIP3    H273455   4.206   3.109   0.179 -3.3901 -2.3324 -1.9303
17322TIP3   OH273456   4.504   5.367  16.130 -0.7910  0.2561  0.1085
17322TIP3    H173457   4.492   5.398  16.041  0.7950  1.7883  0.3725
17322TIP3    H273458   4.491   5.272  16.125 -2.8072  0.5571 -1.3061
17323TIP3   OH273459   4.289   4.461  15.753 -0.2558 -0.0809  0.1620
17323TIP3    H173460   4.372   4.504  15.732  0.1042 -1.4920 -1.5512
17323TIP3    H273461   4.313   4.371  15.775 -1.2194 -0.1298  1.0775
17324TIP3   OH273462   2.829   5.292  15.770  0.0530 -0.5337 -0.2566
17324TIP3    H173463   2.922   5.296  15.793 -0.1734  1.0674  0.5328
17324TIP3    H273464   2.827   5.315  15.677  0.5885 -2.6691 -0.8582
17325TIP3   OH273465   3.646   3.966  13.335 -0.8122 -0.1261  0.3356
17325TIP3    H173466   3.581   3.962  13.265  1.4731 -1.5775 -1.8837
17325TIP3    H273467   3.701   4.041  13.312 -0.9554  0.3716  1.5285
17326TIP3   OH273468   2.754   4.098   5.760 -0.1410 -0.4349 -0.3020
17326TIP3    H173469   2.784   4.088   5.851  0.8583  0.3550 -0.5240
17326TIP3    H273470   2.717   4.013   5.737  1.0612 -1.1497  0.3198
17327TIP3   OH273471   4.740   5.873  11.383  0.0788  1.0354  0.3325
17327TIP3    H173472   4.681   5.935  11.341 -0.6749 -0.4164 -0.8946
17327TIP3    H273473   4.793   5.839  11.311 -1.0638 -1.3316  0.4795
17328TIP3   OH273474   1.297   1.874   2.271 -0.2568  0.0952  1.0814
17328TIP3    H173475   1.303   1.786   2.309  1.0027 -0.9266 -1.3213
17328TIP3    H273476   1.376   1.918   2.301 -0.1355 -0.0996  1.0492
17329TIP3   OH273477   0.002   2.399   1.147 -0.0451  0.7190 -0.3627
17329TIP3    H173478   0.028   2.309   1.132  0.9207  0.6523  1.3909
17329TIP3    H273479   0.078   2.451   1.124 -0.4363  1.0538 -0.9210
17330TIP3   OH273480   5.786   1.345   3.862 -0.0576  0.0456 -0.1886
17330TIP3    H173481   5.778   1.369   3.769  0.3774 -0.5177 -0.3754
17330TIP3    H273482   5.783   1.250   3.863 -1.6579  0.0752  0.5447
17331TIP3   OH273483   3.703   1.215   0.928  0.2391 -0.0414  0.0359
17331TIP3    H173484   3.631   1.184   0.982 -0.9163  0.5438 -1.1028
17331TIP3    H273485   3.767   1.144   0.931  0.2724  0.0115  2.2010
17332TIP3   OH273486   3.852   3.199  15.499  0.3936 -0.0702 -0.0591
17332TIP3    H173487   3.922   3.136  15.482 -0.1170 -0.2557 -1.6045
17332TIP3    H273488   3.896   3.273  15.540  0.9136 -1.6545  2.5183
17333TIP3   OH273489   4.095   6.047   3.228  0.0279 -0.1217  0.5591
17333TIP3    H173490   4.137   5.974   3.275  0.5223  0.2156  0.6426
17333TIP3    H273491   4.016   6.008   3.190 -0.3170 -0.4320  1.5577
17334TIP3   OH273492   0.436   2.872  12.178 -0.2449 -0.0441 -0.1399
17334TIP3    H173493   0.439   2.786  12.219  1.0790 -0.9084 -1.8787
17334TIP3    H273494   0.429   2.934  12.251 -0.3163 -1.5735  1.2033
17335TIP3   OH273495   1.479   3.942  16.690  0.3141  0.5268  0.3027
17335TIP3    H173496   1.554   3.976  16.739  1.8464  0.0895 -1.5996
17335TIP3    H273497   1.442   3.875  16.748  2.2974 -0.2694  0.7677
17336TIP3   OH273498   3.711   6.567   2.190  0.6001 -0.4597 -0.0578
17336TIP3    H173499   3.783   6.561   2.253  0.3899 -0.3764  0.1894
17336TIP3    H273500   3.669   6.651   2.210  1.4010  0.2589 -1.2283
17337TIP3   OH273501   6.619   0.246   0.971  0.4556 -0.1035 -0.4171
17337TIP3    H173502   6.625   0.214   1.061  0.2736 -0.8231 -0.6569
17337TIP3    H273503   6.553   0.191   0.930 -0.0451  0.7477 -0.7748
17338TIP3   OH273504   6.387   0.684   4.120 -0.3655 -0.9603  0.1046
17338TIP3    H173505   6.465   0.706   4.069 -0.3500  0.7990  0.8247
17338TIP3    H273506   6.321   0.746   4.090 -0.4228 -0.0427  2.0252
17339TIP3   OH273507   4.054   0.507   2.675 -0.1220  0.1533  0.4509
17339TIP3    H173508   3.964   0.517   2.706 -0.5515 -0.4778 -0.5412
17339TIP3    H273509   4.076   0.592   2.637 -1.1978 -0.3677 -1.4983
17340TIP3   OH273510   1.559   0.442   1.453  0.1405 -0.0243 -0.2798
17340TIP3    H173511   1.517   0.498   1.388  1.5398  0.3940 -0.8456
17340TIP3    H273512   1.650   0.437   1.426  0.5694 -0.5619  1.1651
17341TIP3   OH273513   0.985   4.769  13.274 -0.8793 -0.5113  0.4702
17341TIP3    H173514   0.997   4.707  13.346 -2.4742 -2.1683 -0.6375
17341TIP3    H273515   0.948   4.847  13.316  0.5200 -0.4865  1.7674
17342TIP3   OH273516   2.688   1.149   0.049 -0.5191 -0.3074 -0.3641
17342TIP3    H173517   2.737   1.145   0.131  2.1344  1.5285 -1.6963
17342TIP3    H273518   2.677   1.243   0.032 -0.3334 -0.6097 -2.4363
17343TIP3   OH273519   0.433   1.010   5.825 -0.5062 -0.0959  0.4496
17343TIP3    H173520   0.495   0.980   5.758  1.1013 -0.6256  2.0974
17343TIP3    H273521   0.355   1.034   5.776  1.7410  2.9992 -2.0791
17344TIP3   OH273522   0.735   3.908   5.424  0.2129  0.2473  0.2915
17344TIP3    H173523   0.703   3.838   5.368  0.6056 -1.5496  2.1614
17344TIP3    H273524   0.830   3.910   5.408  0.3113 -0.2005  0.7907
17345TIP3   OH273525   4.853   6.237   5.430  0.2149 -0.2602  0.9276
17345TIP3    H173526   4.833   6.208   5.341  0.3766 -0.8191  1.0725
17345TIP3    H273527   4.768   6.239   5.475 -0.1426  1.7392  0.2825
17346TIP3   OH273528   0.909   2.618   2.928  0.0763  0.5141  0.3824
17346TIP3    H173529   0.932   2.710   2.937  0.7734  0.2284  2.0344
17346TIP3    H273530   0.991   2.575   2.904  0.1054  0.1483  1.1104
17347TIP3   OH273531   1.737   0.634   3.834  0.4233 -0.4467 -0.1801
17347TIP3    H173532   1.801   0.702   3.816  1.1342 -1.0468  0.0330
17347TIP3    H273533   1.745   0.572   3.762  0.1231 -0.5551 -0.1241
17348TIP3   OH273534   2.343   2.047  11.399 -0.3192  0.0511 -0.5648
17348TIP3    H173535   2.319   2.025  11.309 -0.2217 -0.5821 -0.4415
17348TIP3    H273536   2.393   1.971  11.429  0.2697  0.5693 -0.2148
17349TIP3   OH273537   4.625   0.432  15.865 -0.0408  0.0074 -0.6479
17349TIP3    H173538   4.599   0.465  15.951  1.1534 -0.3112 -0.1521
17349TIP3    H273539   4.571   0.353  15.854  1.1300 -1.0239  0.6675
17350TIP3   OH273540   0.782   6.419  10.326  0.0501  0.0763 -0.0881
17350TIP3    H173541   0.732   6.380  10.397 -0.9339  0.3116 -0.6347
17350TIP3    H273542   0.793   6.348  10.263 -1.7014  0.6084 -1.0618
17351TIP3   OH273543   0.101   3.744  16.424 -0.0735 -0.1055 -0.1394
17351TIP3    H173544   0.009   3.724  16.437  0.0372 -0.7234 -0.2819
17351TIP3    H273545   0.102   3.836  16.398 -0.5677  0.1682  0.7880
17352TIP3   OH273546   0.178   6.739  10.498  0.1737  0.0604  0.4950
17352TIP3    H173547   0.220   6.818  10.533 -0.2064  1.8898 -2.7893
17352TIP3    H273548   0.241   6.669  10.517  1.8219  1.6205  1.1256
17353TIP3   OH273549   5.521   2.539   0.218 -0.2887  0.3997  0.4507
17353TIP3    H173550   5.524   2.634   0.233 -0.3515  0.4429  0.1971
17353TIP3    H273551   5.448   2.508   0.273 -1.1218  0.6910 -0.4553
17354TIP3   OH273552   4.416   2.032  16.683 -0.0839 -0.2362 -0.3200
17354TIP3    H173553   4.421   2.126  16.701  1.1046 -0.2276 -0.6432
17354TIP3    H273554   4.493   1.994  16.725 -0.4306 -1.0437 -0.3818
17355TIP3   OH273555   6.064   3.501   0.201  0.1595  0.3445  0.1407
17355TIP3    H173556   6.084   3.594   0.190  0.0805  0.4090  0.5335
17355TIP3    H273557   6.001   3.482   0.132  0.1635  0.5882  0.0685
17356TIP3   OH273558   6.328   1.712   2.944  0.3277  0.7476 -0.4211
17356TIP3    H173559   6.245   1.706   2.989  2.1785  1.6909  3.4968
17356TIP3    H273560   6.331   1.802   2.910 -0.4565  0.5027 -1.1800
17357TIP3   OH273561   6.492   6.047   5.121 -0.3323 -0.7249 -0.2707
17357TIP3    H173562   6.540   6.028   5.201  1.1871 -0.2147 -1.0143
17357TIP3    H273563   6.443   5.967   5.102  0.4372 -1.3688  0.3925
17358TIP3   OH273564   1.583   3.362   1.912  0.4513 -0.2359 -0.6838
17358TIP3    H173565   1.612   3.283   1.866  1.3051 -0.4847  0.2203
17358TIP3    H273566   1.665   3.406   1.937  0.0375 -0.1266  0.5796
17359TIP3   OH273567   1.962   0.855   3.852 -0.2218  0.5386  0.3535
17359TIP3    H173568   1.999   0.916   3.916 -1.2874  0.1567  1.3530
17359TIP3    H273569   1.991   0.769   3.882  1.5789  0.5054 -1.2523
17360TIP3   OH273570   4.828   0.174   0.115 -0.2057  0.3070  0.3578
17360TIP3    H173571   4.770   0.123   0.171 -0.0551  0.6885  0.8694
17360TIP3    H273572   4.915   0.162   0.152 -0.4238  2.6442  1.8312
17361TIP3   OH273573   2.194   3.873   1.032 -0.4534  0.3916 -0.4479
17361TIP3    H173574   2.170   3.800   0.975 -0.3335  0.2582 -0.3276
17361TIP3    H273575   2.289   3.867   1.040 -0.4331  0.6220 -0.5196
17362TIP3   OH273576   5.075   2.823  15.454  0.5328  0.3762  0.4022
17362TIP3    H173577   5.045   2.879  15.383  0.7968  1.5145  1.1564
17362TIP3    H273578   5.086   2.883  15.528  3.0213 -0.2542  0.6292
17363TIP3   OH273579   3.020   6.797  16.857  0.1042 -0.0365 -0.4693
17363TIP3    H173580   3.028   6.702  16.848 -1.3458 -0.1360 -0.9154
17363TIP3    H273581   3.025   6.831  16.768 -0.2414  0.2307 -0.3888
17364TIP3   OH273582   3.652   5.356   6.227 -0.1471  0.0226 -0.5210
17364TIP3    H173583   3.566   5.327   6.195  0.0846 -0.9679 -0.2987
17364TIP3    H273584   3.714   5.294   6.189  0.4351  0.5132 -0.3921
17365TIP3   OH273585   4.541   3.946   0.613 -0.3624 -0.2978 -0.0579
17365TIP3    H173586   4.592   3.979   0.687  0.4185 -0.8770 -0.3306
17365TIP3    H273587   4.567   3.855   0.604 -2.3398 -0.9850  0.5447
17366TIP3   OH273588   3.000   4.488  11.296 -0.3778 -0.2460  0.3100
17366TIP3    H173589   2.938   4.560  11.298 -1.0393 -0.8074  0.3727
17366TIP3    H273590   3.083   4.527  11.322 -0.7983  0.4282  0.6679
17367TIP3   OH273591   6.369   4.504  17.004  0.3510  0.1929  0.5372
17367TIP3    H173592   6.443   4.561  17.024  0.9694  0.2070 -1.5496
17367TIP3    H273593   6.368   4.499  16.908 -2.3584  0.1867  0.5033
17368TIP3   OH273594   1.379   1.649   2.421 -0.1998 -0.0765 -0.1105
17368TIP3    H173595   1.471   1.622   2.427 -0.0152  0.6513  0.4858
17368TIP3    H273596   1.335   1.600   2.491  0.1088  1.0229  0.8795
17369TIP3   OH273597   4.366   6.823   0.540  0.5532 -0.0636 -0.0209
17369TIP3    H173598   4.445   6.844   0.491  0.3571  1.0734  0.1326
17369TIP3    H273599   4.294   6.839   0.479  0.3263  1.0027  0.5086
17370TIP3   OH273600   1.827   4.167   5.161 -0.2882 -0.1791  0.1452
17370TIP3    H173601   1.801   4.247   5.116  0.2623 -0.9730 -1.6920
17370TIP3    H273602   1.745   4.119   5.173 -0.4607  0.0843  0.0276
17371TIP3   OH273603   4.349   4.875  16.204  0.1283 -0.0762  1.0882
17371TIP3    H173604   4.280   4.926  16.161  0.1948  0.3666  1.4942
17371TIP3    H273605   4.413   4.940  16.232  1.2274 -0.5807 -0.1806
17372TIP3   OH273606   0.617   1.120  16.059  0.2247 -0.1643 -0.9248
17372TIP3    H173607   0.711   1.137  16.057  0.0869  1.4485  1.6383
17372TIP3    H273608   0.576   1.206  16.053 -0.9214 -0.4593  1.5143
17373TIP3   OH273609   6.608   6.204  16.612 -0.2713 -0.1748  0.1098
17373TIP3    H173610   6.622   6.136  16.678 -0.5467 -1.9357 -1.5890
17373TIP3    H273611   6.685   6.199  16.555 -1.5576 -1.0065 -1.6439
17374TIP3   OH273612   6.475   1.013  17.145 -0.4318  0.1033 -0.4410
17374TIP3    H173613   6.526   1.013  17.064 -0.1830  3.2448 -0.4325
17374TIP3    H273614   6.539   0.996  17.214  0.3371  1.9967 -0.6079
17375TIP3   OH273615   1.971   1.631  12.635 -0.1509 -0.2717  0.2228
17375TIP3    H173616   2.056   1.599  12.666 -0.2747  0.4785  1.4048
17375TIP3    H273617   1.973   1.618  12.540  0.9675 -0.9868  0.3301
17376TIP3   OH273618   4.450   0.162  17.053  0.4552 -0.0936  0.2086
17376TIP3    H173619   4.492   0.208  16.981  0.9829 -0.6146  0.1751
17376TIP3    H273620   4.523   0.128  17.105  0.1611 -2.7380 -0.9511
17377TIP3   OH273621   6.738   4.172  16.270  0.1798  0.1874 -0.3667
17377TIP3    H173622   6.773   4.249  16.315 -0.1385  0.1751 -0.0943
17377TIP3    H273623   6.643   4.185  16.269  0.1060 -0.2858 -0.1420
17378TIP3   OH273624   4.712   0.985   4.344  0.4574  0.0921  0.4844
17378TIP3    H173625   4.692   1.077   4.326 -0.0396  0.3997  2.3568
17378TIP3    H273626   4.647   0.959   4.410  1.2099 -1.3017  0.7184
17379TIP3   OH273627   5.576   0.689  13.748  0.2161  0.3695 -0.6675
17379TIP3    H173628   5.571   0.619  13.683 -1.2960  0.3119 -0.5330
17379TIP3    H273629   5.614   0.647  13.826  1.7442  0.3655 -1.3849
17380TIP3   OH273630   5.334   5.296  10.589 -0.2410  0.3945 -0.4058
17380TIP3    H173631   5.243   5.267  10.580  0.2600 -2.3595  1.9697
17380TIP3    H273632   5.330   5.370  10.650 -0.7973 -0.7611  1.0140
17381TIP3   OH273633   4.709   6.510  15.887  0.1956 -0.0317 -0.5383
17381TIP3    H173634   4.698   6.416  15.871 -0.1489  0.1050 -1.0928
17381TIP3    H273635   4.711   6.517  15.983  1.3347 -0.7329 -0.4876
17382TIP3   OH273636   5.890   2.029  14.938 -0.2521  0.1114  0.0387
17382TIP3    H173637   5.884   2.069  14.851 -1.1225  2.2981  1.0186
17382TIP3    H273638   5.983   2.010  14.949 -0.1007 -0.0243 -1.2913
17383TIP3   OH273639   6.635   2.516   2.674 -0.5460  1.1179 -0.1043
17383TIP3    H173640   6.719   2.494   2.633 -1.4181 -2.1549 -0.3647
17383TIP3    H273641   6.578   2.538   2.601 -0.2188  2.3827 -0.0007
17384TIP3   OH273642   1.735   2.228   0.026  0.6617  0.0661  0.0883
17384TIP3    H173643   1.678   2.286   0.077  2.1599  0.8706  0.9274
17384TIP3    H273644   1.790   2.288  -0.025  0.8860 -0.6790 -0.5563
17385TIP3   OH273645   1.313   6.610   1.993  0.2661 -0.5605 -0.1205
17385TIP3    H173646   1.395   6.577   1.955  0.4519  0.7098 -0.8668
17385TIP3    H273647   1.276   6.667   1.925 -0.1805  0.5365  1.0037
17386TIP3   OH273648   0.547   2.304  13.013 -0.9152 -0.3194 -0.6071
17386TIP3    H173649   0.578   2.265  12.932 -2.7558 -2.4577 -0.4078
17386TIP3    H273650   0.626   2.320  13.064  0.1783 -0.2388 -2.2402
17387TIP3   OH273651   0.602   3.132  14.133  0.4256 -0.4507 -0.4275
17387TIP3    H173652   0.650   3.157  14.053  0.7585  0.9945  0.1917
17387TIP3    H273653   0.656   3.166  14.204 -0.5421 -0.5260  0.3613
17388TIP3   OH273654   5.519   3.974  12.990 -0.3333 -0.5388 -0.3024
17388TIP3    H173655   5.461   3.921  12.935 -0.1905 -0.1553 -0.8268
17388TIP3    H273656   5.494   4.065  12.970 -0.3614 -0.3983  0.3514
17389TIP3   OH273657   5.955   5.477   0.393 -0.6274 -0.1901  0.1966
17389TIP3    H173658   5.899   5.413   0.437  0.3155 -0.8970  0.3993
17389TIP3    H273659   5.995   5.429   0.321 -1.1465  0.6154 -0.6521
17390TIP3   OH273660   6.415   6.674   3.688 -0.0170 -0.5324 -0.8237
17390TIP3    H173661   6.434   6.719   3.606 -0.8601 -0.7527 -1.1437
17390TIP3    H273662   6.324   6.695   3.707  0.8271  1.6951  1.4387
17391TIP3   OH273663   2.477   6.628   1.741 -0.2495 -0.4019  0.1938
17391TIP3    H173664   2.404   6.625   1.679  2.0948 -1.3246 -2.7617
17391TIP3    H273665   2.467   6.548   1.793 -1.9197  0.0685  0.6714
17392TIP3   OH273666   1.190   3.616   4.636  0.1094  0.1013  0.4627
17392TIP3    H173667   1.188   3.712   4.632  1.5547  0.1312 -0.2219
17392TIP3    H273668   1.271   3.592   4.591 -1.0934 -1.5326 -0.9571
17393TIP3   OH273669   1.292   4.262   0.505 -0.0687 -0.1367  0.3004
17393TIP3    H173670   1.232   4.214   0.448  0.2801  0.1045 -0.2753
17393TIP3    H273671   1.262   4.242   0.594  0.4386 -1.9100  0.1011
17394TIP3   OH273672   2.477   3.180  15.134 -0.0369  0.1734  0.4407
17394TIP3    H173673   2.544   3.244  15.158 -1.2539  0.9472  1.9543
17394TIP3    H273674   2.394   3.227  15.143 -0.8388 -0.9249 -0.8275
17395TIP3   OH273675   5.331   2.312  16.987 -0.3080 -0.2886  0.0472
17395TIP3    H173676   5.381   2.361  16.922 -0.5126 -0.9975 -0.6657
17395TIP3    H273677   5.384   2.315  17.066  1.4671 -1.9840 -0.9934
17396TIP3   OH273678   6.075   0.384   1.307  0.2940  0.2947  0.2806
17396TIP3    H173679   6.100   0.444   1.237  0.9269 -0.7896 -0.4541
17396TIP3    H273680   5.995   0.422   1.344 -0.7593  0.2893 -1.8281
17397TIP3   OH273681   2.237   1.255  11.190  0.2147  0.8677  0.1472
17397TIP3    H173682   2.148   1.268  11.156  0.0198 -0.5730  0.0675
17397TIP3    H273683   2.294   1.267  11.114 -0.1417 -1.2095 -0.5080
17398TIP3   OH273684   4.416   0.740  12.191 -0.2239 -0.0950 -0.3231
17398TIP3    H173685   4.481   0.689  12.239  1.5120  2.6084  0.4429
17398TIP3    H273686   4.337   0.732  12.244  0.4913 -0.5544  0.7239
17399TIP3   OH273687   3.690   3.537   4.584 -0.2802 -0.2568 -0.2043
17399TIP3    H173688   3.689   3.476   4.510  0.4810 -0.0241 -0.4190
17399TIP3    H273689   3.739   3.491   4.653  1.2654  0.5019 -0.7421
17400TIP3   OH273690   1.526   2.697   0.922  0.4216 -0.1801 -0.8913
17400TIP3    H173691   1.546   2.605   0.904 -0.1426 -0.0013 -2.5834
17400TIP3    H273692   1.439   2.694   0.963  1.4412 -0.5433  1.3751
17401TIP3   OH273693   2.300   0.324   3.769  0.2940  0.0569  0.1946
17401TIP3    H173694   2.382   0.287   3.804  0.2042  0.0987  0.4489
17401TIP3    H273695   2.328   0.397   3.714  0.4090  0.2671  0.5320
17402TIP3   OH273696   4.043   1.692   1.093 -0.0741 -0.0071  0.0744
17402TIP3    H173697   4.047   1.679   1.187 -1.7050 -0.9958  0.0548
17402TIP3    H273698   4.040   1.603   1.057 -3.9320  0.2269 -0.5798
17403TIP3   OH273699   2.101   5.258  12.630 -0.3146  0.4045  0.4332
17403TIP3    H173700   2.055   5.190  12.581 -0.2301 -0.0389  0.9495
17403TIP3    H273701   2.162   5.296  12.567  0.6781 -0.9976  0.4785
17404TIP3   OH273702   0.196   2.251   2.806  0.1121 -0.3357  0.3010
17404TIP3    H173703   0.288   2.265   2.783 -0.1632 -0.6634 -1.0994
17404TIP3    H273704   0.167   2.334   2.844  1.1366 -0.4294  1.3443
17405TIP3   OH273705   4.478   6.696  12.824  0.7426 -0.1421 -0.3384
17405TIP3    H173706   4.428   6.777  12.820  0.4467 -0.3851 -2.7440
17405TIP3    H273707   4.424   6.637  12.878  0.4153  0.8533  0.4507
17406TIP3   OH273708   2.952   1.027   2.403 -0.8396  0.3777  1.0733
17406TIP3    H173709   2.954   1.112   2.358 -1.8699  2.1082  4.0029
17406TIP3    H273710   2.916   0.966   2.338 -0.8342  2.3356 -0.8760
17407TIP3   OH273711   1.296   0.805   5.764  0.1102  0.6724  0.3751
17407TIP3    H173712   1.351   0.743   5.715  0.9294  0.3077  1.6967
17407TIP3    H273713   1.304   0.887   5.716  0.8951  0.3329 -0.1065
17408TIP3   OH273714   4.868   3.386   3.746  0.2018  0.2361  0.3055
17408TIP3    H173715   4.886   3.292   3.738 -0.5719  0.0720  0.4843
17408TIP3    H273716   4.919   3.414   3.822 -1.3516 -0.5176  1.6860
17409TIP3   OH273717   4.532   1.542   2.945  0.0572 -0.2535  0.0021
17409TIP3    H173718   4.586   1.620   2.936 -1.8638  1.2012  0.3340
17409TIP3    H273719   4.582   1.473   2.903  1.4723  1.3339 -1.0491
17410TIP3   OH273720   0.122   4.673  12.808  0.0238 -0.2540  0.3102
17410TIP3    H173721   0.176   4.694  12.884  1.0793  2.1779 -0.9926
17410TIP3    H273722   0.111   4.578  12.812  0.9292 -0.3289  2.8858
17411TIP3   OH273723   4.928   4.501   2.821 -0.1870  0.7787  0.3473
17411TIP3    H173724   5.017   4.530   2.800 -0.3032  1.7469  1.1194
17411TIP3    H273725   4.937   4.455   2.904 -0.2528 -0.0914 -0.1142
17412TIP3   OH273726   0.673   0.856   4.255 -0.1419 -0.1512 -0.0255
17412TIP3    H173727   0.732   0.849   4.330  0.8139 -1.2572 -0.8477
17412TIP3    H273728   0.706   0.931   4.206 -1.3482  1.1797  1.1074
17413TIP3   OH273729   3.976   1.278   0.353 -0.9885 -0.5660 -0.1658
17413TIP3    H173730   4.071   1.267   0.355 -0.7507  1.1851 -0.1751
17413TIP3    H273731   3.944   1.219   0.422  0.2621  0.0722  1.0205
17414TIP3   OH273732   4.566   5.564   1.869  0.4751 -0.2659 -0.4244
17414TIP3    H173733   4.614   5.514   1.804  1.4700  1.0079 -0.7033
17414TIP3    H273734   4.579   5.515   1.951 -0.2275 -1.5073 -1.0185
17415TIP3   OH273735   2.043   1.673   5.018  0.2109 -0.2875  0.3600
17415TIP3    H173736   1.959   1.634   4.993  0.2240  0.3787 -0.8163
17415TIP3    H273737   2.036   1.686   5.113 -0.8726 -0.5703  0.3333
17416TIP3   OH273738   5.363   1.008   4.119 -0.3865 -0.4077  0.2881
17416TIP3    H173739   5.309   0.939   4.157  0.3350 -2.6190 -2.4001
17416TIP3    H273740   5.450   0.993   4.156  0.0258 -1.7477 -1.1275
17417TIP3   OH273741   0.713   0.138  10.771  0.1358  0.5999  0.4804
17417TIP3    H173742   0.701   0.169  10.682 -1.2227 -0.5346  0.2187
17417TIP3    H273743   0.625   0.112  10.799  0.0508  3.1524  3.0484
17418TIP3   OH273744   2.108   2.465   2.637  0.2361  0.0121  1.0229
17418TIP3    H173745   2.110   2.413   2.717 -1.2583 -1.3628  0.2148
17418TIP3    H273746   2.191   2.445   2.594 -0.6849 -2.5482  0.2704
17419TIP3   OH273747   3.462   0.063   5.630  0.1574 -0.2474  0.5659
17419TIP3    H173748   3.388   0.108   5.669 -1.0046 -2.0399  0.5648
17419TIP3    H273749   3.526   0.132   5.613 -1.6613  1.4323  0.1513
17420TIP3   OH273750   3.234   2.080  11.723  0.3776  0.5623 -0.1031
17420TIP3    H173751   3.177   2.150  11.691 -1.8879 -0.4237  1.5484
17420TIP3    H273752   3.190   1.999  11.697  0.6088 -0.2352  1.8567
17421TIP3   OH273753   3.645   3.853  12.951 -0.2736  0.1227  0.1444
17421TIP3    H173754   3.583   3.870  13.021  0.2174  2.7904  0.0365
17421TIP3    H273755   3.591   3.835  12.875 -0.8276 -3.9488  1.2913
17422TIP3   OH273756   3.584   1.266   0.223 -0.4162  0.2044 -0.3966
17422TIP3    H173757   3.649   1.314   0.172  1.6427 -1.0766  0.8803
17422TIP3    H273758   3.531   1.220   0.158 -0.0640  1.2962 -1.4757
17423TIP3   OH273759   2.355   0.089   2.200  0.3234 -0.4883  0.1757
17423TIP3    H173760   2.357   0.164   2.139 -2.3758 -0.1086  0.4302
17423TIP3    H273761   2.405   0.021   2.155  1.6037  0.9720 -0.7347
17424TIP3   OH273762   1.199   2.740   5.998 -0.0538  0.2356 -0.9104
17424TIP3    H173763   1.284   2.777   6.022 -0.7837  1.4019  0.0142
17424TIP3    H273764   1.159   2.807   5.943 -0.4346 -0.2465 -1.2218
17425TIP3   OH273765   6.412   1.447   2.236  0.1246 -0.2352  0.7540
17425TIP3    H173766   6.506   1.465   2.236  0.1396 -0.1775 -0.8580
17425TIP3    H273767   6.404   1.363   2.280  1.1584 -1.1561 -0.7270
17426TIP3   OH273768   4.077   0.153   2.358 -0.2746  0.2488  0.4396
17426TIP3    H173769   4.064   0.211   2.432 -0.2405 -0.2842  0.8674
17426TIP3    H273770   4.156   0.104   2.379 -0.7540 -0.5358  0.4750
17427TIP3   OH273771   5.398   3.126  13.327 -0.3870 -0.3271 -0.1875
17427TIP3    H173772   5.408   3.031  13.323  1.4444 -0.1333 -1.6008
17427TIP3    H273773   5.306   3.140  13.350 -0.4662 -2.4165  1.0156
17428TIP3   OH273774   0.374   4.477   1.149  0.4183 -0.3206 -0.2970
17428TIP3    H173775   0.428   4.399   1.166  1.5450  0.0240 -2.0395
17428TIP3    H273776   0.302   4.470   1.211  0.8580 -2.4063  0.0603
17429TIP3   OH273777   1.683   4.522  14.122  0.3604  0.1487  0.2616
17429TIP3    H173778   1.611   4.471  14.160  0.3458  0.9754  1.3785
17429TIP3    H273779   1.641   4.595  14.078  0.4183 -0.4701 -0.8835
17430TIP3   OH273780   3.380   6.110  15.383 -0.5654 -0.3134  0.2111
17430TIP3    H173781   3.376   6.076  15.293  0.0546  0.6461 -0.2016
17430TIP3    H273782   3.289   6.114  15.411 -0.7029 -1.5375 -0.0143
17431TIP3   OH273783   6.815   4.634  15.630 -0.2004  0.3126  0.1945
17431TIP3    H173784   6.811   4.557  15.572 -0.5528  0.0960  0.5022
17431TIP3    H273785   6.813   4.709  15.571  2.3091  0.1038 -0.2699
17432TIP3   OH273786   4.615   4.670  11.501  0.5777 -0.2007 -0.6040
17432TIP3    H173787   4.667   4.686  11.422  1.4790  0.8489  0.1644
17432TIP3    H273788   4.677   4.684  11.573 -0.6507  0.5627  0.3322
17433TIP3   OH273789   1.333   1.175  11.972 -0.5500 -0.0803 -0.4416
17433TIP3    H173790   1.383   1.249  11.936  1.6983 -0.5904  1.3855
17433TIP3    H273791   1.253   1.215  12.007  1.1924  1.7771  1.6528
17434TIP3   OH273792   5.800   4.280   5.601  0.0630 -0.2301 -0.5728
17434TIP3    H173793   5.725   4.323   5.643 -0.4118 -0.8045 -0.8184
17434TIP3    H273794   5.871   4.343   5.610 -0.5412  0.4813 -0.6455
17435TIP3   OH273795   0.910   3.388  12.441  0.3751 -0.5197 -0.3149
17435TIP3    H173796   0.984   3.412  12.497  0.6916  0.3129 -1.0679
17435TIP3    H273797   0.926   3.296  12.418  0.8018 -0.5507  0.0837
17436TIP3   OH273798   4.023   5.854   1.064 -0.6569  0.1218  0.1879
17436TIP3    H173799   3.946   5.846   1.009 -0.7158 -1.5776  0.4531
17436TIP3    H273800   4.009   5.790   1.135  0.9669 -0.2388  0.2365
17437TIP3   OH273801   2.236   3.066   1.522  0.0562  0.3070 -0.2436
17437TIP3    H173802   2.264   3.078   1.613 -0.3305  0.1105 -0.0933
17437TIP3    H273803   2.317   3.071   1.471  0.3435 -0.0857  0.1626
17438TIP3   OH273804   6.556   5.195  12.604  0.4702  0.2908 -0.0914
17438TIP3    H173805   6.602   5.210  12.687 -1.1656 -0.7897  1.0651
17438TIP3    H273806   6.482   5.140  12.627 -0.1726  0.1512 -2.2623
17439TIP3   OH273807   1.538   6.737  11.604  0.4599 -0.2843  0.1632
17439TIP3    H173808   1.496   6.806  11.657  0.4134 -0.3281  0.1825
17439TIP3    H273809   1.632   6.749  11.619  0.4527 -0.2152  0.1548
17440TIP3   OH273810   5.568   0.142   1.941  0.5077 -0.8217  0.2332
17440TIP3    H173811   5.577   0.194   1.861  0.1892  1.2087  1.4341
17440TIP3    H273812   5.632   0.072   1.932  0.8713 -0.3012 -1.5410
17441TIP3   OH273813   4.323   2.667  12.863 -0.2368  0.2398 -0.4407
17441TIP3    H173814   4.303   2.635  12.951  1.7704 -1.5708 -0.5441
17441TIP3    H273815   4.278   2.751  12.857  0.1547  0.7869  2.5943
17442TIP3   OH273816   6.028   5.497   1.120 -0.4953  0.0152 -0.3629
17442TIP3    H173817   5.949   5.546   1.141 -0.4213 -1.0188  2.8262
17442TIP3    H273818   6.081   5.557   1.067 -1.7652  2.1565  0.6863
17443TIP3   OH273819   5.912   1.151   3.263  0.0805 -0.0945  0.6121
17443TIP3    H173820   5.964   1.221   3.302  1.0694 -1.1511  1.2413
17443TIP3    H273821   5.952   1.137   3.177  0.2400 -0.2620  0.7128
17444TIP3   OH273822   4.434   5.083   6.415 -0.1597  0.0368 -0.5136
17444TIP3    H173823   4.387   5.002   6.431  0.3900 -0.5155 -1.5695
17444TIP3    H273824   4.399   5.145   6.480  0.7696 -1.5355  1.5705
17445TIP3   OH273825   5.824   5.455   1.296 -0.9744  0.4906 -0.1518
17445TIP3    H173826   5.889   5.406   1.246 -0.2528  0.2951  0.9334
17445TIP3    H273827   5.740   5.430   1.259 -0.8305 -3.1061  1.5646
17446TIP3   OH273828   6.019   6.341  14.228 -0.0135 -0.0163 -0.2806
17446TIP3    H173829   6.087   6.320  14.292 -1.1823  1.0754  1.4033
17446TIP3    H273830   6.067   6.374  14.152  1.3618  0.5026  0.7651
17447TIP3   OH273831   6.305   1.423  13.033  0.0453 -0.5285 -0.3755
17447TIP3    H173832   6.239   1.445  12.967  0.5104  0.0988 -0.6406
17447TIP3    H273833   6.388   1.429  12.986  0.5849  2.1080  0.7676
17448TIP3   OH273834   5.079   6.561   0.813 -0.2312 -0.1269  0.1924
17448TIP3    H173835   5.091   6.499   0.741  0.4146 -0.3883  0.5221
17448TIP3    H273836   5.168   6.583   0.841 -0.2668  3.1988 -1.8030
17449TIP3   OH273837   1.098   3.559  16.195 -0.3690 -0.0620 -0.4397
17449TIP3    H173838   1.123   3.642  16.154 -0.6386 -0.3123 -1.1356
17449TIP3    H273839   1.175   3.503  16.185 -0.5928 -0.2692 -1.0152
17450TIP3   OH273840   4.139   4.601  13.291 -0.0665 -0.1643 -0.0087
17450TIP3    H173841   4.210   4.663  13.275  1.5390 -1.0540  2.8235
17450TIP3    H273842   4.081   4.646  13.352 -1.0896 -0.0518 -1.0323
17451TIP3   OH273843   0.267   1.524  12.268 -0.5626 -0.1541 -0.1841
17451TIP3    H173844   0.328   1.589  12.234  1.4349 -2.2805 -0.9598
17451TIP3    H273845   0.308   1.492  12.349 -2.4331  0.7989  1.2046
17452TIP3   OH273846   2.501   2.407  10.850  0.8578 -0.2512 -0.1585
17452TIP3    H173847   2.520   2.499  10.831 -2.0241  0.3009 -0.8307
17452TIP3    H273848   2.542   2.360  10.777 -0.9240  0.9181 -2.0423
17453TIP3   OH273849   5.307   6.543   2.280 -0.1287 -0.0452  0.2921
17453TIP3    H173850   5.242   6.478   2.252 -0.7552  0.3138  0.8718
17453TIP3    H273851   5.323   6.523   2.372  0.3848  0.0441  0.2252
17454TIP3   OH273852   0.011   2.816  15.671  0.0711  0.2425  0.2212
17454TIP3    H173853  -0.079   2.848  15.673 -1.1846 -2.9079 -0.3676
17454TIP3    H273854   0.045   2.834  15.759 -2.1356 -0.9219  1.4028
17455TIP3   OH273855   0.884   5.595   3.737  0.2648  0.1772 -0.5667
17455TIP3    H173856   0.947   5.525   3.756 -0.9240 -0.7992 -0.1045
17455TIP3    H273857   0.876   5.595   3.642  0.0095 -0.5686 -0.5527
17456TIP3   OH273858   2.644   5.523  16.310 -0.5444 -0.3850  0.6197
17456TIP3    H173859   2.733   5.556  16.325 -0.6970  0.3289 -0.0134
17456TIP3    H273860   2.649   5.474  16.228 -0.4424 -1.5181  1.2794
17457TIP3   OH273861   0.223   1.128   5.720 -0.0110 -0.1500 -0.2251
17457TIP3    H173862   0.234   1.161   5.631 -1.0260 -0.0224 -0.3170
17457TIP3    H273863   0.158   1.059   5.712 -1.1360  0.7713  0.5945
17458TIP3   OH273864   6.314   6.533   4.006 -0.1976  0.4734 -0.1669
17458TIP3    H173865   6.396   6.524   3.957 -0.3677 -1.0496 -0.2289
17458TIP3    H273866   6.246   6.532   3.938 -0.4353 -1.6376  0.0483
17459TIP3   OH273867   5.096   1.418   0.749  0.4881  0.2019 -0.3016
17459TIP3    H173868   5.002   1.431   0.750  0.7359  2.6099 -1.3243
17459TIP3    H273869   5.123   1.447   0.662  2.2204 -0.0810  0.0990
17460TIP3   OH273870   2.679   1.858   2.739 -0.8702  0.6140  0.2928
17460TIP3    H173871   2.621   1.857   2.663  1.3093 -0.1588 -1.4860
17460TIP3    H273872   2.682   1.766   2.768  0.8305  0.2628 -0.8335
17461TIP3   OH273873   4.218   0.092  14.850 -0.3935 -0.0573  0.0821
17461TIP3    H173874   4.277   0.108  14.924 -1.5159  0.7833  0.8295
17461TIP3    H273875   4.263   0.026  14.797  1.7835  1.4062 -0.0171
17462TIP3   OH273876   4.183   0.996   4.547  0.0215  0.5262 -0.1194
17462TIP3    H173877   4.231   0.915   4.530  0.1359  0.2508  1.4060
17462TIP3    H273878   4.091   0.970   4.544  0.0785  0.0505  1.6159
17463TIP3   OH273879   0.980   0.363  12.389  0.2605 -0.0588 -0.2607
17463TIP3    H173880   0.956   0.371  12.481  1.3406 -0.5359  0.0797
17463TIP3    H273881   0.935   0.436  12.346  0.0487  0.3958  0.7031
17464TIP3   OH273882   4.005   3.084   5.686 -0.0909  0.5245 -0.1288
17464TIP3    H173883   4.017   3.056   5.777 -1.8564  0.5788  0.1525
17464TIP3    H273884   4.064   3.028   5.636  0.1811 -0.1786  0.9457
17465TIP3   OH273885   4.368   4.089   1.030 -0.6927  0.2679  0.7513
17465TIP3    H173886   4.329   4.151   1.093 -1.3083 -0.2584  0.9050
17465TIP3    H273887   4.396   4.015   1.084 -0.1911  0.2975  0.5372
17466TIP3   OH273888   5.385   2.866  13.914 -0.0045  0.2258  0.2067
17466TIP3    H173889   5.430   2.782  13.915 -0.2868  0.0718  1.1574
17466TIP3    H273890   5.452   2.929  13.890  0.4093 -0.1687  0.3157
17467TIP3   OH273891   3.902   1.725  14.008 -0.2357 -0.2992  0.0778
17467TIP3    H173892   3.973   1.677  13.966 -0.9008 -1.7427  0.5393
17467TIP3    H273893   3.940   1.810  14.030  1.7124 -1.4153  1.3211
17468TIP3   OH273894   6.692   1.145   1.951 -0.4037 -0.3365  0.2562
17468TIP3    H173895   6.651   1.231   1.946  0.1607 -0.0693  0.1554
17468TIP3    H273896   6.669   1.102   1.869  0.4833  0.2528 -0.3175
17469TIP3   OH273897   6.413   1.844  15.527  0.1783 -0.3044 -0.7306
17469TIP3    H173898   6.375   1.923  15.489  0.1764  0.0034 -0.1002
17469TIP3    H273899   6.403   1.855  15.622  0.8774 -0.7030 -0.6014
17470TIP3   OH273900   5.211   0.597  12.135  0.3483 -0.1651  0.0022
17470TIP3    H173901   5.231   0.515  12.179 -1.7692 -0.5629  0.3368
17470TIP3    H273902   5.240   0.665  12.196  1.1938 -0.6766  0.1751
17471TIP3   OH273903   0.187   0.093   5.117  0.1197  0.0664 -0.3642
17471TIP3    H173904   0.195   0.013   5.065 -1.4674 -0.7452  0.5826
17471TIP3    H273905   0.274   0.106   5.154  0.4260 -1.1800 -0.6081
17472TIP3   OH273906   3.597   6.443  14.889 -0.3008 -0.1267 -0.0381
17472TIP3    H173907   3.652   6.521  14.882  1.5625 -1.3873 -0.2733
17472TIP3    H273908   3.621   6.389  14.813 -2.8031 -0.2248 -0.8647
17473TIP3   OH273909   2.806   0.327  13.964 -0.6548 -1.0264 -0.5109
17473TIP3    H173910   2.854   0.347  14.045  0.9413 -0.7659 -1.4787
17473TIP3    H273911   2.731   0.275  13.993 -1.2181  0.6708  1.3546
17474TIP3   OH273912   6.046   0.584  10.798 -0.7701 -0.1700 -0.0461
17474TIP3    H173913   6.051   0.554  10.889  0.3205  0.2744  0.0595
17474TIP3    H273914   6.114   0.535  10.753  0.0774  1.0792 -0.1685
17475TIP3   OH273915   6.614   3.691   2.729  0.0658  0.7804 -0.1838
17475TIP3    H173916   6.636   3.657   2.816  1.0026  0.9016 -0.3598
17475TIP3    H273917   6.518   3.688   2.725  0.0935 -1.7735 -0.1832
17476TIP3   OH273918   0.059   4.050  16.618 -0.3719  0.6837 -0.3357
17476TIP3    H173919   0.119   4.009  16.680 -1.6884 -0.0031  0.5534
17476TIP3    H273920   0.079   4.010  16.534 -1.0594 -1.2100  0.3611
17477TIP3   OH273921   4.654   4.554  10.803 -0.0944 -0.0496 -0.1054
17477TIP3    H173922   4.734   4.604  10.789  0.5653 -0.1792  2.6501
17477TIP3    H273923   4.583   4.617  10.791  0.5436  0.6691 -0.1491
17478TIP3   OH273924   6.220   1.018   6.265 -0.1727  0.2409 -0.4722
17478TIP3    H173925   6.166   0.964   6.323 -1.6584 -0.7815 -2.6825
17478TIP3    H273926   6.299   1.036   6.316 -0.8232 -1.7080  1.3761
17479TIP3   OH273927   3.800   6.129   1.065  0.3351  0.3878 -0.4522
17479TIP3    H173928   3.808   6.127   0.969 -3.1817 -1.8926 -0.8496
17479TIP3    H273929   3.791   6.037   1.090  0.1762  1.0169  2.0084
17480TIP3   OH273930   1.768   6.470   0.206  0.0793 -0.4743  0.5957
17480TIP3    H173931   1.729   6.444   0.289  1.1659 -0.6404  1.0709
17480TIP3    H273932   1.704   6.530   0.167 -1.0273 -1.4050  0.9347
17481TIP3   OH273933   1.467   5.687   6.041 -0.0576 -0.4246 -0.1838
17481TIP3    H173934   1.479   5.656   5.951  2.5725 -0.6393  0.1661
17481TIP3    H273935   1.554   5.682   6.080 -0.5032  2.5897  1.4820
17482TIP3   OH273936   2.913   2.826  15.487  0.0759 -0.3965 -0.1569
17482TIP3    H173937   2.939   2.827  15.395 -1.6998 -1.7015 -0.7262
17482TIP3    H273938   2.894   2.734  15.505  1.2832 -0.3079  1.8136
17483TIP3   OH273939   1.148   5.421  13.631 -0.2310  0.3042 -0.1250
17483TIP3    H173940   1.177   5.463  13.550  6.4365  0.2608  1.6242
17483TIP3    H273941   1.133   5.494  13.691 -1.4020  0.2709 -0.3606
17484TIP3   OH273942   2.380   2.985   4.006  0.0735  0.2637  0.8829
17484TIP3    H173943   2.379   2.948   3.918 -1.9085  1.4277  0.3552
17484TIP3    H273944   2.468   3.019   4.018  0.1165  0.8767 -0.9974
17485TIP3   OH273945   5.613   4.339   4.819 -0.4708 -0.0247 -0.2404
17485TIP3    H173946   5.613   4.414   4.878  0.4846  1.3359 -1.8784
17485TIP3    H273947   5.552   4.277   4.859  0.0664  0.8432  2.0965
17486TIP3   OH273948   0.687   5.418   2.516  0.3523  0.2718 -0.0450
17486TIP3    H173949   0.758   5.360   2.543  1.2381  1.3103 -0.0603
17486TIP3    H273950   0.713   5.504   2.549 -1.7860  0.3938  1.5310
17487TIP3   OH273951   6.121   4.050  14.287  0.0564 -0.2544 -0.8007
17487TIP3    H173952   6.176   4.074  14.362  1.6063 -0.2202 -1.9047
17487TIP3    H273953   6.106   3.956  14.297  0.2495 -0.2502 -0.4586
17488TIP3   OH273954   4.785   1.749   3.745  0.0150 -0.3404  0.0313
17488TIP3    H173955   4.767   1.777   3.655  1.0425 -1.7815 -0.6581
17488TIP3    H273956   4.699   1.730   3.782 -0.3221 -1.6473 -1.3242
17489TIP3   OH273957   2.156   3.679   0.825 -0.0210 -0.3500 -0.1875
17489TIP3    H173958   2.073   3.721   0.806 -0.3508 -0.9401 -0.0647
17489TIP3    H273959   2.147   3.590   0.793  0.8343 -0.2109 -0.8444
17490TIP3   OH273960   0.389   4.869   2.877 -0.7478  0.2529 -0.6952
17490TIP3    H173961   0.309   4.884   2.826 -0.9531  0.5465 -0.2963
17490TIP3    H273962   0.460   4.879   2.813 -1.0961 -2.6183 -1.6370
17491TIP3   OH273963   4.891   3.869  14.710 -0.4687 -0.5698 -0.0796
17491TIP3    H173964   4.885   3.773  14.702  1.4309 -0.6042 -2.3006
17491TIP3    H273965   4.810   3.901  14.671 -1.3916 -1.2353  1.2051
17492TIP3   OH273966   5.742   5.343  15.113  0.0670 -0.2098  0.6830
17492TIP3    H173967   5.719   5.430  15.146 -1.5485  1.4250 -3.9575
17492TIP3    H273968   5.670   5.287  15.142 -2.3474  1.5819 -1.3537
17493TIP3   OH273969   5.684   3.013   6.199  0.9128 -0.6741  0.2727
17493TIP3    H173970   5.739   2.938   6.224 -0.5636 -1.1665  2.3665
17493TIP3    H273971   5.597   2.990   6.232  0.1768  1.5066  0.0060
17494TIP3   OH273972   3.226   1.434  11.062 -0.2553  0.2935  0.6291
17494TIP3    H173973   3.216   1.458  10.970  0.8931  0.8783  0.6311
17494TIP3    H273974   3.190   1.346  11.068  0.5329 -0.1444 -0.5989
17495TIP3   OH273975   6.143   6.392  16.861 -0.7814  0.6741  0.7739
17495TIP3    H173976   6.197   6.470  16.868 -1.7735  1.2601  2.6902
17495TIP3    H273977   6.137   6.358  16.950 -2.9441  0.2418  0.5363
17496TIP3   OH273978   5.159   2.366  10.569  0.7983 -0.0124 -0.5149
17496TIP3    H173979   5.131   2.351  10.479 -1.3702 -0.7880  0.2262
17496TIP3    H273980   5.085   2.411  10.610  1.0801 -1.0342  1.2464
17497TIP3   OH273981   3.129   3.790  12.689  0.0673 -0.8228 -0.3205
17497TIP3    H173982   3.050   3.798  12.635 -0.8934 -0.3026  1.1026
17497TIP3    H273983   3.197   3.764  12.628 -1.0190 -0.4402 -1.7458
17498TIP3   OH273984   6.533   2.372   4.726  0.1672 -0.1639 -0.2047
17498TIP3    H173985   6.567   2.285   4.745  0.6488  0.3315  1.3927
17498TIP3    H273986   6.611   2.426   4.711 -0.0157  0.4059  0.8104
17499TIP3   OH273987   0.434   4.550   2.574 -0.3599 -0.2700 -0.4584
17499TIP3    H173988   0.364   4.493   2.544  1.7333 -2.9903 -0.5418
17499TIP3    H273989   0.444   4.530   2.667  0.0355  0.4100 -0.3400
17500TIP3   OH273990   0.265   3.686  15.233 -0.3421 -0.0517  0.2716
17500TIP3    H173991   0.207   3.662  15.161  2.3870 -2.4461 -1.2996
17500TIP3    H273992   0.212   3.746  15.287 -3.7265 -0.9827 -1.7286
17501TIP3   OH273993   3.171   0.456   6.217 -0.2258  0.1898  0.2777
17501TIP3    H173994   3.083   0.483   6.191  1.1451  1.9960 -3.1067
17501TIP3    H273995   3.177   0.365   6.187 -0.1725  0.8584 -1.8943
17502TIP3   OH273996   2.995   3.815  12.339  0.1713 -0.1752  0.0594
17502TIP3    H173997   2.924   3.833  12.277 -0.3610  1.4928  1.0843
17502TIP3    H273998   2.957   3.836  12.425  2.0181  1.1501  0.6027
17503TIP3   OH273999   0.301   6.662  11.813 -0.4694  0.1425 -0.0875
17503TIP3    H174000   0.381   6.621  11.846  0.3614  1.4871 -0.3502
17503TIP3    H274001   0.252   6.687  11.892 -0.2425  0.0500  0.0815
17504TIP3   OH274002   4.051   4.996   3.095  0.0317 -0.3907  0.6317
17504TIP3    H174003   4.010   4.996   3.181  0.8323  1.2079  1.0486
17504TIP3    H274004   3.991   5.047   3.040 -0.0689 -0.6903  0.4670
17505TIP3   OH274005   5.720   3.881  16.370  0.1062  0.1947  0.3877
17505TIP3    H174006   5.810   3.872  16.403  0.6631  2.6521 -0.2864
17505TIP3    H274007   5.665   3.849  16.442  1.4780 -0.6769  1.1024
17506TIP3   OH274008   5.619   5.410   5.588  0.1331  0.0993 -0.0199
17506TIP3    H174009   5.539   5.425   5.537 -0.8819 -0.4224  1.3490
17506TIP3    H274010   5.625   5.487   5.645  0.1589 -0.2232  0.4191
17507TIP3   OH274011   1.178   2.569   0.831 -0.4345 -0.1575  0.7343
17507TIP3    H174012   1.083   2.566   0.841 -0.3787 -2.3615  1.2713
17507TIP3    H274013   1.192   2.573   0.736 -1.0948 -1.1643  0.5739
17508TIP3   OH274014   1.963   0.018   0.022 -0.2762 -0.0492 -0.1373
17508TIP3    H174015   1.872  -0.002  -0.002 -0.1913 -0.0822 -0.4342
17508TIP3    H274016   2.007   0.034  -0.061 -0.3835  1.5847  0.0820
17509TIP3   OH274017   4.520   0.849  11.810 -0.1443  0.2174 -0.2085
17509TIP3    H174018   4.586   0.792  11.771 -0.0246 -1.2280  1.9352
17509TIP3    H274019   4.457   0.788  11.850 -0.6206  1.5740  1.1857
17510TIP3   OH274020   1.478   4.283   0.020  0.1842 -0.0144 -0.5134
17510TIP3    H174021   1.474   4.287   0.115 -0.4042  0.1057 -0.5361
17510TIP3    H274022   1.535   4.356  -0.005  0.0093  0.2063 -0.2739
17511TIP3   OH274023   2.508   1.435   4.587 -0.2186  0.6058 -0.3996
17511TIP3    H174024   2.417   1.455   4.609  0.1439  0.4593  1.3764
17511TIP3    H274025   2.559   1.478   4.655  0.7869 -2.7901  1.2198
17512TIP3   OH274026   3.927   3.871  12.972 -0.1170  0.2681  0.3236
17512TIP3    H174027   3.837   3.869  13.005 -1.8177  2.7072 -3.4278
17512TIP3    H274028   3.919   3.852  12.879  3.4438 -0.2152 -0.0365
17513TIP3   OH274029   1.106   6.375   2.207  0.3370  0.0353  0.4824
17513TIP3    H174030   1.178   6.313   2.200 -0.9305 -1.4442 -0.2265
17513TIP3    H274031   1.133   6.437   2.275  2.0618 -0.7133  0.5236
17514TIP3   OH274032   6.536   6.459  15.672  0.4372 -0.2634 -0.5161
17514TIP3    H174033   6.519   6.376  15.628 -1.8773  0.5853 -1.3844
17514TIP3    H274034   6.591   6.508  15.610 -0.6556 -0.0665 -1.3743
17515TIP3   OH274035   4.712   3.594  16.812 -0.1503 -0.2620 -0.3434
17515TIP3    H174036   4.646   3.590  16.881  0.2509  1.8929  0.2461
17515TIP3    H274037   4.707   3.684  16.780  2.4388 -0.0359 -0.3279
17516TIP3   OH274038   2.299   3.600   4.455  0.7034 -0.1659 -0.3262
17516TIP3    H174039   2.241   3.536   4.412 -0.3436 -0.3304  1.2426
17516TIP3    H274040   2.268   3.685   4.423  0.2826 -0.3060 -0.2987
17517TIP3   OH274041   6.183   3.571   1.276  0.0729 -0.0471  0.1626
17517TIP3    H174042   6.128   3.496   1.297  0.3598 -0.0962  0.7569
17517TIP3    H274043   6.264   3.533   1.242  0.0378  0.0067  0.0175
17518TIP3   OH274044   4.828   2.789   5.118 -0.0540 -0.0416  0.0536
17518TIP3    H174045   4.858   2.842   5.044  0.9141  0.2700  0.6413
17518TIP3    H274046   4.903   2.733   5.138  0.1052  0.6255  1.4505
17519TIP3   OH274047   4.272   6.677   1.682 -0.0031  0.0669  0.3494
17519TIP3    H174048   4.208   6.614   1.650 -0.3010  0.2151  0.6373
17519TIP3    H274049   4.311   6.715   1.604 -1.9928  1.7239  0.1024
17520TIP3   OH274050   4.118   0.839  10.662  0.6146  0.8266 -0.2836
17520TIP3    H174051   4.138   0.844  10.755  0.6380  0.5323 -0.2717
17520TIP3    H274052   4.037   0.787  10.658  0.7477  0.6314 -0.4437
17521TIP3   OH274053   1.827   4.384   0.526 -0.3126  0.3359  0.0385
17521TIP3    H174054   1.856   4.438   0.452  0.2582  0.4933  0.3750
17521TIP3    H274055   1.742   4.421   0.550 -1.3876 -0.8500 -1.6963
17522TIP3   OH274056   3.020   5.998   0.887 -0.1387  0.1425  0.1085
17522TIP3    H174057   2.948   5.997   0.951 -0.8803 -1.9415 -0.6694
17522TIP3    H274058   3.036   6.091   0.870 -0.7059  0.7213  2.4201
17523TIP3   OH274059   2.228   0.657   5.901  0.5825 -0.4696  0.3603
17523TIP3    H174060   2.187   0.716   5.964 -0.8762 -1.1958  0.1332
17523TIP3    H274061   2.213   0.569   5.937  1.7665 -0.7802  0.1520
17524TIP3   OH274062   1.196   5.177   4.978  0.2893 -0.1426  0.0450
17524TIP3    H174063   1.212   5.118   4.905  1.8409  0.0308  0.2049
17524TIP3    H274064   1.229   5.262   4.948 -2.6163  0.9176 -0.4916
17525TIP3   OH274065   3.257   4.401  12.709  0.3617 -0.0176 -0.1379
17525TIP3    H174066   3.215   4.468  12.763 -0.5625  0.0185 -0.8832
17525TIP3    H274067   3.194   4.383  12.640 -0.0038 -2.6207  0.7739
17526TIP3   OH274068   4.823   4.793  13.686  0.2314  0.6161  0.5660
17526TIP3    H174069   4.887   4.844  13.736  0.0375  0.6650  0.7650
17526TIP3    H274070   4.842   4.702  13.711  1.0589  0.5151 -0.3411
17527TIP3   OH274071   1.978   4.313   5.789 -0.1082  0.3341 -0.4274
17527TIP3    H174072   1.901   4.350   5.833 -0.0926 -1.7037  1.5236
17527TIP3    H274073   2.050   4.328   5.851  0.6198  0.3374 -1.2604
17528TIP3   OH274074   5.888   0.805   4.552 -0.9916  0.1276 -0.1420
17528TIP3    H174075   5.959   0.846   4.602 -1.7383  1.6170 -0.2465
17528TIP3    H274076   5.932   0.746   4.492  0.1181  0.4730  0.3080
17529TIP3   OH274077   4.451   1.102  16.028 -0.0618  0.1208 -0.1137
17529TIP3    H174078   4.360   1.086  16.006  0.1876 -1.0046 -0.3733
17529TIP3    H274079   4.457   1.085  16.122  0.0588 -0.6943 -0.2624
17530TIP3   OH274080   5.849   5.153   4.274  0.0805  0.0362  0.0378
17530TIP3    H174081   5.797   5.232   4.287 -2.5256 -1.3729 -1.0633
17530TIP3    H274082   5.938   5.184   4.261 -0.3938  2.5876  2.1567
17531TIP3   OH274083   5.055   5.194  10.951  0.3905  0.5124  0.5207
17531TIP3    H174084   5.017   5.123  10.899 -1.3432  1.1918  0.7957
17531TIP3    H274085   5.039   5.273  10.900  1.5923  0.8113  0.5868
17532TIP3   OH274086   3.753   0.993  11.216 -0.3464  0.3170 -0.5570
17532TIP3    H174087   3.841   1.027  11.230 -0.1798  0.2495 -1.3518
17532TIP3    H274088   3.716   0.982  11.303  0.5239  0.1166 -0.2084
17533TIP3   OH274089   6.789   5.556   2.279  0.2377  0.0017 -0.1336
17533TIP3    H174090   6.837   5.483   2.240  0.1140  0.3013 -0.8468
17533TIP3    H274091   6.700   5.548   2.244  0.7848  1.8843 -2.1452
17534TIP3   OH274092   6.548   3.135  14.161  0.7583  0.1204  0.5502
17534TIP3    H174093   6.608   3.202  14.129  0.5135  0.8827  1.6425
17534TIP3    H274094   6.507   3.100  14.082  0.9872  1.1640 -0.0544
17535TIP3   OH274095   1.770   5.438  12.727 -0.8270 -0.3112  0.2303
17535TIP3    H174096   1.779   5.531  12.708 -0.7499 -0.0567  1.4480
17535TIP3    H274097   1.801   5.394  12.647  0.5257  0.6846  0.1688
17536TIP3   OH274098   2.498   4.266   6.483 -0.1679 -0.2535 -0.0368
17536TIP3    H174099   2.497   4.355   6.517  1.3843 -0.6010  1.0830
17536TIP3    H274100   2.591   4.245   6.474 -0.4733 -1.9466  0.3092
17537TIP3   OH274101   3.256   4.142  12.743 -0.0636  0.3399  0.2821
17537TIP3    H174102   3.264   4.237  12.741  0.0103  0.3404  0.6575
17537TIP3    H274103   3.308   4.114  12.818 -1.1782  0.1123  0.9934
17538TIP3   OH274104   0.322   2.176   5.758 -0.4917 -0.2887 -0.3523
17538TIP3    H174105   0.261   2.157   5.829 -1.6919  0.1553 -1.2468
17538TIP3    H274106   0.267   2.193   5.682  0.7318  0.6975 -1.0532
17539TIP3   OH274107   3.629   0.842  13.058  0.0594 -0.1947  0.3813
17539TIP3    H174108   3.636   0.929  13.097  0.7190 -1.3948  3.1605
17539TIP3    H274109   3.538   0.816  13.072  0.7533 -1.4390  3.2262
17540TIP3   OH274110   4.850   5.539   5.352  0.7965  0.7954 -0.3006
17540TIP3    H174111   4.908   5.464   5.341 -0.2049 -0.1888  0.7602
17540TIP3    H274112   4.826   5.564   5.263 -0.5535 -1.5733 -0.7138
17541TIP3   OH274113   4.415   2.899  15.950 -1.5251 -0.5242 -0.3054
17541TIP3    H174114   4.365   2.965  15.902  0.1975 -0.0816 -1.6180
17541TIP3    H274115   4.500   2.940  15.965 -1.1590 -1.6458  0.8519
17542TIP3   OH274116   2.057   2.011   5.072 -0.3659 -0.5549  0.1892
17542TIP3    H174117   1.993   1.978   5.136 -2.4359  1.2297 -0.8608
17542TIP3    H274118   2.036   1.964   4.991  0.0263 -0.3406 -0.0394
17543TIP3   OH274119   2.999   5.473   1.231  0.3586  0.0088  0.0789
17543TIP3    H174120   2.979   5.485   1.138  1.4042  0.4908 -0.0966
17543TIP3    H274121   2.977   5.556   1.272  0.0889 -0.1364  0.2342
17544TIP3   OH274122   4.443   3.321  12.176  0.2081 -0.2647  0.4524
17544TIP3    H174123   4.533   3.353  12.182  0.0793  0.1005  0.4675
17544TIP3    H274124   4.419   3.334  12.084  0.3317 -0.8080  0.3396
17545TIP3   OH274125   0.092   2.509   3.813  0.3040 -0.4299 -0.6124
17545TIP3    H174126   0.121   2.585   3.864 -1.2866 -1.5520  2.1821
17545TIP3    H274127   0.171   2.456   3.803  1.0131  0.6313 -0.8875
17546TIP3   OH274128   0.346   0.399  11.763 -0.6277 -0.2644  0.3956
17546TIP3    H174129   0.343   0.341  11.687 -2.4592  0.5160 -0.1859
17546TIP3    H274130   0.343   0.487  11.726 -1.2749  0.1341  1.3668
17547TIP3   OH274131   1.713   5.860  14.067  0.2459  0.0460  0.6897
17547TIP3    H174132   1.667   5.820  13.994 -0.5832  0.6547  0.8711
17547TIP3    H274133   1.678   5.816  14.145 -0.1516  0.6128  0.8379
17548TIP3   OH274134   2.398   1.353  10.399 -0.3712 -0.3456 -0.4715
17548TIP3    H174135   2.484   1.331  10.435  0.9347  1.6655 -2.1078
17548TIP3    H274136   2.335   1.318  10.462  1.5762 -2.9286  0.2117
17549TIP3   OH274137   2.646   6.419   2.332  0.8860 -0.0348  0.2095
17549TIP3    H174138   2.614   6.432   2.242  1.3172 -0.2851  0.0176
17549TIP3    H274139   2.567   6.401   2.383  0.4771  1.3483  0.1256
17550TIP3   OH274140   2.720   5.640  10.547 -0.4694 -0.7753 -0.5625
17550TIP3    H174141   2.735   5.729  10.577 -1.7751  0.0498 -2.1730
17550TIP3    H274142   2.795   5.590  10.580  0.7559  1.0999 -0.3778
17551TIP3   OH274143   2.660   5.523  13.849 -0.1625 -0.0063 -0.9976
17551TIP3    H174144   2.667   5.609  13.806  0.5414  1.2768  1.4676
17551TIP3    H274145   2.746   5.484  13.839  0.2644  0.6613 -0.1078
17552TIP3   OH274146   2.057   1.780   2.885  0.6712 -0.0754 -0.1663
17552TIP3    H174147   2.062   1.837   2.808 -0.2906  1.7033  1.0309
17552TIP3    H274148   2.070   1.692   2.850  0.0730  0.6541 -2.3918
17553TIP3   OH274149   5.994   6.293   2.931 -0.4135 -0.3865 -0.0727
17553TIP3    H174150   6.065   6.331   2.879  1.0624  0.1637  2.1957
17553TIP3    H274151   5.990   6.348   3.010 -3.2953 -0.5018 -0.0362
17554TIP3   OH274152   1.549   4.743  14.018 -0.1379 -0.2216 -0.4726
17554TIP3    H174153   1.567   4.836  14.010 -0.5260 -0.2566 -2.1332
17554TIP3    H274154   1.481   4.737  14.085  0.0710  0.6661 -0.1762
17555TIP3   OH274155   4.389   3.802   5.109 -0.4527  0.3923 -0.3586
17555TIP3    H174156   4.376   3.897   5.111  2.0274  0.8120  2.2435
17555TIP3    H274157   4.450   3.785   5.180 -1.5375 -3.3194 -0.1200
17556TIP3   OH274158   4.393   2.791   5.919 -0.4131 -0.5159 -0.5860
17556TIP3    H174159   4.330   2.791   5.991  2.4786  2.9583  2.3608
17556TIP3    H274160   4.466   2.740   5.951  0.1324 -0.6262 -1.9513
17557TIP3   OH274161   4.468   3.535  13.099 -0.7354  0.6041  0.6751
17557TIP3    H174162   4.433   3.462  13.049  1.4312  0.0789 -0.2079
17557TIP3    H274163   4.399   3.557  13.162 -2.3383 -0.6788 -0.5564
17558TIP3   OH274164   0.826   1.502  15.949  0.2108  0.0903  0.1593
17558TIP3    H174165   0.909   1.541  15.921  1.2015 -1.9174  0.1110
17558TIP3    H274166   0.843   1.407  15.950 -1.5440 -0.2706  1.9188
17559TIP3   OH274167   0.460   2.669   0.281 -0.1758  0.0068 -0.0224
17559TIP3    H174168   0.538   2.675   0.336  0.0733 -1.0379 -0.2410
17559TIP3    H274169   0.414   2.751   0.295 -0.1123 -0.2241  1.7432
17560TIP3   OH274170   1.891   5.271   2.782 -0.1935  0.3603 -0.3357
17560TIP3    H174171   1.838   5.192   2.793 -0.9846  0.6681 -1.7223
17560TIP3    H274172   1.962   5.246   2.723  0.5020  0.2792  0.5166
17561TIP3   OH274173   4.227   1.714  12.138  0.0542  0.5577  0.2821
17561TIP3    H174174   4.295   1.749  12.196  0.8754  2.0436 -1.4837
17561TIP3    H274175   4.146   1.718  12.190  0.8530  1.2236  1.5210
17562TIP3   OH274176   3.074   1.221  10.769 -0.2723  0.9763 -0.4515
17562TIP3    H174177   3.142   1.177  10.819 -0.9455  0.2223 -0.1862
17562TIP3    H274178   3.103   1.312  10.764  0.7642  0.6597 -0.3699
17563TIP3   OH274179   4.100   5.013  13.106  0.3295  0.5818  0.3077
17563TIP3    H174180   4.092   5.092  13.160 -0.5043  1.6499 -1.3090
17563TIP3    H274181   4.186   4.978  13.129  1.0265  2.3509  0.5777
17564TIP3   OH274182   4.754   6.033   1.652 -0.3124 -0.0367 -0.6067
17564TIP3    H174183   4.671   6.081   1.648 -0.5370 -0.2567  0.6777
17564TIP3    H274184   4.796   6.066   1.732  0.4446 -0.5342 -0.7948
17565TIP3   OH274185   4.345   5.297  13.692  0.1019  0.2939  0.5799
17565TIP3    H174186   4.390   5.358  13.633 -1.5367  2.4690  1.4420
17565TIP3    H274187   4.260   5.282  13.652  0.0774 -0.5578  0.9311
17566TIP3   OH274188   6.604   6.794   5.155  0.3491 -0.7555  0.2727
17566TIP3    H174189   6.671   6.835   5.209 -0.5668 -0.1595  0.9794
17566TIP3    H274190   6.632   6.703   5.147  1.0123 -0.6142  0.9059
17567TIP3   OH274191   5.126   6.510  11.843  0.0051  0.1979  0.4374
17567TIP3    H174192   5.073   6.466  11.910  0.9386 -1.9457 -0.1349
17567TIP3    H274193   5.216   6.500  11.874  0.3188  0.8005 -0.2481
17568TIP3   OH274194   1.257   3.425   0.127  0.1314  0.0460  0.1670
17568TIP3    H174195   1.350   3.441   0.112  0.0490  1.6324  1.1400
17568TIP3    H274196   1.243   3.336   0.095  2.1677 -0.5552  0.7640
17569TIP3   OH274197   0.987   0.074  13.042  0.0860 -0.7511  0.2960
17569TIP3    H174198   0.926   0.036  13.105  0.1154 -0.7782  0.3090
17569TIP3    H274199   0.971   0.168  13.047 -1.2626 -0.8726 -1.0450
17570TIP3   OH274200   6.659   1.116   0.955 -0.4170 -0.0916 -0.4570
17570TIP3    H174201   6.568   1.124   0.928 -0.9638  0.1068  1.3652
17570TIP3    H274202   6.671   1.023   0.974 -0.1650 -0.1550 -0.9095
17571TIP3   OH274203   0.825   3.422  13.964  0.0117 -0.3718 -0.0503
17571TIP3    H174204   0.778   3.346  13.929 -0.4050  0.1775 -0.7018
17571TIP3    H274205   0.913   3.416  13.925 -0.3018 -0.0307 -0.8258
17572TIP3   OH274206   2.247   5.378  17.110  0.5466  0.0389  0.2352
17572TIP3    H174207   2.184   5.337  17.051  1.6935 -0.1534 -0.8952
17572TIP3    H274208   2.244   5.324  17.189  1.1940 -1.6051 -0.7939
17573TIP3   OH274209   5.194   2.985   3.141 -0.0270 -0.1015 -0.0080
17573TIP3    H174210   5.170   2.913   3.083 -1.6346  0.1021  0.3532
17573TIP3    H274211   5.281   3.011   3.112 -0.5903 -0.3008 -2.0213
17574TIP3   OH274212   6.123   4.943   3.873 -0.2125 -0.1361  0.5742
17574TIP3    H174213   6.105   4.862   3.922 -1.8819  1.0039  1.9641
17574TIP3    H274214   6.045   4.996   3.885 -0.4081  0.5828 -2.7470
17575TIP3   OH274215   1.053   1.604  11.075  0.5349 -0.1623 -0.4599
17575TIP3    H174216   1.107   1.663  11.023 -0.3838  1.1582  0.0430
17575TIP3    H274217   1.115   1.542  11.112  2.0400  2.2572  1.4042
17576TIP3   OH274218   5.007   2.888  13.928 -0.1258 -0.7606  0.4123
17576TIP3    H174219   5.004   2.794  13.945 -0.0786 -0.5720  1.5998
17576TIP3    H274220   4.916   2.912  13.910 -0.1480 -1.0205  0.1722
17577TIP3   OH274221   3.986   3.833  14.843  0.1435  0.4056  0.6038
17577TIP3    H174222   3.931   3.772  14.892  0.8363  0.3918  1.3826
17577TIP3    H274223   3.994   3.794  14.756  0.9758 -0.8764  1.2292
17578TIP3   OH274224   3.045   1.932  17.107 -0.3084 -0.1144  0.0271
17578TIP3    H174225   2.999   1.979  17.177 -1.9506 -0.0303 -1.0705
17578TIP3    H274226   3.001   1.959  17.027  2.2116  0.6487 -1.2386
17579TIP3   OH274227   2.675   4.196   2.093  0.4916  0.2594 -0.6012
17579TIP3    H174228   2.630   4.280   2.099 -0.5999 -0.3057 -0.5946
17579TIP3    H274229   2.765   4.218   2.068  1.0679  1.6328  2.2356
17580TIP3   OH274230   6.648   0.996   0.507  0.1846  0.1661  0.1599
17580TIP3    H174231   6.563   1.017   0.547 -0.4168 -1.0092 -0.4322
17580TIP3    H274232   6.713   1.035   0.565 -0.4683 -3.3427  3.6588
17581TIP3   OH274233   2.048   0.689  12.967 -0.3619 -0.5556 -0.4312
17581TIP3    H174234   2.080   0.763  13.019 -0.0239 -0.8764 -0.1820
17581TIP3    H274235   2.043   0.722  12.878  1.6938 -0.8109 -0.6768
17582TIP3   OH274236   5.850   5.842   1.550  0.1825 -0.0371  0.2680
17582TIP3    H174237   5.901   5.871   1.474 -1.2865  0.2157 -0.6550
17582TIP3    H274238   5.815   5.757   1.524 -1.1737  0.5093  0.2270
17583TIP3   OH274239   6.491   2.200  11.238 -0.1722 -0.2746  0.6314
17583TIP3    H174240   6.521   2.186  11.328 -1.5746 -1.7657  0.9084
17583TIP3    H274241   6.549   2.146  11.185 -1.6700 -2.4431  1.0765
17584TIP3   OH274242   2.451   1.734   5.595 -0.3851  0.4950 -0.1407
17584TIP3    H174243   2.376   1.685   5.627 -0.0378  0.0963  0.0670
17584TIP3    H274244   2.470   1.697   5.509  1.0812 -1.0992  0.8045
17585TIP3   OH274245   0.482   5.478   5.120 -0.1031 -0.0152  0.1106
17585TIP3    H174246   0.486   5.383   5.126 -0.5871 -0.0633 -0.3317
17585TIP3    H274247   0.414   5.503   5.183  1.1778  0.1847  1.4997
17586TIP3   OH274248   5.238   0.211  10.153 -0.2319  0.4495  0.0476
17586TIP3    H174249   5.171   0.159  10.108  0.3844  0.3988 -0.8324
17586TIP3    H274250   5.190   0.285  10.190 -1.0622 -0.5000  0.9577
17587TIP3   OH274251   0.522   0.686  12.366 -0.0635  0.8645 -0.5921
17587TIP3    H174252   0.528   0.745  12.291  0.4733 -0.1197 -1.3450
17587TIP3    H274253   0.438   0.641  12.354 -0.2050  1.0526 -0.3280
17588TIP3   OH274254   3.515   4.197   1.201  0.2667 -0.0163  0.4565
17588TIP3    H174255   3.448   4.232   1.260 -0.3507 -0.5125  0.0608
17588TIP3    H274256   3.519   4.104   1.223  1.2851  0.1251  0.9133
17589TIP3   OH274257   2.515   2.365  16.529 -0.2513 -0.0899 -0.4052
17589TIP3    H174258   2.563   2.448  16.530  3.6646 -2.0981 -0.9930
17589TIP3    H274259   2.479   2.358  16.618  0.2106  1.7502 -0.0256
17590TIP3   OH274260   3.608   2.010   0.596 -0.6963 -0.1031 -0.1466
17590TIP3    H174261   3.584   1.929   0.551 -2.2672 -0.6539  1.5436
17590TIP3    H274262   3.524   2.054   0.612 -0.0944  0.6402  1.1272
17591TIP3   OH274263   3.234   2.383   0.306 -0.7653 -0.2179 -0.1546
17591TIP3    H174264   3.241   2.302   0.357  1.7489 -0.4122 -0.7008
17591TIP3    H274265   3.316   2.388   0.258 -1.0805  2.4359 -0.5359
17592TIP3   OH274266   3.522   5.725  10.926 -0.0299  0.6566  0.3335
17592TIP3    H174267   3.432   5.750  10.910  0.0241  0.5997 -0.0792
17592TIP3    H274268   3.530   5.719  11.021 -0.3221  1.1599  0.3882
17593TIP3   OH274269   4.547   2.741  13.053  0.3116 -0.0888  0.5638
17593TIP3    H174270   4.460   2.712  13.082  0.2794  0.6307  1.2037
17593TIP3    H274271   4.533   2.771  12.964 -0.5543  1.9690  1.3328
17594TIP3   OH274272   4.861   3.252  11.395  0.2502 -0.3075  0.5698
17594TIP3    H174273   4.813   3.253  11.311 -2.4055  1.1453  1.9678
17594TIP3    H274274   4.928   3.320  11.385  0.1532 -0.3535 -0.4966
17595TIP3   OH274275   2.123   4.289  12.376 -0.5682 -0.2820  0.2532
17595TIP3    H174276   2.107   4.195  12.364  0.1319 -0.5909  1.6153
17595TIP3    H274277   2.184   4.294  12.449  1.4756  1.1110 -1.4109
17596TIP3   OH274278   0.485   1.050   3.089 -0.4885  0.1917 -0.4706
17596TIP3    H174279   0.518   0.977   3.036  0.4335 -0.7200  1.2673
17596TIP3    H274280   0.536   1.125   3.060  1.0115 -0.5841  0.0371
17597TIP3   OH274281   5.083   2.141  16.730  0.2974  0.6028 -0.5079
17597TIP3    H174282   5.066   2.160  16.822 -0.2225  3.9542 -1.1904
17597TIP3    H274283   5.177   2.124  16.725  0.8045  2.9064  0.3226
17598TIP3   OH274284   3.718   2.635  17.093 -0.2197  0.2445 -0.6192
17598TIP3    H174285   3.693   2.721  17.059  0.4077  0.4894 -0.4552
17598TIP3    H274286   3.812   2.641  17.110 -0.2539 -0.3277 -0.1801
17599TIP3   OH274287   4.025   4.052   3.137 -0.0768  0.0483  0.3848
17599TIP3    H174288   4.064   4.129   3.096 -0.0867  0.2089  0.6780
17599TIP3    H274289   3.952   4.028   3.079 -1.4916  1.5879  1.4347
17600TIP3   OH274290   1.137   3.227  12.855  0.6378  0.8100 -0.1140
17600TIP3    H174291   1.051   3.204  12.890  1.6206 -0.4769  1.5888
17600TIP3    H274292   1.136   3.195  12.765 -0.1672 -0.5636  0.3553
17601TIP3   OH274293   3.287   1.503   6.048  0.4322  0.0192 -0.3127
17601TIP3    H174294   3.305   1.594   6.071  2.5057 -1.0533  2.9597
17601TIP3    H274295   3.344   1.485   5.974  2.3026  0.6545  0.9065
17602TIP3   OH274296   5.869   6.453  10.210 -0.1211  0.5804  0.2457
17602TIP3    H174297   5.963   6.470  10.209 -0.0307  0.0961  0.3998
17602TIP3    H274298   5.836   6.501  10.134  0.3993 -0.1026 -0.4257
17603TIP3   OH274299   3.204   1.623  16.876 -0.3117 -0.3743 -0.1969
17603TIP3    H174300   3.113   1.639  16.848 -0.1608  2.0183  0.4163
17603TIP3    H274301   3.255   1.690  16.829  0.9215 -0.7162  0.6174
17604TIP3   OH274302   2.809   0.204  14.203 -0.1444 -0.2286 -0.1624
17604TIP3    H174303   2.726   0.219  14.248  0.2441  1.6360  0.0114
17604TIP3    H274304   2.805   0.113  14.174 -2.0282 -0.3129  0.2781
17605TIP3   OH274305   2.608   4.053  12.512  0.7398 -0.5749 -0.1619
17605TIP3    H174306   2.605   3.968  12.556  1.7064 -0.2942  0.4967
17605TIP3    H274307   2.591   4.033  12.420 -2.6701 -1.0230  0.4433
17606TIP3   OH274308   6.052   5.777  14.275  0.0464 -0.8504  0.0635
17606TIP3    H174309   6.067   5.693  14.318  0.6561 -0.3050  0.9440
17606TIP3    H274310   5.958   5.779  14.258 -0.6100 -0.2612  3.1776
17607TIP3   OH274311   5.284   5.256   1.648 -0.1600 -0.1853 -0.4095
17607TIP3    H174312   5.289   5.161   1.647  0.0986 -0.2021  1.0539
17607TIP3    H274313   5.337   5.283   1.722 -0.1411  1.1173 -0.8593
17608TIP3   OH274314   6.180   2.191  12.278 -0.3003  0.5889 -0.2996
17608TIP3    H174315   6.245   2.197  12.208  0.3620  2.9623  0.4364
17608TIP3    H274316   6.126   2.269  12.268 -2.0069 -0.4763  0.1582
17609TIP3   OH274317   5.819   5.475  15.930 -0.0068 -0.1241  0.0472
17609TIP3    H174318   5.742   5.529  15.947  0.6186  0.9915 -0.5290
17609TIP3    H274319   5.795   5.388  15.961 -1.3059  0.3204  0.3464
17610TIP3   OH274320   2.918   6.826   4.258 -0.2246  0.0457 -0.2941
17610TIP3    H174321   2.995   6.793   4.305  0.4837  1.0182 -0.7251
17610TIP3    H274322   2.881   6.748   4.216 -0.9081 -0.8608  1.8558
17611TIP3   OH274323   4.848   1.290   5.722 -0.3301  0.2206  0.2167
17611TIP3    H174324   4.880   1.200   5.722  0.1123  0.3700 -0.5660
17611TIP3    H274325   4.927   1.343   5.714 -0.6795  0.6292 -0.6437
17612TIP3   OH274326   0.276   5.826   4.311  0.1771 -0.3955  0.5645
17612TIP3    H174327   0.364   5.855   4.288  0.0740  0.1405  0.8322
17612TIP3    H274328   0.290   5.762   4.382  0.2630  1.1518  2.0100
17613TIP3   OH274329   3.296   5.928   0.985  0.0523  0.6155  0.0033
17613TIP3    H174330   3.368   5.981   0.950 -0.8104  1.3540 -0.6745
17613TIP3    H274331   3.217   5.968   0.950 -0.7503  0.2798  1.3663
17614TIP3   OH274332   3.325   0.829  12.683 -0.6618  0.6354 -0.0879
17614TIP3    H174333   3.371   0.908  12.656 -0.1786  1.4393  2.7997
17614TIP3    H274334   3.255   0.860  12.741 -2.3527 -0.8737 -1.1957
17615TIP3   OH274335   3.129   3.694   0.757 -0.4206 -0.7911  0.7120
17615TIP3    H174336   3.079   3.642   0.695 -0.4426  1.0533 -0.8986
17615TIP3    H274337   3.093   3.782   0.750  1.5894  0.1273  1.0889
17616TIP3   OH274338   5.374   2.045   5.446 -0.0043  0.3547 -0.3867
17616TIP3    H174339   5.416   1.990   5.512  1.5660  2.2454  0.3082
17616TIP3    H274340   5.402   2.134   5.468 -2.0564  1.4171 -1.7080
17617TIP3   OH274341   5.657   5.357   0.198  0.0721  0.2915  0.1283
17617TIP3    H174342   5.691   5.269   0.182 -0.2475  0.1621  0.1407
17617TIP3    H274343   5.570   5.342   0.236  0.1471  0.6103  0.4270
17618TIP3   OH274344   0.527   2.807   4.907 -0.7397  0.0860  0.1308
17618TIP3    H174345   0.537   2.836   4.998  0.6796 -2.1068  0.7751
17618TIP3    H274346   0.445   2.758   4.906 -2.2730  2.4950 -0.5579
17619TIP3   OH274347   4.326   6.043  16.609  0.6290 -0.4452  0.7612
17619TIP3    H174348   4.300   6.078  16.694  0.8037  2.5899 -0.3020
17619TIP3    H274349   4.266   5.970  16.593  0.0158 -0.5123  3.0412
17620TIP3   OH274350   6.755   3.157  15.752  0.0729 -1.0775 -0.0153
17620TIP3    H174351   6.728   3.150  15.660  1.4891 -2.3960 -0.3706
17620TIP3    H274352   6.734   3.247  15.776  2.1220  0.1840 -2.4636
17621TIP3   OH274353   1.820   2.849   5.299 -0.3424 -0.7787  0.4176
17621TIP3    H174354   1.909   2.826   5.272 -0.6807 -0.9475 -0.5631
17621TIP3    H274355   1.829   2.871   5.392  0.8722 -0.0413  0.1570
17622TIP3   OH274356   2.806   1.173  11.687  0.1903  0.1891  0.1944
17622TIP3    H174357   2.829   1.252  11.638  0.7306  0.5975  1.0906
17622TIP3    H274358   2.885   1.152  11.737  0.0140 -0.8517  0.0690
17623TIP3   OH274359   4.659   2.788   4.225  0.3944  0.2851  0.3858
17623TIP3    H174360   4.566   2.770   4.240 -0.0257  2.4931  0.8284
17623TIP3    H274361   4.676   2.756   4.136 -0.5294 -0.9965  0.6446
17624TIP3   OH274362   1.516   4.675   1.980 -0.4529 -0.2012 -0.3650
17624TIP3    H174363   1.487   4.591   1.944  0.1011 -0.3614 -0.4345
17624TIP3    H274364   1.495   4.668   2.074  2.4797 -1.7254  0.3044
17625TIP3   OH274365   1.837   2.800  12.682  0.1992 -0.7419  0.1272
17625TIP3    H174366   1.914   2.755  12.648 -1.5259 -3.5896 -0.3828
17625TIP3    H274367   1.820   2.758  12.767 -1.0194 -0.5027  0.0234
17626TIP3   OH274368   2.725   1.623   0.227 -0.6536  0.0648  0.7114
17626TIP3    H174369   2.790   1.664   0.171 -0.4648 -0.8153  0.2627
17626TIP3    H274370   2.744   1.656   0.315 -1.1256  1.6632  0.2319
17627TIP3   OH274371   6.512   3.993  14.271 -0.7643  0.0339 -0.3275
17627TIP3    H174372   6.561   4.063  14.315 -1.4085  0.0321  0.4121
17627TIP3    H274373   6.549   3.913  14.307 -0.7092  0.0138 -0.4287
17628TIP3   OH274374   0.666   4.851  15.823 -0.4934 -0.7471 -0.1483
17628TIP3    H174375   0.754   4.860  15.860  0.0706 -1.1596 -1.3504
17628TIP3    H274376   0.607   4.877  15.894  0.6223  0.3168  0.4222
17629TIP3   OH274377   2.010   3.480  16.692  0.1097  0.0845  0.1531
17629TIP3    H174378   1.990   3.487  16.786  0.1328 -0.3550  0.1911
17629TIP3    H274379   2.048   3.393  16.682  1.6450  0.7455  0.0075
17630TIP3   OH274380   4.940   1.076   4.693  0.0144 -0.5839  0.1686
17630TIP3    H174381   4.993   1.081   4.613  0.2414  1.3980  0.3720
17630TIP3    H274382   4.961   1.157   4.739 -2.4812 -0.1696  0.7104
17631TIP3   OH274383   4.554   6.040  12.332 -0.1460  0.2518  0.3280
17631TIP3    H174384   4.584   6.089  12.409  0.0201 -0.6041  0.8220
17631TIP3    H274385   4.633   6.019  12.284 -0.1473 -0.1988  0.5234
17632TIP3   OH274386   1.343   4.421   2.731  0.1857 -0.3258  0.3087
17632TIP3    H174387   1.377   4.391   2.815  0.7633  0.1373  0.2501
17632TIP3    H274388   1.339   4.517   2.739 -2.6585 -0.3945  0.8844
17633TIP3   OH274389   5.814   3.875   0.415  0.2506 -0.0596  0.5155
17633TIP3    H174390   5.821   3.876   0.511 -0.0707  0.1032  0.5401
17633TIP3    H274391   5.821   3.967   0.390  0.7088 -0.1375  0.3505
17634TIP3   OH274392   5.045   0.096  16.633 -0.3315  0.1361 -0.2434
17634TIP3    H174393   5.104   0.093  16.708 -0.0444 -1.6276 -0.4963
17634TIP3    H274394   5.102   0.105  16.557 -0.5224  0.2709 -0.3742
17635TIP3   OH274395   5.344   0.536   6.260  0.0742  0.1370 -0.1143
17635TIP3    H174396   5.386   0.610   6.216  0.8025 -0.8080 -1.0660
17635TIP3    H274397   5.415   0.492   6.307 -0.4896  0.4616  1.0721
17636TIP3   OH274398   2.874   1.480  16.182  0.3085 -0.2876 -0.5246
17636TIP3    H174399   2.826   1.411  16.226 -1.9292  0.3368 -1.8264
17636TIP3    H274400   2.906   1.440  16.101  0.2148 -0.1521 -0.6294
17637TIP3   OH274401   2.230   0.216   4.865  0.2919 -1.3756 -0.1509
17637TIP3    H174402   2.261   0.215   4.956  1.2103 -2.0395 -0.4616
17637TIP3    H274403   2.283   0.284   4.823 -2.3791  1.3410  0.5283
17638TIP3   OH274404   3.738   6.467   5.383 -0.5799  0.4418  0.4270
17638TIP3    H174405   3.703   6.549   5.418  0.2287 -0.2513  3.0736
17638TIP3    H274406   3.693   6.399   5.432 -0.2660 -0.6832 -0.7948
17639TIP3   OH274407   6.321   2.827  11.527 -0.3064 -0.3435 -0.4405
17639TIP3    H174408   6.232   2.845  11.494 -0.7466 -1.9767 -0.2523
17639TIP3    H274409   6.359   2.768  11.461  1.7122  2.4361 -1.9627
17640TIP3   OH274410   6.760   5.646  11.220  0.3853 -0.0337 -0.0002
17640TIP3    H174411   6.707   5.724  11.200  0.5241 -0.0954 -0.6287
17640TIP3    H274412   6.838   5.656  11.165  0.4296 -0.5891 -0.0371
17641TIP3   OH274413   0.411   6.322  15.523 -0.1348 -0.3149 -0.2164
17641TIP3    H174414   0.433   6.382  15.452  1.2144  0.2059  0.5920
17641TIP3    H274415   0.392   6.239  15.481  0.9856 -0.1080 -1.1637
17642TIP3   OH274416   0.898   3.524  16.392  0.3390  0.2498 -0.1240
17642TIP3    H174417   0.962   3.528  16.320 -0.1462  0.8614 -0.5274
17642TIP3    H274418   0.823   3.478  16.354  0.2977  0.0747  0.1660
17643TIP3   OH274419   5.713   5.902  12.616  0.1094 -0.1725  0.4038
17643TIP3    H174420   5.749   5.815  12.601 -2.3439 -1.2821  0.4200
17643TIP3    H274421   5.672   5.926  12.532  1.9148  1.6456 -0.0591
17644TIP3   OH274422   0.258   1.658  10.695  0.2298  0.0342  0.2505
17644TIP3    H174423   0.165   1.684  10.698  0.3384  0.5411 -0.5076
17644TIP3    H274424   0.259   1.582  10.636  0.3713  0.3796 -0.1937
17645TIP3   OH274425   3.699   3.041  14.818 -0.3143 -0.1099 -0.4921
17645TIP3    H174426   3.673   2.994  14.898 -0.4209 -1.7119 -1.4335
17645TIP3    H274427   3.760   3.108  14.849 -1.2073  0.0451  1.0652
17646TIP3   OH274428   0.306   5.502   4.089  0.2951  0.5737  0.2620
17646TIP3    H174429   0.244   5.520   4.160 -1.7132 -0.5037 -1.1299
17646TIP3    H274430   0.355   5.584   4.079  1.0552  0.6024  3.1934
17647TIP3   OH274431   1.030   0.818  15.934 -0.5162 -0.7776  0.1247
17647TIP3    H174432   0.962   0.795  15.870  1.2305 -2.6514 -1.2289
17647TIP3    H274433   0.983   0.837  16.015 -2.6720 -0.9748 -1.0180
17648TIP3   OH274434   6.579   5.737  16.036 -0.2562 -0.0032 -0.0855
17648TIP3    H174435   6.662   5.783  16.042  1.1259 -2.5449  1.8868
17648TIP3    H274436   6.545   5.737  16.125 -2.3175  0.7431 -0.8073
17649TIP3   OH274437   3.733   2.656  11.137 -0.2900 -0.3417 -0.2523
17649TIP3    H174438   3.663   2.594  11.119 -1.2149  0.7705 -0.5939
17649TIP3    H274439   3.804   2.629  11.079 -0.7026 -1.0329 -0.4513
17650TIP3   OH274440   4.946   6.797   1.501  0.0825 -0.2978 -0.1888
17650TIP3    H174441   4.908   6.768   1.583 -2.4749  0.6642 -0.9327
17650TIP3    H274442   4.963   6.716   1.452  0.7385 -0.8234  0.8654
17651TIP3   OH274443   0.003   0.313  12.426  0.0050  0.1547  0.0361
17651TIP3    H174444   0.076   0.270  12.471  0.6321  1.5989  0.4507
17651TIP3    H274445   0.022   0.406  12.432 -2.1600  0.6201  0.6128
17652TIP3   OH274446   4.832   1.663   5.723  0.4907 -0.1037 -0.2779
17652TIP3    H174447   4.917   1.691   5.691  0.9330 -0.6376  0.4185
17652TIP3    H274448   4.834   1.680   5.817  0.7719 -2.3533  0.1908
17653TIP3   OH274449   6.754   2.674  16.938  0.3091 -0.2603  0.0585
17653TIP3    H174450   6.676   2.729  16.922 -0.7303 -1.7764 -0.3153
17653TIP3    H274451   6.719   2.595  16.979  1.1900 -2.2690 -2.7344
17654TIP3   OH274452   5.376   3.033   2.779  0.0316 -0.0935  0.9515
17654TIP3    H174453   5.467   3.047   2.807  0.6382 -1.8667  0.0594
17654TIP3    H274454   5.353   2.948   2.816 -0.7245 -0.3656 -0.1049
17655TIP3   OH274455   6.285   1.089  11.074  0.3685  0.1763  0.2042
17655TIP3    H174456   6.243   1.008  11.043 -0.3086  0.3192  0.7428
17655TIP3    H274457   6.213   1.143  11.105  0.7822  1.1415 -0.4705
17656TIP3   OH274458   1.160   1.371   5.692  0.0290  0.4431 -0.6164
17656TIP3    H174459   1.146   1.378   5.597 -1.1661  0.7744 -0.4399
17656TIP3    H274460   1.238   1.423   5.709  1.9321 -1.8286 -1.7605
17657TIP3   OH274461   2.664   0.418  13.416 -0.0814 -0.1420  0.3860
17657TIP3    H174462   2.572   0.438  13.432 -0.1466  2.0932 -2.1348
17657TIP3    H274463   2.662   0.341  13.359 -0.4307  0.2979 -0.2044
17658TIP3   OH274464   6.154   2.293  16.225 -0.0474  0.3033  0.2678
17658TIP3    H174465   6.140   2.216  16.281  0.7438 -0.6810 -0.8151
17658TIP3    H274466   6.123   2.265  16.139  3.1061  0.0051 -0.9037
17659TIP3   OH274467   0.570   5.388   5.504  0.4380 -1.0370 -0.7680
17659TIP3    H174468   0.606   5.345   5.582  1.3761 -1.9824 -1.6854
17659TIP3    H274469   0.630   5.364   5.434 -1.3786 -1.7818 -2.1654
17660TIP3   OH274470   2.782   5.276  14.194 -0.3859  0.3281 -0.5940
17660TIP3    H174471   2.740   5.293  14.279  0.3078  0.6928 -0.3109
17660TIP3    H274472   2.759   5.186  14.173  1.4415 -0.6433  1.1913
17661TIP3   OH274473   5.844   0.501  15.295  0.3661  0.3436 -0.2718
17661TIP3    H174474   5.869   0.470  15.208 -0.5170 -0.1240 -0.3657
17661TIP3    H274475   5.903   0.455  15.355  1.6919  1.4506 -0.6720
17662TIP3   OH274476   6.235   5.964  15.451 -0.5909 -0.3586 -0.3072
17662TIP3    H174477   6.223   6.034  15.387 -1.2501  0.2675  0.4841
17662TIP3    H274478   6.175   5.985  15.522  1.3930 -0.0188  1.3761
17663TIP3   OH274479   5.222   3.606  12.284 -0.2636 -0.3051  0.7953
17663TIP3    H174480   5.281   3.649  12.345  0.9240 -2.1874  1.0796
17663TIP3    H274481   5.202   3.522  12.325 -0.2298 -1.2099 -0.9276
17664TIP3   OH274482   6.209   2.244  13.884  0.7113 -0.4651  0.1745
17664TIP3    H174483   6.252   2.309  13.940 -0.5500  1.1292 -0.6141
17664TIP3    H274484   6.267   2.234  13.809  1.3977 -1.0318  0.7697
17665TIP3   OH274485   3.159   4.736   4.241  0.5268  0.3312 -0.2868
17665TIP3    H174486   3.174   4.802   4.173  2.8396 -1.0657 -1.2494
17665TIP3    H274487   3.072   4.701   4.221  0.0346  1.7836 -0.8654
17666TIP3   OH274488   2.416   2.698   6.682 -0.5698  0.4630  0.0408
17666TIP3    H174489   2.483   2.726   6.745  0.0256 -0.0015 -0.3738
17666TIP3    H274490   2.420   2.763   6.612  1.2351 -0.8848 -1.2209
17667TIP3   OH274491   1.886   0.371   1.283  0.5255 -0.1984 -0.4148
17667TIP3    H174492   1.889   0.464   1.305  1.0693 -0.8132  2.6044
17667TIP3    H274493   1.959   0.358   1.221  1.9761  1.0145  0.9477
17668TIP3   OH274494   6.672   3.922  15.668 -0.2331 -0.5942 -0.1954
17668TIP3    H174495   6.709   3.860  15.605  0.7835  2.1290 -2.4935
17668TIP3    H274496   6.747   3.971  15.701 -0.8202 -1.5088  2.8128
17669TIP3   OH274497   4.776   5.985  14.156  0.1080  0.6904  0.0339
17669TIP3    H174498   4.823   6.068  14.150  0.1596  0.5787 -1.3450
17669TIP3    H274499   4.687   6.010  14.180  0.3057  1.0805  0.3810
17670TIP3   OH274500   0.194   1.933  15.424 -0.0010  0.4239  0.6692
17670TIP3    H174501   0.263   1.975  15.476 -0.4122  2.3014 -0.2249
17670TIP3    H274502   0.218   1.950  15.333 -0.4346 -0.9314  0.2799
17671TIP3   OH274503   2.350   5.687   5.446 -0.1567  0.2714 -0.1291
17671TIP3    H174504   2.442   5.699   5.469 -0.0064 -1.1990  0.1179
17671TIP3    H274505   2.350   5.614   5.385 -1.3493 -1.2643  1.5977
17672TIP3   OH274506   6.666   1.409  16.532 -0.6234 -0.3125  0.0903
17672TIP3    H174507   6.579   1.424  16.495 -0.7725 -0.2918  0.4431
17672TIP3    H274508   6.725   1.416  16.457 -0.8424  0.4722 -0.0200
17673TIP3   OH274509   6.092   3.839  12.822  0.2589  0.3851  0.2267
17673TIP3    H174510   6.175   3.822  12.776 -0.0689  2.2586 -1.1914
17673TIP3    H274511   6.026   3.837  12.754 -0.7318  0.0304  1.1692
17674TIP3   OH274512   0.789   3.892  14.514 -0.1841  0.5513  0.3570
17674TIP3    H174513   0.879   3.922  14.510 -0.1584  0.3537 -1.1480
17674TIP3    H274514   0.770   3.885  14.608  2.1081 -1.5933  0.7766
17675TIP3   OH274515   1.316   3.635   4.239  0.4988  0.2979 -0.2217
17675TIP3    H174516   1.381   3.578   4.281  1.2047  0.3827 -1.1690
17675TIP3    H274517   1.241   3.579   4.223  1.0586 -0.2935 -0.8408
17676TIP3   OH274518   6.526   3.608  16.525 -0.1637  0.3202  0.0641
17676TIP3    H174519   6.465   3.584  16.594  0.2298 -0.4930  0.1461
17676TIP3    H274520   6.506   3.548  16.453  1.9317 -1.4883  0.8680
17677TIP3   OH274521   3.002   2.241   4.840  0.4057  0.0676 -0.2054
17677TIP3    H174522   2.982   2.276   4.754  2.2106  2.0183  0.0837
17677TIP3    H274523   3.002   2.146   4.828  0.4770  0.2888 -2.2935
17678TIP3   OH274524   6.282   0.188   1.291  0.4350 -0.0301  0.3161
17678TIP3    H174525   6.235   0.266   1.321  1.5874  1.7114 -1.9955
17678TIP3    H274526   6.262   0.183   1.198  1.4054 -1.7868  0.1642
17679TIP3   OH274527   0.765   2.427  12.185 -0.0908  0.5119  0.0992
17679TIP3    H174528   0.796   2.516  12.201  1.8420 -0.0910 -0.0832
17679TIP3    H274529   0.817   2.373  12.244  1.9137 -0.9481 -2.7894
17680TIP3   OH274530   5.553   3.269   0.266 -0.2309 -0.3555 -0.2414
17680TIP3    H174531   5.475   3.264   0.321 -1.0829 -0.6152 -1.4281
17680TIP3    H274532   5.588   3.180   0.264 -0.1219 -0.3182 -0.0207
17681TIP3   OH274533   0.121   0.937   5.012 -0.6099 -0.0034  0.3316
17681TIP3    H174534   0.026   0.937   5.002 -0.6460  0.5669  0.6612
17681TIP3    H274535   0.147   1.027   4.996  0.1709 -0.6249 -2.3470
17682TIP3   OH274536   4.858   4.875   3.889  0.5035  0.5385 -0.0229
17682TIP3    H174537   4.849   4.839   3.801 -2.2926 -1.5417  0.9544
17682TIP3    H274538   4.952   4.889   3.900  1.2222 -1.6769 -2.3740
17683TIP3   OH274539   3.801   5.385  16.746  0.1110  0.2037 -0.3784
17683TIP3    H174540   3.710   5.384  16.777 -0.0546  1.0217 -0.8147
17683TIP3    H274541   3.853   5.392  16.826 -0.1368 -1.5268 -0.0262
17684TIP3   OH274542   4.586   1.334   5.147 -0.1251 -0.2595 -0.0309
17684TIP3    H174543   4.607   1.424   5.125  0.7571 -0.2966  0.6220
17684TIP3    H274544   4.596   1.329   5.242 -3.2238 -0.2672  0.4086
17685TIP3   OH274545   0.417   5.193   2.922 -0.5576 -0.4611 -0.2669
17685TIP3    H174546   0.468   5.125   2.966  1.6337  0.5528 -1.1263
17685TIP3    H274547   0.342   5.146   2.885  0.5673 -2.3140 -0.3243
17686TIP3   OH274548   1.546   3.547  12.228 -0.0339 -0.4246 -0.0718
17686TIP3    H174549   1.544   3.626  12.174  0.7050  0.5576  1.2786
17686TIP3    H274550   1.467   3.500  12.204 -0.8225  1.0331 -0.4610
17687TIP3   OH274551   0.760   5.761   0.833  0.3415 -0.4925 -0.2551
17687TIP3    H174552   0.794   5.678   0.866 -0.4697 -0.9227 -0.4842
17687TIP3    H274553   0.712   5.799   0.906  0.3676 -0.4168 -0.2769
17688TIP3   OH274554   1.052   3.917   1.851 -0.0305  0.1146  1.0190
17688TIP3    H174555   1.059   4.010   1.829  0.9695 -0.4230 -1.3159
17688TIP3    H274556   1.068   3.913   1.945  0.7459  2.2249  1.0312
17689TIP3   OH274557   3.702   0.842  11.961  1.0035 -0.2190 -0.2307
17689TIP3    H174558   3.682   0.779  11.891  0.0437 -0.3203  0.1218
17689TIP3    H274559   3.705   0.927  11.916 -0.0857 -0.2212 -0.3398
17690TIP3   OH274560   2.875   3.676   1.429  0.0353 -0.3087  0.3061
17690TIP3    H174561   2.934   3.738   1.471  1.6904 -1.8802  0.4505
17690TIP3    H274562   2.793   3.682   1.479  0.4621  1.0596  0.8756
17691TIP3   OH274563   4.721   0.231   5.228  0.2234 -0.0633  0.6667
17691TIP3    H174564   4.702   0.282   5.149  1.3249  1.2981  1.2502
17691TIP3    H274565   4.804   0.267   5.261 -0.4398 -0.2773  2.7001
17692TIP3   OH274566   3.555   5.815  16.131 -0.5148 -0.3777 -0.3807
17692TIP3    H174567   3.630   5.756  16.135 -0.4598 -0.2230  1.5483
17692TIP3    H274568   3.551   5.842  16.039 -0.1846 -2.8775 -1.1904
17693TIP3   OH274569   2.633   0.163  11.111  0.1967 -0.1158  0.3480
17693TIP3    H174570   2.692   0.088  11.119  0.7561  0.2422 -0.3633
17693TIP3    H274571   2.630   0.181  11.018  0.4479  1.0406  0.5491
17694TIP3   OH274572   2.687   1.741  16.529 -0.0523  0.2339 -0.0415
17694TIP3    H174573   2.610   1.697  16.493 -0.3416  0.1902  0.6159
17694TIP3    H274574   2.746   1.751  16.454 -1.1400  1.2510 -0.8134
17695TIP3   OH274575   1.705   2.670  15.879  0.4066  0.2986 -0.0049
17695TIP3    H174576   1.723   2.751  15.929 -0.3254  1.1710 -1.1182
17695TIP3    H274577   1.611   2.671  15.865  0.6341  0.3188 -1.7701
17696TIP3   OH274578   0.158   6.426  11.748 -0.4317  0.1674 -0.5349
17696TIP3    H174579   0.096   6.404  11.817  1.3350 -1.9244  0.5040
17696TIP3    H274580   0.205   6.502  11.781  0.9505 -1.2916  1.0398
17697TIP3   OH274581   6.013   1.806   4.447  0.2346  0.9361 -0.1960
17697TIP3    H174582   5.949   1.874   4.426  0.0423  0.6384 -0.5696
17697TIP3    H274583   6.097   1.844   4.423  0.0775  0.8387 -0.9279
17698TIP3   OH274584   0.251   5.203  12.744 -1.3129 -0.6840  0.3280
17698TIP3    H174585   0.330   5.164  12.782 -0.7762 -0.0083 -0.0780
17698TIP3    H274586   0.234   5.151  12.666 -0.6057 -0.1294 -0.2042
17699TIP3   OH274587   5.210   5.166  11.181  0.6728 -0.4202  0.2960
17699TIP3    H174588   5.204   5.249  11.229  1.1152 -0.9738  1.3250
17699TIP3    H274589   5.170   5.186  11.096  3.1683  1.6198 -0.5295
17700TIP3   OH274590   4.129   1.777  13.264  0.5297 -0.5383  0.5413
17700TIP3    H174591   4.101   1.710  13.326 -0.9225 -1.6902 -1.2516
17700TIP3    H274592   4.204   1.738  13.218 -2.8703 -3.1512 -3.6025
17701TIP3   OH274593   0.458   2.978  16.435 -0.2654 -0.6174  0.5164
17701TIP3    H174594   0.527   2.929  16.480 -0.5997 -0.4793  1.2034
17701TIP3    H274595   0.379   2.960  16.486 -0.3307  0.9130  1.0355
17702TIP3   OH274596   2.828   6.410  15.469  0.5339  0.2660 -0.6989
17702TIP3    H174597   2.845   6.445  15.557  0.7478  1.6306 -1.2652
17702TIP3    H274598   2.906   6.359  15.449  1.3420  1.4881 -0.8221
17703TIP3   OH274599   0.943   6.154  15.244 -0.1526  0.2788 -0.5671
17703TIP3    H174600   0.923   6.224  15.181  1.5088  0.9205 -0.4231
17703TIP3    H274601   0.948   6.075  15.191  0.3844  0.6718 -1.1161
17704TIP3   OH274602   1.363   6.289  11.071  0.5261 -0.4702 -0.3221
17704TIP3    H174603   1.390   6.199  11.055  0.4438 -0.2691 -1.7262
17704TIP3    H274604   1.296   6.306  11.005 -0.9899 -0.0362  1.2578
17705TIP3   OH274605   3.121   1.388  12.382  0.0490 -0.9526  0.4301
17705TIP3    H174606   3.151   1.315  12.436  0.4962 -1.0198  0.0996
17705TIP3    H274607   3.045   1.423  12.428  1.4427  0.0896  2.0506
17706TIP3   OH274608   5.715   0.763   0.174 -0.0584 -0.4432 -0.3141
17706TIP3    H174609   5.659   0.840   0.160 -0.5471 -0.5226  1.0545
17706TIP3    H274610   5.787   0.774   0.111 -1.1946  0.0544 -1.5714
17707TIP3   OH274611   3.084   3.621   3.027  0.2643 -0.9170  0.5702
17707TIP3    H174612   3.124   3.642   2.942  0.0514  0.2001  0.7212
17707TIP3    H274613   3.156   3.625   3.089  0.4375 -1.8318  0.4308
17708TIP3   OH274614   1.523   0.588  14.459 -0.0378 -0.4908 -0.2173
17708TIP3    H174615   1.494   0.621  14.544  0.7754  1.0271 -0.4955
17708TIP3    H274616   1.561   0.503  14.478 -1.6805 -1.0847  0.6184
17709TIP3   OH274617   5.397   3.166  14.573  0.2733 -0.1455 -0.0328
17709TIP3    H174618   5.453   3.206  14.641 -0.5707 -0.5512  0.9215
17709TIP3    H274619   5.326   3.124  14.622  0.6493 -2.0893 -1.0546
17710TIP3   OH274620   4.949   2.353   0.490  0.2086 -0.1752 -0.4311
17710TIP3    H174621   4.874   2.401   0.456 -0.0299  0.1464  0.5139
17710TIP3    H274622   5.025   2.397   0.453 -0.0559 -0.6638 -1.6022
17711TIP3   OH274623   3.510   2.387  16.786 -0.1466  0.8134 -0.1535
17711TIP3    H174624   3.535   2.377  16.878 -1.1157  0.4068  0.0747
17711TIP3    H274625   3.427   2.435  16.788 -1.2944 -1.0502 -0.6851
17712TIP3   OH274626   6.460   6.376  10.103 -0.3102 -0.0958  0.2077
17712TIP3    H174627   6.505   6.453  10.138 -2.1493  0.7655  0.7503
17712TIP3    H274628   6.446   6.396  10.010 -0.3415 -0.0209  0.2293
17713TIP3   OH274629   2.294   5.249   5.402  0.3105  0.4706  0.1038
17713TIP3    H174630   2.206   5.249   5.364 -0.9102 -1.0109  2.6479
17713TIP3    H274631   2.352   5.231   5.328 -1.8918 -2.6103 -1.0838
17714TIP3   OH274632   2.087   1.680  10.813 -0.0756 -0.5853 -0.8544
17714TIP3    H174633   2.047   1.610  10.865 -1.9171  0.9209 -0.1391
17714TIP3    H274634   2.172   1.696  10.854 -0.6476 -0.7845  0.4310
17715TIP3   OH274635   5.397   3.530  11.128 -0.3596  0.0905 -0.1541
17715TIP3    H174636   5.322   3.494  11.081 -1.8674  0.8018  1.5778
17715TIP3    H274637   5.434   3.455  11.174 -1.0479  0.0143  0.2960
17716TIP3   OH274638   6.280   5.306  12.540  0.2678 -0.1705 -0.5467
17716TIP3    H174639   6.364   5.313  12.585 -0.3243  1.5880  0.3836
17716TIP3    H274640   6.231   5.383  12.568 -2.1522 -1.7722 -0.0879
17717TIP3   OH274641   6.052   4.537   1.875  0.7432 -0.2583  0.1490
17717TIP3    H174642   6.050   4.478   1.950 -1.4689 -1.8857 -1.0703
17717TIP3    H274643   6.107   4.492   1.811 -0.2791 -0.6177 -0.4865
17718TIP3   OH274644   4.393   6.040   3.579 -0.0346 -0.1685  0.1359
17718TIP3    H174645   4.452   6.042   3.503 -0.0512 -1.5830  0.0554
17718TIP3    H274646   4.350   6.125   3.578  1.3713  0.5706 -0.3192
17719TIP3   OH274647   0.099   4.029   3.849 -0.2831 -0.0999  0.5499
17719TIP3    H174648   0.008   4.050   3.869 -0.3103 -0.3650  0.7162
17719TIP3    H274649   0.149   4.073   3.917 -0.1254  1.6922 -0.6477
17720TIP3   OH274650   4.821   2.318   4.354  0.1924  0.4985  0.1996
17720TIP3    H174651   4.816   2.280   4.441  0.1844  0.0551  0.0067
17720TIP3    H274652   4.861   2.250   4.300 -1.7610 -0.0676 -0.6192
17721TIP3   OH274653   6.692   2.683  11.622 -0.4189 -0.3811 -0.2997
17721TIP3    H174654   6.774   2.638  11.600 -1.1766 -0.9417 -2.1847
17721TIP3    H274655   6.624   2.618  11.605 -1.3729  0.6371 -0.4866
17722TIP3   OH274656   1.463   3.136  13.828  0.3358  0.4633  0.4774
17722TIP3    H174657   1.542   3.186  13.807  0.0998  1.9125  2.6515
17722TIP3    H274658   1.491   3.045  13.826  1.9916  0.9241  0.8483
17723TIP3   OH274659   1.340   5.277  15.170 -0.5219 -0.7550  0.2060
17723TIP3    H174660   1.316   5.363  15.205 -0.3448 -1.5618  2.4773
17723TIP3    H274661   1.334   5.287  15.075 -3.0931  1.0291  0.4607
17724TIP3   OH274662   4.769   5.113  15.376 -0.0374  0.1697 -0.4565
17724TIP3    H174663   4.860   5.092  15.357  0.0223  1.0985 -1.2920
17724TIP3    H274664   4.749   5.187  15.319 -1.1220  0.3971  0.1822
17725TIP3   OH274665   3.360   1.766   3.814 -0.4296  0.4598 -0.0352
17725TIP3    H174666   3.298   1.724   3.754  2.3021 -1.5844 -1.6802
17725TIP3    H274667   3.369   1.855   3.781 -0.4720 -0.0477 -1.5003
17726TIP3   OH274668   3.486   0.647  16.018  0.3330  0.3190 -0.3607
17726TIP3    H174669   3.460   0.562  16.054 -1.0374  0.8039 -0.1446
17726TIP3    H274670   3.404   0.696  16.011  1.2046  1.9624  0.4163
17727TIP3   OH274671   5.573   3.264  16.057  0.3089  0.4067  0.8410
17727TIP3    H174672   5.598   3.223  15.974  0.5441  0.1132  1.0547
17727TIP3    H274673   5.539   3.192  16.110 -1.1132  0.8092  0.5266
17728TIP3   OH274674   4.692   4.622  12.048 -0.2578  0.0913  0.1898
17728TIP3    H174675   4.682   4.713  12.076 -0.5298  0.4278 -0.9551
17728TIP3    H274676   4.694   4.572  12.129 -2.2360  0.9135  0.8033
17729TIP3   OH274677   1.852   0.276   5.715 -0.1744 -0.4932  0.2866
17729TIP3    H174678   1.946   0.291   5.714 -0.3425  0.7184 -1.4412
17729TIP3    H274679   1.829   0.275   5.808  1.7101 -2.1794  0.7969
17730TIP3   OH274680   4.480   6.193   0.345  0.0684  0.7593  0.1711
17730TIP3    H174681   4.441   6.226   0.426 -0.2795  2.0880 -0.5165
17730TIP3    H274682   4.427   6.231   0.275  0.7656  0.1663 -0.7134
17731TIP3   OH274683   3.916   5.434  17.004  0.2523  0.1863 -0.1006
17731TIP3    H174684   3.988   5.474  17.053 -1.3248  0.7500  1.9068
17731TIP3    H274685   3.886   5.361  17.059 -1.5214  0.7825 -0.1946
17732TIP3   OH274686   5.860   3.689  15.994 -0.0291 -0.0976  0.1489
17732TIP3    H174687   5.812   3.769  15.976  0.7855  0.2876 -0.3604
17732TIP3    H274688   5.948   3.718  16.019  0.3955 -0.8275 -0.4355
17733TIP3   OH274689   5.799   5.386  12.654 -0.2054 -0.2604  0.1734
17733TIP3    H174690   5.885   5.344  12.659 -1.0279 -1.8873  1.5042
17733TIP3    H274691   5.761   5.354  12.573 -0.1675 -0.7694  0.3552
17734TIP3   OH274692   0.509   3.397  14.364  0.5880  0.1357 -0.1163
17734TIP3    H174693   0.587   3.374  14.416 -0.4157 -0.5660  1.1458
17734TIP3    H274694   0.436   3.389  14.426 -0.4942  0.8381 -1.2551
17735TIP3   OH274695   2.479   5.057   3.693  0.0890  0.0801 -0.1678
17735TIP3    H174696   2.473   5.150   3.673  2.9566  0.5751  0.8009
17735TIP3    H274697   2.559   5.028   3.651 -1.0909 -2.1949 -1.0339
17736TIP3   OH274698   3.441   6.432  14.225 -0.2804 -0.5002 -0.4758
17736TIP3    H174699   3.411   6.376  14.153 -0.7233 -1.4266  0.3940
17736TIP3    H274700   3.491   6.373  14.282 -1.1660 -0.1462  0.7118
17737TIP3   OH274701   4.187   2.890   0.695 -0.2349 -0.4030 -1.0465
17737TIP3    H174702   4.227   2.867   0.780 -1.8297 -0.2151 -0.2085
17737TIP3    H274703   4.133   2.966   0.714 -0.5738 -0.3216 -2.2670
17738TIP3   OH274704   4.166   4.130  16.222 -0.5108 -0.3490  0.2503
17738TIP3    H174705   4.179   4.103  16.131 -1.0407  1.2012 -0.3123
17738TIP3    H274706   4.252   4.160  16.250 -0.5389  0.0067 -0.0372
17739TIP3   OH274707   1.123   3.585  16.556 -0.0159 -0.4510 -0.1326
17739TIP3    H174708   1.035   3.605  16.524 -0.4271 -0.9529  0.6400
17739TIP3    H274709   1.125   3.489  16.563  0.1154 -0.3718  1.1408
17740TIP3   OH274710   3.378   2.999   5.694  0.1528  0.4071  0.0675
17740TIP3    H174711   3.294   3.013   5.649  0.8772  2.0075 -0.9011
17740TIP3    H274712   3.408   2.914   5.663 -0.6233  0.2955 -0.4159
17741TIP3   OH274713   5.103   6.349   2.249  0.5616 -0.2985  0.3698
17741TIP3    H174714   5.058   6.280   2.201 -0.2274  0.2516  0.2876
17741TIP3    H274715   5.081   6.332   2.341  0.1848 -0.0414  0.3313
17742TIP3   OH274716   6.506   5.740   4.742  0.3826 -0.3899  0.3382
17742TIP3    H174717   6.554   5.735   4.824  0.6133  1.3847  0.3332
17742TIP3    H274718   6.530   5.825   4.705  0.4824 -1.2423 -1.6904
17743TIP3   OH274719   6.399   4.163  11.307  0.1771 -0.0910  0.4329
17743TIP3    H174720   6.423   4.140  11.396 -0.6564  1.4594  1.1049
17743TIP3    H274721   6.469   4.221  11.277  0.2107 -0.2230  0.2516
17744TIP3   OH274722   6.368   1.674  14.965  0.0376 -0.7156  0.1663
17744TIP3    H174723   6.384   1.609  14.896  0.4055 -0.7773  0.3108
17744TIP3    H274724   6.435   1.657  15.030 -0.2266 -0.5683  0.4812
17745TIP3   OH274725   5.009   3.210  14.579 -0.0465 -0.2117 -0.3041
17745TIP3    H174726   5.054   3.154  14.516 -1.5162 -1.4419 -0.3450
17745TIP3    H274727   4.924   3.227  14.539  0.2006  1.7336 -0.0793
17746TIP3   OH274728   4.224   4.369  11.011 -0.0764  0.2923  0.3264
17746TIP3    H174729   4.221   4.439  10.946 -0.3872  1.5287  1.6429
17746TIP3    H274730   4.217   4.413  11.095  2.3596 -1.0722  1.3589
17747TIP3   OH274731   0.146   0.324  13.525  0.3603  0.3646  0.3045
17747TIP3    H174732   0.079   0.356  13.465  1.0290 -0.0181 -0.6698
17747TIP3    H274733   0.207   0.398  13.535  1.6070 -0.3229 -1.5148
17748TIP3   OH274734   3.613   2.236   4.023  0.4543 -0.5021 -0.0001
17748TIP3    H174735   3.631   2.300   3.954  0.8513  0.1348  0.6782
17748TIP3    H274736   3.598   2.154   3.976 -0.9746  0.2554 -0.9527
17749TIP3   OH274737   4.074   2.392  11.710 -0.3544  0.4692 -0.3945
17749TIP3    H174738   4.021   2.376  11.788 -0.4175  0.6396 -0.4033
17749TIP3    H274739   4.067   2.486  11.694 -0.2924  0.4449 -0.5712
17750TIP3   OH274740   1.812   2.150  11.184 -0.1429  0.3332 -0.8925
17750TIP3    H174741   1.886   2.189  11.229 -0.3449 -0.6667  0.3384
17750TIP3    H274742   1.840   2.145  11.092  1.2293  0.1402 -0.4842
17751TIP3   OH274743   5.135   0.481   2.919  0.1054  0.3803  0.4491
17751TIP3    H174744   5.147   0.417   2.848  1.1986  0.3951  0.6087
17751TIP3    H274745   5.111   0.562   2.875  0.6006  0.3424  0.1045
17752TIP3   OH274746   3.374   5.000  11.827  0.4340 -0.1826 -0.2508
17752TIP3    H174747   3.437   4.932  11.854 -0.5944 -0.1941  2.4752
17752TIP3    H274748   3.289   4.956  11.832 -0.0056  0.4767 -1.5821
17753TIP3   OH274749   4.276   0.885   5.468 -0.0038  0.8926  0.3658
17753TIP3    H174750   4.271   0.828   5.545 -3.8450  0.9036  0.3377
17753TIP3    H274751   4.191   0.930   5.466  0.5499  2.1012 -3.0206
17754TIP3   OH274752   1.126   3.197  12.551  0.4163  0.1236  0.4041
17754TIP3    H174753   1.070   3.129  12.588  0.3639  1.0032  2.0430
17754TIP3    H274754   1.165   3.157  12.474 -1.9804 -0.7276 -0.4511
17755TIP3   OH274755   0.869   1.818   0.062  0.2402 -0.7852 -0.4142
17755TIP3    H174756   0.869   1.746   0.125 -1.3754  0.1383  0.7046
17755TIP3    H274757   0.790   1.805   0.010 -0.8517  0.9004  0.7293
17756TIP3   OH274758   6.764   4.447  12.523 -0.4102  0.0620  0.5098
17756TIP3    H174759   6.692   4.395  12.487 -0.0615  0.6989 -1.1961
17756TIP3    H274760   6.738   4.538  12.508 -0.0413  0.3425  1.5020
17757TIP3   OH274761   0.398   0.212   6.183 -0.6182  0.4643 -0.0640
17757TIP3    H174762   0.358   0.294   6.153 -1.0749  0.4706  0.5393
17757TIP3    H274763   0.375   0.207   6.276  0.1753  0.1023  0.1259
17758TIP3   OH274764   4.761   3.337   0.666 -0.1119 -0.0032  0.3553
17758TIP3    H174765   4.702   3.342   0.741  1.5121  0.4942  1.6300
17758TIP3    H274766   4.825   3.271   0.690  2.2079  2.2581  0.7695
17759TIP3   OH274767   6.483   6.011  15.861  0.0552  0.1272  0.5085
17759TIP3    H174768   6.569   5.968  15.861  1.1131  2.1195  1.8764
17759TIP3    H274769   6.467   6.033  15.952 -1.8158  0.0457  0.2390
17760TIP3   OH274770   5.985   6.020   0.107  0.2149  0.3249 -0.2287
17760TIP3    H174771   5.933   6.087   0.151  2.1344  0.8389  1.4507
17760TIP3    H274772   5.937   5.938   0.123 -0.5184  0.8859  0.5185
17761TIP3   OH274773   4.371   3.667   0.910 -0.2536 -0.1322 -0.5576
17761TIP3    H174774   4.366   3.602   0.980  0.5120 -0.5379 -0.8667
17761TIP3    H274775   4.298   3.726   0.927  0.4303  0.3077  1.1161
17762TIP3   OH274776   5.845   1.893  13.227 -0.5371  0.1909  0.6345
17762TIP3    H174777   5.820   1.912  13.318  0.7954  3.0990  0.5293
17762TIP3    H274778   5.763   1.877  13.182 -1.2169 -1.5498  2.3494
17763TIP3   OH274779   4.283   6.324  11.829 -0.1895 -0.7173  0.0341
17763TIP3    H174780   4.365   6.372  11.831 -0.8668  0.6450 -1.9775
17763TIP3    H274781   4.219   6.384  11.866 -0.5107 -1.3012  0.4401
17764TIP3   OH274782   4.856   5.286  16.796  0.1192 -0.1443  0.2216
17764TIP3    H174783   4.848   5.191  16.798  1.6185 -0.3391 -1.1766
17764TIP3    H274784   4.852   5.309  16.703  2.5330  0.8482  0.2906
17765TIP3   OH274785   5.394   4.713  14.408  0.7570 -0.0449 -0.1959
17765TIP3    H174786   5.431   4.634  14.448  1.0050  0.1096 -0.1140
17765TIP3    H274787   5.382   4.690  14.316  0.8877 -0.1567 -0.1855
17766TIP3   OH274788   5.466   6.697  15.464  0.1506  0.4185 -0.0644
17766TIP3    H174789   5.508   6.750  15.396  1.3971  0.8731  1.0196
17766TIP3    H274790   5.532   6.690  15.533 -0.5251 -1.3187  0.4636
17767TIP3   OH274791   2.855   1.733   3.071 -0.5633  0.1743  0.1563
17767TIP3    H174792   2.836   1.648   3.032 -0.4299  0.7432 -1.2158
17767TIP3    H274793   2.951   1.736   3.076 -0.5382  0.4477 -0.3339
17768TIP3   OH274794   0.195   5.972  15.599  0.5818  0.2231 -0.0070
17768TIP3    H174795   0.133   6.018  15.542  0.3198 -0.5892 -0.3876
17768TIP3    H274796   0.249   5.921  15.538 -0.3750 -1.4820  0.5213
17769TIP3   OH274797   4.929   1.359   5.078  0.1558 -0.1367  0.0952
17769TIP3    H174798   4.889   1.434   5.121 -0.2962 -1.3945  1.9999
17769TIP3    H274799   4.889   1.283   5.121  1.7075 -1.4661 -0.7073
17770TIP3   OH274800   4.173   1.777  12.528  0.0106 -0.2947  0.2561
17770TIP3    H174801   4.194   1.833  12.454 -1.7459 -0.8492 -0.7344
17770TIP3    H274802   4.194   1.829  12.605  1.3514  0.5014 -0.6133
17771TIP3   OH274803   0.601   2.007   4.781  0.2409 -0.5256  0.3251
17771TIP3    H174804   0.580   1.983   4.871 -0.4838 -1.8513 -0.1774
17771TIP3    H274805   0.627   2.099   4.787 -4.2985  0.9151  1.2426
17772TIP3   OH274806   1.128   5.230  13.932 -0.2508  0.0548 -0.0138
17772TIP3    H174807   1.108   5.302  13.871 -0.4521  1.6901  1.8750
17772TIP3    H274808   1.050   5.175  13.931 -0.7239  0.7140 -0.3442
17773TIP3   OH274809   5.719   1.968   1.240 -0.5539  0.2628  0.4362
17773TIP3    H174810   5.637   1.926   1.264 -0.4609  0.3100  0.8427
17773TIP3    H274811   5.752   2.005   1.322  0.6993 -1.1848  0.6445
17774TIP3   OH274812   2.258   3.511  11.371  0.1351  0.0526  0.0706
17774TIP3    H174813   2.235   3.524  11.463  0.9562 -0.9646  0.4322
17774TIP3    H274814   2.206   3.576  11.324 -1.4724 -0.4432  1.0966
17775TIP3   OH274815   2.224   2.048   1.178  0.3057 -0.3694  0.0678
17775TIP3    H174816   2.205   1.955   1.171 -0.9433 -0.2437  1.2966
17775TIP3    H274817   2.176   2.088   1.106 -0.0034 -0.5817  0.1528
17776TIP3   OH274818   6.328   1.909  11.929  0.4949  0.3176  0.1455
17776TIP3    H174819   6.259   1.974  11.914 -0.6770 -0.8802  0.1223
17776TIP3    H274820   6.305   1.836  11.873  1.6296 -0.2416  0.3779
17777TIP3   OH274821   0.709   1.061   4.756 -0.0832  0.1244  0.4074
17777TIP3    H174822   0.738   1.100   4.838 -0.8664 -0.5555  1.0268
17777TIP3    H274823   0.686   1.136   4.701 -0.1501  0.5744  1.0366
17778TIP3   OH274824   5.811   0.424  10.185 -0.4475  0.2170  0.3632
17778TIP3    H174825   5.791   0.331  10.190 -1.2108  0.4051  1.0454
17778TIP3    H274826   5.725   0.467  10.185 -0.0899  0.9795  1.5986
17779TIP3   OH274827   6.272   2.592   0.501 -0.3326  0.6702  0.2410
17779TIP3    H174828   6.246   2.505   0.470  0.6261  0.7987 -1.0311
17779TIP3    H274829   6.214   2.652   0.454 -0.6689  0.7428  0.7477
17780TIP3   OH274830   3.817   6.764  16.460  0.2011 -0.0638 -0.1458
17780TIP3    H174831   3.799   6.857  16.444  1.5050  0.0227 -1.2856
17780TIP3    H274832   3.750   6.737  16.522 -1.3959  1.1737 -1.2456
17781TIP3   OH274833   5.879   0.533  16.824 -0.0697  0.3480  0.4504
17781TIP3    H174834   5.970   0.540  16.795  0.1251 -0.3733  0.8517
17781TIP3    H274835   5.849   0.623  16.835  0.4725  0.5940 -0.0660
17782TIP3   OH274836   0.008   4.353   1.359  0.3625  0.3987  0.2016
17782TIP3    H174837   0.062   4.432   1.351  2.0876 -0.8824 -1.6055
17782TIP3    H274838  -0.046   4.353   1.280 -0.3225  0.2246  0.6574
17783TIP3   OH274839   5.873   4.736   1.792  0.4822  0.6499 -0.1161
17783TIP3    H174840   5.914   4.811   1.750  0.4288 -0.4705 -2.3009
17783TIP3    H274841   5.946   4.686   1.828  0.6877  0.6724 -0.5033
17784TIP3   OH274842   0.141   5.862   0.605 -0.1506 -0.9251 -0.5569
17784TIP3    H174843   0.169   5.785   0.654  1.0639  0.8084  1.6746
17784TIP3    H274844   0.177   5.849   0.517 -0.2440 -2.9872 -0.3428
17785TIP3   OH274845   1.536   4.608  10.629  0.1497  0.6041 -0.4074
17785TIP3    H174846   1.471   4.635  10.694 -1.3075 -2.3707 -0.4604
17785TIP3    H274847   1.593   4.547  10.674  0.5079  0.2023 -1.3699
17786TIP3   OH274848   5.169   3.311   5.270 -0.6104 -0.4200 -0.2789
17786TIP3    H174849   5.243   3.249   5.275 -0.4083 -0.2071 -0.5610
17786TIP3    H274850   5.202   3.390   5.312 -1.0069 -0.6254  0.4441
17787TIP3   OH274851   4.766   2.600   0.480 -0.3626  0.4816  0.8015
17787TIP3    H174852   4.781   2.658   0.405  1.5757 -0.3304  0.4866
17787TIP3    H274853   4.684   2.555   0.459 -1.0675  1.9309  0.3046
17788TIP3   OH274854   1.987   6.363   1.035 -0.2464  0.0819 -0.0130
17788TIP3    H174855   2.065   6.342   0.984  0.0603  0.0559  0.4520
17788TIP3    H274856   2.011   6.443   1.083 -0.8530  0.6287 -0.6038
17789TIP3   OH274857   3.646   3.350  15.396  0.0971  0.0507 -0.1623
17789TIP3    H174858   3.610   3.386  15.477  1.2891  2.3912 -0.6129
17789TIP3    H274859   3.717   3.293  15.426  0.0829  0.3468  0.4641
17790TIP3   OH274860   1.069   5.113   5.202 -0.6594  0.2764  0.3031
17790TIP3    H174861   0.981   5.077   5.190 -0.0791 -0.8768 -0.8062
17790TIP3    H274862   1.100   5.131   5.113  1.2722 -2.0873  0.3895
17791TIP3   OH274863   3.347   2.441   4.982 -0.5878 -0.5405  0.1915
17791TIP3    H174864   3.326   2.356   5.020 -1.2908 -0.6256 -0.3609
17791TIP3    H274865   3.279   2.500   5.016  0.6046  0.0932  1.5594
17792TIP3   OH274866   0.899   5.636   5.675 -0.0423  0.2635 -0.3601
17792TIP3    H174867   0.968   5.644   5.610  0.2841  1.9491  0.1351
17792TIP3    H274868   0.869   5.546   5.668  1.1247 -0.0519 -1.6730
17793TIP3   OH274869   6.045   3.663  11.645  0.7197 -0.4226 -0.3878
17793TIP3    H174870   6.003   3.735  11.693 -0.9633 -1.0078 -0.9227
17793TIP3    H274871   6.117   3.635  11.702  0.7056  0.9424  0.3347
17794TIP3   OH274872   6.430   0.818   0.881  0.1784  0.0506  0.0518
17794TIP3    H174873   6.480   0.798   0.960  2.0969 -1.3068 -1.4137
17794TIP3    H274874   6.464   0.758   0.815 -1.0104  1.4568 -1.9506
17795TIP3   OH274875   1.529   4.026  11.979 -0.3718  0.1409 -0.4436
17795TIP3    H174876   1.474   4.093  11.939 -1.4126 -0.6992 -0.4746
17795TIP3    H274877   1.619   4.055  11.961 -0.7625  1.9672  0.3112
17796TIP3   OH274878   2.294   4.990  12.704 -0.2510  0.1503 -0.0700
17796TIP3    H174879   2.362   5.054  12.683  0.2807  0.1742  1.5990
17796TIP3    H274880   2.291   4.932  12.627  1.9467 -0.1119 -0.0182
17797TIP3   OH274881   3.680   1.342   6.119  0.9164 -0.1328 -0.0617
17797TIP3    H174882   3.601   1.293   6.140  0.5868  1.1539  2.0140
17797TIP3    H274883   3.751   1.279   6.130  0.3535 -0.7167  0.3169
17798TIP3   OH274884   5.820   0.980  12.947 -0.5407 -0.1202  0.4373
17798TIP3    H174885   5.771   0.982  13.030 -0.9802 -2.9432  0.3360
17798TIP3    H274886   5.759   0.941  12.885  0.8510 -1.0038 -0.4238
17799TIP3   OH274887   6.031   6.155  11.859  0.8565 -0.3907 -0.6792
17799TIP3    H174888   6.040   6.219  11.788 -0.0431  1.1932  0.5771
17799TIP3    H274889   6.006   6.074  11.814 -1.9692  1.0992 -2.1030
17800TIP3   OH274890   6.810   2.826  16.191  0.5728 -0.0835 -0.1173
17800TIP3    H174891   6.757   2.892  16.146  0.9507 -0.3423 -0.9621
17800TIP3    H274892   6.746   2.766  16.229  0.2283  0.7930  0.6970
17801TIP3   OH274893   0.836   3.166  14.796 -0.4134  0.3194  0.0817
17801TIP3    H174894   0.869   3.204  14.715  1.5602  0.3625  0.8510
17801TIP3    H274895   0.808   3.078  14.772 -1.2696  0.8524 -0.9277
17802TIP3   OH274896   4.432   0.568   2.519  0.0161  0.3039  0.0618
17802TIP3    H174897   4.495   0.574   2.590 -0.8156 -0.8433  0.9310
17802TIP3    H274898   4.387   0.484   2.533 -2.1427  1.3440 -0.1279
17803TIP3   OH274899   4.938   5.315  15.855  0.4670  0.5972  0.9810
17803TIP3    H174900   4.863   5.263  15.882 -1.1798  2.4069  0.0911
17803TIP3    H274901   5.012   5.255  15.860 -1.2009 -1.5797  0.7526
17804TIP3   OH274902   5.673   5.012   1.127  0.4836  0.2994 -0.3132
17804TIP3    H174903   5.647   5.088   1.179  2.3225  1.6541 -1.2575
17804TIP3    H274904   5.666   4.938   1.187  0.6334  1.5216  1.2602
17805TIP3   OH274905   6.790   1.420  11.861 -0.0801  0.2389  0.6797
17805TIP3    H174906   6.867   1.393  11.811  0.3915  1.2535  0.8424
17805TIP3    H274907   6.719   1.418  11.797  0.5233  1.5664 -0.0702
17806TIP3   OH274908   2.784   2.946   5.982 -0.3046  0.1802 -0.4570
17806TIP3    H174909   2.766   2.969   6.074  0.9801 -1.9516  0.3963
17806TIP3    H274910   2.698   2.922   5.947 -0.8290  1.1046  0.1251
17807TIP3   OH274911   2.565   6.235  13.734 -0.0733  0.7915 -0.1330
17807TIP3    H174912   2.518   6.178  13.673 -1.1439  0.6928  0.7292
17807TIP3    H274913   2.567   6.320  13.691 -2.5847  1.2365  0.4495
17808TIP3   OH274914   2.083   1.971   4.218 -0.1779 -0.4106 -0.6190
17808TIP3    H174915   1.996   1.999   4.245 -0.1781  1.4141 -2.2468
17808TIP3    H274916   2.092   2.005   4.129  1.9181 -1.1880 -0.7546
17809TIP3   OH274917   2.412   3.614  15.445 -0.1212  0.4454  0.0457
17809TIP3    H174918   2.479   3.548  15.428 -1.6380 -1.3145  0.6691
17809TIP3    H274919   2.386   3.600  15.536 -1.7494  0.6671 -0.3535
17810TIP3   OH274920   6.555   5.481  12.078 -0.0176  0.1046  0.2691
17810TIP3    H174921   6.586   5.540  12.147 -0.1581 -1.7750  2.0409
17810TIP3    H274922   6.504   5.537  12.020  3.1624  2.5158 -0.4867
17811TIP3   OH274923   6.404   1.252  10.263 -0.0069 -0.1029  0.1705
17811TIP3    H174924   6.328   1.200  10.237  0.4620 -0.0799 -1.3370
17811TIP3    H274925   6.368   1.337  10.285 -0.6140 -0.6184  1.2449
17812TIP3   OH274926   2.421   6.103  11.364  0.1009  0.3382 -0.3987
17812TIP3    H174927   2.458   6.018  11.387 -0.8150 -0.0320 -0.2686
17812TIP3    H274928   2.455   6.120  11.276 -0.1453 -0.4130 -0.6436
17813TIP3   OH274929   0.636   2.669  15.915 -0.0743  0.1599 -0.2037
17813TIP3    H174930   0.640   2.576  15.893  0.2079  0.1586 -0.1465
17813TIP3    H274931   0.560   2.676  15.974 -1.1823  0.2499 -1.5731
17814TIP3   OH274932   4.933   1.053   5.601 -0.4226 -0.4342 -0.0300
17814TIP3    H174933   4.847   1.056   5.558 -1.1269 -0.4868  1.3207
17814TIP3    H274934   4.938   0.965   5.639  0.8535 -0.9409 -1.2752
17815TIP3   OH274935   0.649   6.428  14.640  0.3621 -0.1367  0.0110
17815TIP3    H174936   0.712   6.357  14.655  0.1429 -0.5746 -1.0397
17815TIP3    H274937   0.575   6.386  14.596 -0.1743  0.5838  0.1980
17816TIP3   OH274938   6.529   5.352   5.925  0.5064  0.0164  0.0080
17816TIP3    H174939   6.521   5.366   6.020 -0.7255 -0.1724 -0.0564
17816TIP3    H274940   6.484   5.427   5.886  0.9377  0.0500 -0.4328
17817TIP3   OH274941   4.119   5.570  11.037 -0.6733  0.0396 -0.2341
17817TIP3    H174942   4.084   5.653  11.005 -1.1756 -0.3501 -0.7301
17817TIP3    H274943   4.197   5.594  11.086 -1.5346  0.9288  0.7576
17818TIP3   OH274944   3.679   2.109  13.460 -0.0076  0.5601  0.0433
17818TIP3    H174945   3.608   2.093  13.398  0.9665 -0.2440 -0.8976
17818TIP3    H274946   3.758   2.080  13.414  0.8894  1.0826  1.2074
17819TIP3   OH274947   0.817   2.256   3.572  0.2853 -0.4565 -0.3217
17819TIP3    H174948   0.725   2.268   3.596 -0.2126 -0.0708 -2.2553
17819TIP3    H274949   0.849   2.190   3.633 -1.2886 -0.6610  0.3398
17820TIP3   OH274950   5.962   1.990  10.339  0.5186  0.5391  0.0472
17820TIP3    H174951   6.012   2.068  10.315  2.5274 -1.0736 -1.3921
17820TIP3    H274952   5.966   1.987  10.434  2.5984  0.8619  0.0090
17821TIP3   OH274953   5.967   3.755   2.412 -0.1016 -0.2716  0.4401
17821TIP3    H174954   5.999   3.686   2.471  0.1127 -2.1242 -1.6895
17821TIP3    H274955   5.894   3.715   2.365  0.4997  0.6451 -1.3991
17822TIP3   OH274956   5.876   6.670  13.634 -0.5922  0.1869 -1.0152
17822TIP3    H174957   5.866   6.764  13.623  0.0009  0.1563 -1.8936
17822TIP3    H274958   5.864   6.655  13.728 -0.5311  1.1542 -0.8503
17823TIP3   OH274959   5.429   6.826   1.253 -0.2848  0.9656 -0.0145
17823TIP3    H174960   5.500   6.879   1.289  1.6555 -0.4128 -1.6104
17823TIP3    H274961   5.446   6.823   1.159 -1.7603 -0.4282 -0.2745
17824TIP3   OH274962   6.133   0.492  17.021 -0.5501 -0.7867  0.2589
17824TIP3    H174963   6.081   0.478  16.942 -0.1823  1.9738 -0.5638
17824TIP3    H274964   6.194   0.562  16.998  0.6208 -0.9775  2.5264
17825TIP3   OH274965   5.764   0.064  14.207  0.1210  0.6181  0.3356
17825TIP3    H174966   5.709   0.004  14.259  0.4159 -1.9232 -2.0156
17825TIP3    H274967   5.701   0.114  14.154 -0.0819 -0.4827 -0.5130
17826TIP3   OH274968   2.390   4.325   6.768 -0.4166 -0.4824  0.5068
17826TIP3    H174969   2.300   4.352   6.749 -0.3310  0.4607  1.3240
17826TIP3    H274970   2.444   4.388   6.721 -0.1995 -0.3778  0.8892
17827TIP3   OH274971   4.552   2.159   1.477 -0.3738  0.5561  0.1047
17827TIP3    H174972   4.591   2.074   1.496 -0.3137  0.9463  1.9255
17827TIP3    H274973   4.556   2.167   1.382 -1.1329 -1.8296 -0.1926
17828TIP3   OH274974   6.053   2.842  16.008  0.0173  0.3090  0.2703
17828TIP3    H174975   6.047   2.765  16.065 -1.3954  0.1212 -0.0916
17828TIP3    H274976   6.036   2.808  15.920 -2.0067  1.2146  0.2647
17829TIP3   OH274977   2.611   4.092   4.837 -0.1088 -0.6028 -0.0811
17829TIP3    H174978   2.606   4.102   4.742 -0.5611  1.8202  0.1400
17829TIP3    H274979   2.522   4.108   4.868  0.5575  1.4407  0.9162
17830TIP3   OH274980   1.744   1.930   1.938  0.1130  0.0206  0.3023
17830TIP3    H174981   1.706   2.016   1.954  2.1269  0.9072  0.6746
17830TIP3    H274982   1.672   1.869   1.952 -1.7046  1.6921 -1.2314
17831TIP3   OH274983   6.613   0.467   3.882 -0.4675 -0.1462 -0.3059
17831TIP3    H174984   6.682   0.422   3.930  0.3973  1.3491 -0.0889
17831TIP3    H274985   6.652   0.487   3.797 -1.1325 -0.5396 -0.7158
17832TIP3   OH274986   3.954   6.669  13.760 -0.6765 -0.3205 -0.3759
17832TIP3    H174987   4.047   6.689  13.753 -1.1613  1.7434 -1.5322
17832TIP3    H274988   3.916   6.741  13.810 -1.7135 -1.0401 -0.0624
17833TIP3   OH274989   6.596   5.245   3.878 -0.0991 -0.0448  0.6824
17833TIP3    H174990   6.648   5.170   3.849 -0.0192  0.0729  0.5223
17833TIP3    H274991   6.659   5.301   3.923 -0.4147 -0.7350  2.0599
17834TIP3   OH274992   5.417   1.607  12.762  0.0200  0.3384  0.0174
17834TIP3    H174993   5.421   1.542  12.692 -0.1372  0.5191 -0.1607
17834TIP3    H274994   5.323   1.619  12.778  0.0569  0.1852  0.3642
17835TIP3   OH274995   2.071   4.035  12.054 -0.3067  0.0938 -0.4002
17835TIP3    H174996   2.051   4.120  12.091 -0.8198 -0.3333  0.3360
17835TIP3    H274997   2.127   4.053  11.979  0.8014  0.9717  0.6110
17836TIP3   OH274998   6.042   3.210   0.305 -0.4899 -0.1635  0.3788
17836TIP3    H174999   6.128   3.175   0.328 -0.2261 -0.6721 -1.2705
17836TIP3    H275000   6.061   3.285   0.248 -1.1309 -0.0589  0.2927
17837TIP3   OH275001   0.151   2.290  16.910  0.0922  0.6835 -0.0139
17837TIP3    H175002   0.156   2.332  16.824 -1.0503 -0.1361 -0.4992
17837TIP3    H275003   0.062   2.306  16.940 -1.1165 -3.0677 -1.1386
17838TIP3   OH275004   3.538   3.199  12.627  0.0967  0.1770 -0.0281
17838TIP3    H175005   3.601   3.267  12.604 -0.1053  0.1145 -0.7742
17838TIP3    H275006   3.583   3.117  12.606 -0.6589  0.1593 -1.7058
17839TIP3   OH275007   4.918   4.424   5.927 -0.8184 -0.3670  0.6638
17839TIP3    H175008   4.856   4.482   5.970 -0.5549  1.8661 -1.7863
17839TIP3    H275009   4.989   4.415   5.991 -0.8545  2.0682  1.1496
17840TIP3   OH275010   2.536   2.854   3.387  0.0900  0.1932 -0.9801
17840TIP3    H175011   2.612   2.849   3.329  0.1824  0.0491 -0.8476
17840TIP3    H275012   2.571   2.890   3.469  0.0116  0.1458 -0.9259
17841TIP3   OH275013   1.072   5.520   4.031 -0.3829 -0.3519  0.3693
17841TIP3    H175014   1.108   5.593   3.982 -0.1182 -0.1099  0.9170
17841TIP3    H275015   1.043   5.457   3.964 -0.2267  0.0652 -0.0905
17842TIP3   OH275016   6.685   2.784   2.066 -0.8994  0.3280 -0.4953
17842TIP3    H175017   6.645   2.711   2.020 -1.1958 -0.4518  0.9276
17842TIP3    H275018   6.758   2.810   2.012  1.0009 -2.8958  0.2590
17843TIP3   OH275019   5.504   2.133  11.438  0.6430  0.6308 -0.1254
17843TIP3    H175020   5.467   2.196  11.376 -1.4340 -0.3533  0.0190
17843TIP3    H275021   5.452   2.143  11.517 -0.4780 -1.8994 -0.4339
17844TIP3   OH275022   0.160   5.049  15.250 -0.3896 -0.0079  0.5408
17844TIP3    H175023   0.181   5.081  15.337  1.3370 -0.1363  0.2013
17844TIP3    H275024   0.206   5.109  15.191  0.2087 -1.1559 -0.1999
17845TIP3   OH275025   1.834   1.413  15.225  0.0823 -0.0542  0.1194
17845TIP3    H175026   1.903   1.422  15.291 -1.8636 -1.2162  2.4701
17845TIP3    H275027   1.881   1.413  15.141  3.1247 -2.4998  1.6340
17846TIP3   OH275028   5.996   5.256   6.001  0.1735 -0.7746  0.6640
17846TIP3    H175029   5.950   5.194   6.058 -1.5992 -0.0380  0.1250
17846TIP3    H275030   5.991   5.339   6.048 -1.2352 -0.1764 -0.4562
17847TIP3   OH275031   3.582   3.532   2.152 -0.5402  0.1719  0.2522
17847TIP3    H175032   3.670   3.506   2.177 -0.8087 -2.4679 -1.2436
17847TIP3    H275033   3.595   3.602   2.088  0.3852  0.8714  1.1780
17848TIP3   OH275034   3.023   6.105  14.620 -0.2643 -0.3194  0.1188
17848TIP3    H175035   3.071   6.186  14.604 -0.0921 -0.7376 -1.7157
17848TIP3    H275036   3.083   6.051  14.672  0.4014 -0.0083 -0.3193
17849TIP3   OH275037   1.172   4.606  16.499  0.2431  0.0320 -0.9772
17849TIP3    H175038   1.177   4.690  16.453  1.9232 -0.2760 -1.3944
17849TIP3    H275039   1.110   4.554  16.447  2.0181 -0.2726 -2.9039
17850TIP3   OH275040   4.906   3.450   2.261  0.3801  0.2466 -1.0332
17850TIP3    H175041   4.941   3.459   2.349 -0.9514  0.3179 -0.4997
17850TIP3    H275042   4.952   3.373   2.225  2.1733  1.2157 -0.9224
17851TIP3   OH275043   2.491   6.607   1.385 -0.0649  0.4448  0.1291
17851TIP3    H175044   2.403   6.594   1.421 -0.0864  0.4438  0.0757
17851TIP3    H275045   2.494   6.699   1.362 -0.6416  0.0979 -1.4533
17852TIP3   OH275046   6.343   3.750   2.821  0.2159  0.7184 -0.0136
17852TIP3    H175047   6.348   3.845   2.815  0.5156  0.6689 -0.5628
17852TIP3    H275048   6.250   3.730   2.806  0.2537  0.8818 -0.4648
17853TIP3   OH275049   3.653   1.226  10.989 -0.1042 -0.0498  0.3148
17853TIP3    H175050   3.648   1.264  10.902  0.2934 -0.5621  0.0598
17853TIP3    H275051   3.682   1.297  11.045  1.6704 -0.2094 -0.3333
17854TIP3   OH275052   5.220   0.725  11.572  0.1539 -0.1866  0.1005
17854TIP3    H175053   5.175   0.793  11.622 -1.3307 -1.1857  0.1952
17854TIP3    H275054   5.303   0.712  11.618  1.7735  3.3669 -1.4285
17855TIP3   OH275055   5.572   4.059  12.008 -0.1468  0.0254  0.0758
17855TIP3    H175056   5.590   4.147  11.975 -0.0452 -0.2652 -0.6747
17855TIP3    H275057   5.593   4.002  11.934 -0.2715 -0.6218  0.5369
17856TIP3   OH275058   3.894   0.532  12.613  0.1954 -0.6748 -0.0616
17856TIP3    H175059   3.845   0.450  12.623 -0.4276 -0.2636  0.2809
17856TIP3    H275060   3.985   0.507  12.627  0.3303 -1.7838 -2.3905
17857TIP3   OH275061   4.148   4.845  15.868 -0.0087 -0.9686  0.1869
17857TIP3    H175062   4.133   4.752  15.884  2.4438 -1.2040  1.6400
17857TIP3    H275063   4.154   4.883  15.956 -2.1269  0.8506 -0.3646
17858TIP3   OH275064   0.242   3.356  11.429 -0.2066  0.1165 -0.0520
17858TIP3    H175065   0.236   3.416  11.354  0.3918 -0.0902 -0.2728
17858TIP3    H275066   0.336   3.343  11.442 -0.3204 -1.4395 -0.5448
17859TIP3   OH275067   6.239   0.357  14.058 -0.2679 -0.0231  0.0716
17859TIP3    H175068   6.276   0.320  14.138 -2.3173  0.1360  1.1624
17859TIP3    H275069   6.173   0.419  14.088 -0.5379  0.6450 -1.7505
17860TIP3   OH275070   1.599   5.688   1.099  0.3439  0.2518 -0.1681
17860TIP3    H175071   1.675   5.669   1.155  0.3848  1.4977  0.2284
17860TIP3    H275072   1.525   5.647   1.143  0.9048 -1.9315 -1.1161
17861TIP3   OH275073   4.570   6.127  14.297  0.0880 -0.2765  0.2268
17861TIP3    H175074   4.603   6.089  14.379  0.1967 -0.4817  0.0886
17861TIP3    H275075   4.479   6.101  14.293  0.5214 -1.7675 -0.5809
17862TIP3   OH275076   0.487   5.326  12.069 -0.6907  0.6659  0.5067
17862TIP3    H175077   0.443   5.339  11.986  0.7674  1.7913 -0.1354
17862TIP3    H275078   0.579   5.312  12.045 -0.0768  1.9640  1.9510
17863TIP3   OH275079   1.622   0.503   4.104  0.3459 -0.3247 -0.1546
17863TIP3    H175080   1.698   0.500   4.162  0.4588  2.1228 -0.0922
17863TIP3    H275081   1.656   0.539   4.022 -0.8106  1.2173  0.0245
17864TIP3   OH275082   3.707   5.361  11.142 -0.3186  0.0244 -0.0006
17864TIP3    H175083   3.618   5.351  11.110 -0.2152  0.5272 -0.4521
17864TIP3    H275084   3.701   5.342  11.236 -0.8625 -0.1343 -0.0635
17865TIP3   OH275085   4.167   1.734  14.432  0.4254  0.2731 -0.3993
17865TIP3    H175086   4.192   1.689  14.513  1.5269  0.9407 -0.3426
17865TIP3    H275087   4.085   1.693  14.406  1.2957 -1.6831 -0.2873
17866TIP3   OH275088   5.255   5.151   4.792  0.4749  0.2229 -0.5446
17866TIP3    H175089   5.239   5.058   4.805  1.7507 -0.1163 -1.2565
17866TIP3    H275090   5.334   5.155   4.739  0.0681  1.7063 -1.0966
17867TIP3   OH275091   6.473   2.409  16.314 -0.0347  0.3209  0.0938
17867TIP3    H175092   6.452   2.316  16.309  3.3256 -0.6588  1.2013
17867TIP3    H275093   6.530   2.426  16.239 -1.3175  1.7876 -0.6142
17868TIP3   OH275094   2.888   6.113  12.185 -0.2320  0.0874 -0.1832
17868TIP3    H175095   2.936   6.166  12.248  1.7031 -1.5605 -0.1557
17868TIP3    H275096   2.948   6.104  12.111 -1.0646 -0.9234 -0.7618
17869TIP3   OH275097   0.798   4.748  11.365  0.3052 -0.6758  0.1707
17869TIP3    H175098   0.751   4.667  11.387  0.7654 -0.6628  1.2822
17869TIP3    H275099   0.891   4.724  11.369  0.6227  0.5330  3.5928
17870TIP3   OH275100   0.433   5.845  14.339 -0.1514  0.4362  0.4223
17870TIP3    H175101   0.474   5.760  14.320 -1.4206 -0.4071  1.2654
17870TIP3    H275102   0.474   5.873  14.421 -2.1509 -1.1012  2.0527
17871TIP3   OH275103   6.020   4.106   0.995 -0.1473  0.0301 -0.1073
17871TIP3    H175104   5.996   4.191   0.961  0.2880  0.0097 -0.4780
17871TIP3    H275105   6.116   4.103   0.987  0.0437  0.2628  1.6675
17872TIP3   OH275106   2.326   6.765   0.934 -0.3647 -0.9499  0.3597
17872TIP3    H175107   2.235   6.787   0.914 -0.4448 -2.0303 -0.6120
17872TIP3    H275108   2.377   6.831   0.887 -0.6352 -0.3066  0.9541
17873TIP3   OH275109   6.026   2.338   5.397  0.0882 -0.2798  0.5478
17873TIP3    H175110   6.087   2.292   5.340 -1.4672 -0.4535 -1.0841
17873TIP3    H275111   6.053   2.430   5.392  0.0542 -0.3099 -0.4102
17874TIP3   OH275112   1.448   2.191   2.745  0.1615 -0.1158 -0.3984
17874TIP3    H175113   1.443   2.097   2.729 -2.3127  0.1252 -1.5142
17874TIP3    H275114   1.463   2.230   2.659  0.1340  0.5652 -0.1020
17875TIP3   OH275115   1.536   1.003   2.263  0.3569 -0.3711 -0.1899
17875TIP3    H175116   1.516   0.944   2.190  2.0293  0.0380 -1.0161
17875TIP3    H275117   1.545   1.089   2.224  1.4578 -0.1690  0.4565
17876TIP3   OH275118   2.157   2.784  16.848 -0.2282  0.8415  0.7585
17876TIP3    H175119   2.145   2.826  16.933  1.7930  2.6173  0.2338
17876TIP3    H275120   2.246   2.807  16.822 -0.8374  0.4593 -1.9039
17877TIP3   OH275121   0.864   4.443  15.437  0.1806  0.2605  0.6671
17877TIP3    H175122   0.860   4.490  15.354  1.7305  0.0407  0.4371
17877TIP3    H275123   0.777   4.454  15.475 -0.4391  0.6832 -0.8006
17878TIP3   OH275124   6.628   3.700   4.396  0.2596  0.6408 -0.8163
17878TIP3    H175125   6.628   3.652   4.478  1.6921  2.1431  0.1316
17878TIP3    H275126   6.632   3.632   4.328 -4.4412 -0.8455  0.0417
17879TIP3   OH275127   1.047   1.835  14.318  0.0273  0.0646  0.0126
17879TIP3    H175128   0.956   1.849  14.292 -0.1971  1.9126  1.5931
17879TIP3    H275129   1.045   1.757  14.374 -0.0778 -1.5777 -2.1383
17880TIP3   OH275130   0.278   1.168  10.444 -0.4360  0.1908  0.3569
17880TIP3    H175131   0.320   1.252  10.466  1.7839 -1.1681  1.7345
17880TIP3    H275132   0.206   1.160  10.507 -0.3654  0.8487  0.5294
17881TIP3   OH275133   0.720   2.980  11.605 -0.2469 -0.4468  0.1043
17881TIP3    H175134   0.712   3.068  11.643  0.0505 -0.9121  1.3174
17881TIP3    H275135   0.658   2.927  11.655 -0.2764 -0.9742 -0.4787
17882TIP3   OH275136   5.619   6.331  12.742 -0.4737  0.3295 -0.1463
17882TIP3    H175137   5.594   6.347  12.651 -0.2404  2.0561  0.0721
17882TIP3    H275138   5.539   6.298  12.783 -1.2980  1.9332 -0.4053
17883TIP3   OH275139   5.308   3.148   3.392 -0.4525  0.4575  0.7028
17883TIP3    H175140   5.401   3.170   3.398  0.0702 -1.6487  1.2101
17883TIP3    H275141   5.272   3.212   3.330  1.6672  0.3895 -0.7148
17884TIP3   OH275142   4.628   5.924   6.564  0.7628 -0.1211  0.2210
17884TIP3    H175143   4.630   5.870   6.485 -0.3806  1.7775 -1.1866
17884TIP3    H275144   4.712   5.970   6.563  0.9238 -0.4085  0.3520
17885TIP3   OH275145   3.338   0.617  14.554  0.4992  0.1313  0.1741
17885TIP3    H175146   3.272   0.563  14.598  0.9079 -0.2489  0.3332
17885TIP3    H275147   3.414   0.615  14.613  2.1091 -2.7221 -1.7307
17886TIP3   OH275148   0.293   4.590  12.553  0.4928 -0.4923  0.0426
17886TIP3    H175149   0.307   4.507  12.506 -1.3609 -1.6875  1.4477
17886TIP3    H275150   0.247   4.564  12.632  1.4690  1.7305  1.4112
17887TIP3   OH275151   5.683   4.311   3.656 -0.1906  0.4125  0.2449
17887TIP3    H175152   5.733   4.280   3.731 -0.0717 -0.0689 -0.0320
17887TIP3    H275153   5.635   4.234   3.625  1.7300 -0.0543 -1.7494
17888TIP3   OH275154   3.326   1.174   4.979  0.1176 -0.4640 -0.2700
17888TIP3    H175155   3.290   1.259   4.955 -0.4635 -0.5859  0.1544
17888TIP3    H275156   3.403   1.195   5.033 -0.7124 -0.1996  0.8394
17889TIP3   OH275157   1.480   0.679   1.118  0.2202 -0.6616 -0.0847
17889TIP3    H175158   1.461   0.645   1.205 -2.1954 -0.3515 -0.4056
17889TIP3    H275159   1.466   0.773   1.125 -0.6102 -0.7028 -0.8991
17890TIP3   OH275160   5.669   1.817  13.956 -0.4551  0.1049  0.0238
17890TIP3    H175161   5.669   1.798  13.863  0.7001  1.0263 -0.1955
17890TIP3    H275162   5.760   1.841  13.976 -1.0209  1.6838  0.9808
17891TIP3   OH275163   2.205   0.527   5.400 -0.4018 -0.0374  0.2313
17891TIP3    H175164   2.214   0.551   5.492  1.2542 -1.4809  0.4908
17891TIP3    H275165   2.120   0.564   5.374 -1.3001 -0.3139  2.5396
17892TIP3   OH275166   4.817   4.991   6.257  0.0031 -0.0141  0.3358
17892TIP3    H175167   4.856   4.910   6.225 -0.4720 -0.6772  1.3756
17892TIP3    H275168   4.892   5.047   6.277  0.3489 -0.3167 -0.0785
17893TIP3   OH275169   4.855   2.099   2.128  0.3521 -0.3027  0.0834
17893TIP3    H175170   4.777   2.068   2.081  0.3459  0.2933 -0.3090
17893TIP3    H275171   4.928   2.080   2.069  0.2509  1.2962 -0.6136
17894TIP3   OH275172   5.132   3.060  16.810 -0.0233 -0.4041  0.2755
17894TIP3    H175173   5.171   3.025  16.890 -0.3692 -1.5379 -0.0305
17894TIP3    H275174   5.072   3.128  16.839 -0.5956 -1.2201  1.0365
17895TIP3   OH275175   5.124   1.209  11.602 -0.0630  0.7082 -0.2554
17895TIP3    H175176   5.141   1.154  11.525  0.4073 -0.3011  0.5400
17895TIP3    H275177   5.167   1.292  11.583  0.8698  0.1394 -0.6921
17896TIP3   OH275178   3.708   0.176   0.842 -0.2536  0.2330  0.5673
17896TIP3    H175179   3.663   0.092   0.852  0.7278 -0.0440  3.6507
17896TIP3    H275180   3.793   0.152   0.805  0.1127 -0.2208  1.6491
17897TIP3   OH275181   4.138   1.616   3.503 -0.0608  0.0082 -0.3589
17897TIP3    H175182   4.190   1.575   3.571  0.0175  0.3735 -0.1955
17897TIP3    H275183   4.066   1.659   3.549 -1.3400 -1.6693 -0.6824
17898TIP3   OH275184   0.462   1.043  16.362 -0.2327 -0.2087 -0.7210
17898TIP3    H175185   0.435   1.125  16.321 -1.3543 -1.0447 -1.7116
17898TIP3    H275186   0.384   1.010  16.405  0.0169 -1.0969 -0.9200
17899TIP3   OH275187   5.855   1.488   0.391  0.4903  0.0523  0.0221
17899TIP3    H175188   5.805   1.570   0.396 -0.2994 -0.4856  1.4245
17899TIP3    H275189   5.795   1.421   0.424  1.6354 -0.8468  0.3281
17900TIP3   OH275190   5.633   0.831  16.476 -0.3259  0.0638 -0.1496
17900TIP3    H175191   5.673   0.836  16.563  0.0838 -3.6466  0.0384
17900TIP3    H275192   5.630   0.921  16.445  2.8117  1.1500  2.2406
17901TIP3   OH275193   0.730   0.564   1.925  0.0098  0.0353 -0.4846
17901TIP3    H175194   0.805   0.620   1.944  1.2719 -1.8125  0.2681
17901TIP3    H275195   0.741   0.541   1.832  0.2637 -0.0517 -0.4348
17902TIP3   OH275196   2.661   5.524   4.171  0.0831 -0.1957  0.2142
17902TIP3    H175197   2.639   5.562   4.256  0.5990  1.0714 -0.2045
17902TIP3    H275198   2.643   5.430   4.182 -2.2807  0.2794  0.9108
17903TIP3   OH275199   5.732   5.710  14.566  0.4101 -0.8211 -0.4179
17903TIP3    H175200   5.731   5.804  14.550 -1.5317 -0.4662  1.2423
17903TIP3    H275201   5.814   5.694  14.612  1.9993 -0.4536 -2.9578
17904TIP3   OH275202   3.445   6.259  12.306 -0.4865  0.9070 -0.2299
17904TIP3    H175203   3.514   6.276  12.242  1.1863 -0.3731  1.1145
17904TIP3    H275204   3.433   6.164  12.304 -1.5564  1.0207  0.2126
17905TIP3   OH275205   2.991   3.003   6.392  0.0201 -0.4846  0.3998
17905TIP3    H175206   3.028   3.032   6.475 -0.8755 -1.4646  1.1718
17905TIP3    H275207   3.066   2.980   6.338  0.6175  0.3365  0.8673
17906TIP3   OH275208   2.636   1.548  12.635 -0.0121 -0.2688 -0.0384
17906TIP3    H175209   2.545   1.525  12.616 -0.0075 -0.3668  0.0627
17906TIP3    H275210   2.640   1.643  12.624  0.0193 -0.3382 -0.6741
17907TIP3   OH275211   1.406   1.942   3.370 -0.3542  0.2431  0.4645
17907TIP3    H175212   1.333   1.922   3.311 -1.1388  1.7392  0.8886
17907TIP3    H275213   1.396   1.879   3.442  1.5728 -2.7503 -1.6374
17908TIP3   OH275214   2.176   3.666  14.620 -0.2592 -0.2202  0.0604
17908TIP3    H175215   2.123   3.715  14.557 -0.2730  0.3491  0.5010
17908TIP3    H275216   2.158   3.574  14.601 -1.0584 -0.0377 -0.0940
17909TIP3   OH275217   0.956   5.047   5.823  0.0869 -0.2352 -0.4792
17909TIP3    H175218   1.036   5.015   5.863  0.0788 -0.4863 -0.6600
17909TIP3    H275219   0.934   5.127   5.872 -0.3821 -0.9828  0.5570
17910TIP3   OH275220   4.710   1.561   6.186 -0.1563  0.0903  0.0435
17910TIP3    H175221   4.619   1.530   6.194  0.2086 -0.8631  0.6496
17910TIP3    H275222   4.760   1.483   6.163  0.5789  0.5280  0.1386
17911TIP3   OH275223   2.906   3.160  11.352  0.1428  0.0872  0.1006
17911TIP3    H175224   2.871   3.101  11.286  0.5874 -0.1249  0.0475
17911TIP3    H275225   3.001   3.143  11.351  0.4401  1.6618 -0.7552
17912TIP3   OH275226   4.070   2.875  11.105  0.6953 -0.2865 -0.3053
17912TIP3    H175227   4.094   2.813  11.174  1.9698  0.3122 -0.1802
17912TIP3    H275228   4.103   2.959  11.136 -2.1835  0.7916  0.1707
17913TIP3   OH275229   3.420   5.899   3.118  0.0305 -0.1458 -0.0641
17913TIP3    H175230   3.397   5.965   3.183  1.3667  1.5537 -1.2306
17913TIP3    H275231   3.344   5.841   3.115 -0.7433  0.6908  1.7807
17914TIP3   OH275232   4.397   4.789  12.931  0.3413 -0.1639 -0.2050
17914TIP3    H175233   4.389   4.883  12.919 -0.5521 -0.2612 -0.3993
17914TIP3    H275234   4.397   4.777  13.026  1.8683  0.1344 -0.1393
17915TIP3   OH275235   5.733   1.725  15.798 -0.5657 -0.1985 -0.0180
17915TIP3    H175236   5.674   1.714  15.874 -1.1106  2.1284 -0.0372
17915TIP3    H275237   5.709   1.810  15.761  1.4563 -0.1113 -1.2718
17916TIP3   OH275238   6.187   4.797  12.830 -0.0096 -0.5272  0.0475
17916TIP3    H175239   6.172   4.870  12.891  0.6895 -0.6870  0.4116
17916TIP3    H275240   6.203   4.722  12.886 -1.9581 -1.2704 -0.3013
17917TIP3   OH275241   2.474   0.868   1.859  0.3081 -0.3749  0.2513
17917TIP3    H175242   2.482   0.805   1.787 -0.6966 -0.3213  0.0864
17917TIP3    H275243   2.477   0.814   1.938  0.4938 -0.5203  0.1470
17918TIP3   OH275244   2.569   1.976   4.076  0.2305 -0.6765 -0.3304
17918TIP3    H175245   2.576   1.933   4.161 -0.2568 -0.8558 -0.3783
17918TIP3    H275246   2.578   2.069   4.095  2.4877 -0.8315 -0.3576
17919TIP3   OH275247   0.731   2.000  15.831 -0.3151 -0.2203 -0.1854
17919TIP3    H175248   0.736   2.041  15.744  0.6711  1.4168  0.5940
17919TIP3    H275249   0.686   2.065  15.885  1.9760  0.2734  1.2708
17920TIP3   OH275250   1.682   4.250  16.349 -0.0612 -0.6378  0.0588
17920TIP3    H175251   1.685   4.218  16.259 -1.8392 -3.4629  0.8721
17920TIP3    H275252   1.701   4.343  16.342  0.5085 -0.8783 -3.1352
17921TIP3   OH275253   4.390   0.071  13.997  0.9649  0.4656 -0.0352
17921TIP3    H175254   4.366   0.096  14.086  0.2785  0.0164 -0.0874
17921TIP3    H275255   4.393   0.154  13.949 -0.4370  0.5450 -0.0090
17922TIP3   OH275256   2.570   2.292  12.818 -0.4622  0.9888 -0.0050
17922TIP3    H175257   2.572   2.376  12.772 -1.9816  0.9345 -0.2352
17922TIP3    H275258   2.523   2.311  12.900  1.6501  0.9520  1.2932
17923TIP3   OH275259   3.101   2.710  11.759 -0.0965 -0.0798 -0.6405
17923TIP3    H175260   3.100   2.620  11.791 -0.8691  0.4202  0.8389
17923TIP3    H275261   3.177   2.749  11.801 -0.1175  0.1189 -0.7868
17924TIP3   OH275262   5.982   0.707  10.562  0.1098  0.0924  0.1869
17924TIP3    H175263   5.948   0.796  10.572 -1.7634 -0.4707 -0.7189
17924TIP3    H275264   5.974   0.668  10.649  0.4694  0.6377  0.4711
17925TIP3   OH275265   5.674   4.037   4.347 -0.3907  0.0637  0.5546
17925TIP3    H175266   5.643   4.103   4.285 -1.2757 -0.0537  0.8516
17925TIP3    H275267   5.744   4.080   4.395 -1.3127  0.9922  1.1185
17926TIP3   OH275268   3.589   2.133  14.211 -0.2796  0.0948  0.1220
17926TIP3    H175269   3.584   2.071  14.138  0.7486  0.2436 -0.0957
17926TIP3    H275270   3.651   2.199  14.181 -0.6755  0.7456  0.7105
17927TIP3   OH275271   6.469   2.881   2.698 -0.3982  0.3288 -0.2414
17927TIP3    H175272   6.459   2.840   2.612 -0.1996  1.6701 -0.9318
17927TIP3    H275273   6.561   2.909   2.700 -0.3727  0.2132  0.4585
17928TIP3   OH275274   5.089   6.313   3.839  0.5082  1.1863  0.2061
17928TIP3    H175275   5.155   6.328   3.770 -0.2305  1.1050 -0.5283
17928TIP3    H275276   5.087   6.396   3.887  2.9931  0.3987  1.9082
17929TIP3   OH275277   4.147   5.668  11.788  0.3299  0.1692  0.0683
17929TIP3    H175278   4.187   5.727  11.852 -0.0198 -0.6087  1.0430
17929TIP3    H275279   4.166   5.707  11.703  0.9286  1.1626  0.6432
17930TIP3   OH275280   2.892   6.021   1.129  0.3642  0.5132 -0.0061
17930TIP3    H175281   2.982   6.006   1.159 -0.1854  0.5243  1.7332
17930TIP3    H275282   2.850   6.070   1.200 -0.7486  1.4232 -1.2257
17931TIP3   OH275283   1.630   1.642   4.595 -0.2822 -0.7507  0.2776
17931TIP3    H175284   1.670   1.557   4.615 -0.0294 -1.1360 -1.6579
17931TIP3    H275285   1.542   1.620   4.565  0.8058 -0.7425 -3.3702
17932TIP3   OH275286   0.408   1.134  13.968  0.0928  0.8590  0.2499
17932TIP3    H175287   0.335   1.114  13.910  0.8930 -0.7573 -0.2571
17932TIP3    H275288   0.429   1.051  14.010  1.5444  1.3320  0.5168
17933TIP3   OH275289   3.254   5.994   4.634  0.0591  0.3148 -0.5537
17933TIP3    H175290   3.165   6.026   4.624 -0.3262 -0.8679 -1.0456
17933TIP3    H275291   3.309   6.071   4.620 -0.7658  0.5006 -3.4506
17934TIP3   OH275292   3.729   0.476   6.398  0.1864  0.1928  0.4329
17934TIP3    H175293   3.689   0.525   6.470  0.5235  0.0108  0.7445
17934TIP3    H275294   3.727   0.385   6.426  0.6319  0.1585  0.3592
17935TIP3   OH275295   2.436   2.786   5.049  0.0754 -0.4378  0.3215
17935TIP3    H175296   2.414   2.764   5.139 -0.6084 -1.8184 -0.1565
17935TIP3    H275297   2.471   2.706   5.012  1.5542  0.4563 -0.3105
17936TIP3   OH275298   6.129   5.029   0.746 -0.2743  0.1827 -0.1371
17936TIP3    H175299   6.180   5.039   0.826 -0.3939 -2.2832  0.3170
17936TIP3    H275300   6.129   5.116   0.706  2.6057  0.7161  0.8292
17937TIP3   OH275301   4.522   0.364   0.898 -0.4001 -0.5800 -0.0315
17937TIP3    H175302   4.614   0.386   0.880  0.1682 -1.8467  1.1869
17937TIP3    H275303   4.472   0.428   0.847  1.1531  0.3918 -0.4042
17938TIP3   OH275304   6.760   0.266  15.277 -0.0212  0.3931 -0.0486
17938TIP3    H175305   6.814   0.344  15.288 -0.2193  0.3891  1.1380
17938TIP3    H275306   6.684   0.297  15.228 -0.8422  1.3365  1.7214
17939TIP3   OH275307   2.674   4.350   3.289 -0.0075 -0.3587  0.7805
17939TIP3    H175308   2.660   4.305   3.206  0.2398  3.1218 -1.3231
17939TIP3    H275309   2.768   4.365   3.293  0.0494 -0.9146  1.9871
17940TIP3   OH275310   2.940   5.105  13.358  0.2546  0.2071 -0.1399
17940TIP3    H175311   2.849   5.094  13.330  0.2077 -0.0808  0.1236
17940TIP3    H275312   2.955   5.200  13.353 -0.7111  0.5073  1.7516
17941TIP3   OH275313   0.731   4.149  13.678  0.3440 -0.2806 -0.5211
17941TIP3    H175314   0.775   4.080  13.728 -0.2680 -2.8671 -3.2256
17941TIP3    H275315   0.638   4.130  13.689  0.1905 -0.9389 -2.4719
17942TIP3   OH275316   6.122   1.746  12.797 -0.0896 -0.4654 -0.7896
17942TIP3    H175317   6.076   1.761  12.880 -0.9378 -0.4751 -1.2497
17942TIP3    H275318   6.212   1.775  12.814 -0.5698  0.8042 -0.2578
17943TIP3   OH275319   5.027   1.058  14.129 -0.5014 -0.5422  0.7617
17943TIP3    H175320   5.119   1.085  14.126 -0.5706 -0.3556  0.0666
17943TIP3    H275321   4.996   1.086  14.215 -0.0211 -0.2308  0.8367
17944TIP3   OH275322   1.444   2.503  13.897 -0.4709 -0.0461  0.2703
17944TIP3    H175323   1.418   2.553  13.819 -1.5368  0.0178  0.6429
17944TIP3    H275324   1.474   2.419  13.862 -1.1573 -0.1022 -0.2172
17945TIP3   OH275325   1.441   0.885  14.155  0.0648  0.0621  0.4762
17945TIP3    H175326   1.500   0.958  14.171  1.6069 -1.2826  1.1557
17945TIP3    H275327   1.487   0.830  14.091 -0.6478 -0.7883  0.6650
17946TIP3   OH275328   2.515   1.302   0.272 -0.1422 -0.1082 -0.0699
17946TIP3    H175329   2.440   1.266   0.225 -0.2208 -0.2141  0.1318
17946TIP3    H275330   2.553   1.365   0.212 -0.5306  0.1175 -0.0822
17947TIP3   OH275331   4.042   2.843   3.070  0.1148 -0.3830 -0.1389
17947TIP3    H175332   3.988   2.897   3.128 -0.3011 -1.7606  0.8193
17947TIP3    H275333   4.030   2.881   2.983  0.5865  1.6148  0.6162
17948TIP3   OH275334   5.091   3.877   5.001 -0.1872  1.2159 -0.1130
17948TIP3    H175335   5.049   3.879   4.915 -1.0307  2.2277  0.3045
17948TIP3    H275336   5.169   3.824   4.988 -0.1829  1.5425 -1.5579
17949TIP3   OH275337   0.924   1.726   6.249 -0.4231 -0.3103 -0.4276
17949TIP3    H175338   0.904   1.807   6.202 -0.3959 -0.8750 -1.4464
17949TIP3    H275339   0.941   1.662   6.180 -0.1011 -1.1023  0.3649
17950TIP3   OH275340   3.427   1.167  11.222  0.0348  0.3124 -0.2008
17950TIP3    H175341   3.414   1.143  11.313  0.7506 -0.8061 -0.3749
17950TIP3    H275342   3.433   1.263  11.223 -0.5883  0.3506  0.8280
17951TIP3   OH275343   2.534   0.775  11.986 -0.8220  0.6349 -0.1405
17951TIP3    H175344   2.609   0.786  11.927  0.1352 -2.8611  0.1682
17951TIP3    H275345   2.554   0.830  12.061  1.3200  0.0849 -0.2414
17952TIP3   OH275346   6.775   2.996   4.114  0.5698 -0.0558  0.1974
17952TIP3    H175347   6.691   2.964   4.147  0.6549 -2.1286 -1.3634
17952TIP3    H275348   6.769   3.091   4.120 -1.1954 -0.2083  1.6958
17953TIP3   OH275349   2.018   3.431  15.740  0.1479  0.3484  0.0294
17953TIP3    H175350   2.011   3.386  15.824  2.1669  0.0856  0.1120
17953TIP3    H275351   1.936   3.478  15.730 -0.0553  0.5352  2.2450
17954TIP3   OH275352   1.544   4.148   1.193 -0.1738  0.0554 -0.2161
17954TIP3    H175353   1.565   4.130   1.285 -1.5983  0.7827  0.2803
17954TIP3    H275354   1.538   4.061   1.153 -1.3919 -0.3981  0.8420
17955TIP3   OH275355   1.662   0.515   5.594  0.0901 -0.1850  0.1473
17955TIP3    H175356   1.718   0.438   5.593  0.7191  0.2710 -0.2915
17955TIP3    H275357   1.656   0.541   5.502 -0.5686 -0.0264  0.2292
17956TIP3   OH275358   4.378   0.018   3.868  0.2911 -0.3521  0.6659
17956TIP3    H175359   4.422   0.054   3.791  0.3071 -1.1151  0.3179
17956TIP3    H275360   4.399   0.080   3.938  2.8813 -1.2519  0.8072
17957TIP3   OH275361   0.322   2.245   1.001  0.4112 -0.1614 -0.4346
17957TIP3    H175362   0.401   2.279   0.959  0.5030 -0.0874 -0.2017
17957TIP3    H275363   0.334   2.150   1.002  1.2416 -0.0674  1.0643
17958TIP3   OH275364   5.161   4.801   1.462  0.2130  0.0878  1.0184
17958TIP3    H175365   5.180   4.714   1.498  1.0158  0.1551  0.7657
17958TIP3    H275366   5.067   4.813   1.479 -0.4719 -1.7908 -0.9971
17959TIP3   OH275367   6.552   1.561  15.100 -0.0302  0.2985  0.1130
17959TIP3    H175368   6.600   1.515  15.031 -0.7667  2.3538 -1.9047
17959TIP3    H275369   6.612   1.560  15.176  0.3224 -3.0395 -0.0769
17960TIP3   OH275370   6.510   1.432  11.892  0.1781  0.6715  0.0320
17960TIP3    H175371   6.498   1.372  11.818 -1.7781 -1.4029  1.8815
17960TIP3    H275372   6.523   1.517  11.851 -1.9734 -0.1688 -2.7410
17961TIP3   OH275373   3.049   2.186  11.160 -0.2681 -0.2782  0.1602
17961TIP3    H175374   3.137   2.215  11.185 -0.2386 -0.1440 -0.0953
17961TIP3    H275375   3.036   2.104  11.208 -0.4409  0.2697  1.0730
17962TIP3   OH275376   6.123   6.624   2.986  0.0377 -0.1422 -0.8457
17962TIP3    H175377   6.183   6.589   2.920 -0.3228 -1.5498 -0.4468
17962TIP3    H275378   6.178   6.678   3.043  0.8055 -0.9012 -0.8620
17963TIP3   OH275379   1.189   1.987   0.947 -0.1753  0.8709  0.0440
17963TIP3    H175380   1.104   1.944   0.952 -0.6546  1.7337 -0.4984
17963TIP3    H275381   1.196   2.036   1.029 -1.5548  3.2073 -1.1369
17964TIP3   OH275382   6.497   3.527  11.169 -0.0277  0.4424 -0.2744
17964TIP3    H175383   6.472   3.441  11.202 -1.7062  1.2186  0.5935
17964TIP3    H275384   6.443   3.539  11.090  0.5129  0.5360 -0.6374
17965TIP3   OH275385   1.045   5.767   5.878  0.2187 -0.5277  0.4447
17965TIP3    H175386   0.990   5.721   5.814  0.9638 -0.3450 -0.3406
17965TIP3    H275387   1.049   5.707   5.953  0.5332 -1.4064 -0.2545
17966TIP3   OH275388   0.303   2.364   1.287 -0.8057 -0.0828 -0.4850
17966TIP3    H175389   0.335   2.331   1.203 -1.8705 -1.6202 -0.3399
17966TIP3    H275390   0.277   2.285   1.335  3.0890  0.3181  2.8199
17967TIP3   OH275391   1.488   5.767   0.602  0.0531  0.2495 -0.0706
17967TIP3    H175392   1.553   5.837   0.601 -1.6764  1.9233  0.0566
17967TIP3    H275393   1.406   5.810   0.624 -0.7029 -2.1883  2.5421
17968TIP3   OH275394   4.870   4.861   4.394  0.0207  0.3383 -0.1297
17968TIP3    H175395   4.861   4.955   4.377 -0.6991  0.3768  0.4370
17968TIP3    H275396   4.806   4.820   4.335  1.2537  0.0981 -1.3417
17969TIP3   OH275397   1.181   0.858  10.282 -0.1789  0.0487  0.5841
17969TIP3    H175398   1.092   0.823  10.289 -0.0901 -0.4306 -0.4444
17969TIP3    H275399   1.231   0.789  10.240  0.1980  1.0715 -0.7309
17970TIP3   OH275400   3.183   1.747  11.548 -0.5173  0.0994 -0.1157
17970TIP3    H175401   3.179   1.822  11.490  0.8671 -0.2701 -0.7181
17970TIP3    H275402   3.275   1.719  11.547 -0.9194 -1.3784  0.3667
17971TIP3   OH275403   5.237   4.577   2.127 -0.0520 -0.0337  0.4935
17971TIP3    H175404   5.282   4.510   2.075 -1.2991 -0.0046 -0.6717
17971TIP3    H275405   5.232   4.653   2.070  0.4202  0.7316  1.4384
17972TIP3   OH275406   3.811   5.304  14.304  0.2803 -0.4732 -0.4864
17972TIP3    H175407   3.832   5.296  14.397 -0.6657 -1.7142 -0.3474
17972TIP3    H275408   3.715   5.304  14.301  0.2983 -0.7849 -1.4688
17973TIP3   OH275409   3.596   2.593   5.136  0.5633  0.1326 -0.3092
17973TIP3    H175410   3.508   2.626   5.117  1.3900  3.1934  0.6619
17973TIP3    H275411   3.583   2.533   5.210 -0.7511  0.0358 -0.5909
17974TIP3   OH275412   5.489   2.350   0.014  0.1873 -0.2544  0.1692
17974TIP3    H175413   5.500   2.411   0.087 -0.4298  0.6529 -0.4716
17974TIP3    H275414   5.575   2.348  -0.029  0.5388 -0.7524  0.8719
17975TIP3   OH275415   5.036   1.554  11.316  0.3416 -0.0746  0.2923
17975TIP3    H175416   5.094   1.528  11.244 -0.3956 -1.1089  0.0442
17975TIP3    H275417   4.985   1.627  11.282 -0.9491 -1.3987 -0.7548
17976TIP3   OH275418   6.419   4.782   4.651 -0.0914  0.0982 -0.7510
17976TIP3    H175419   6.470   4.849   4.697 -0.6128 -0.4513  0.6688
17976TIP3    H275420   6.485   4.717   4.624  0.1828  0.2364 -0.4302
17977TIP3   OH275421   1.682   6.652   2.923  0.0363 -0.2784  0.3344
17977TIP3    H175422   1.686   6.745   2.897 -0.7674 -0.7363 -1.6243
17977TIP3    H275423   1.738   6.607   2.859 -0.6934 -1.2975  0.3879
17978TIP3   OH275424   5.604   1.597   2.484  0.8682 -0.8989  0.1089
17978TIP3    H175425   5.543   1.646   2.540 -1.1917 -0.9644 -1.8939
17978TIP3    H275426   5.669   1.661   2.458 -0.2437  0.1082 -0.3000
17979TIP3   OH275427   1.286   6.684  13.388 -0.0177 -0.1353 -0.5459
17979TIP3    H175428   1.221   6.707  13.454 -0.2116  1.6453 -1.3174
17979TIP3    H275429   1.369   6.718  13.422  0.6388 -2.5908  0.5426
17980TIP3   OH275430   3.893   5.980   1.857 -0.0891  0.5468  0.4865
17980TIP3    H175431   3.827   5.919   1.824  1.2129 -1.5519  1.5457
17980TIP3    H275432   3.846   6.063   1.867 -2.8549 -1.0343  2.0110
17981TIP3   OH275433   3.516   5.415   1.927  0.9120  0.2801  0.2558
17981TIP3    H175434   3.454   5.415   2.000  0.8361  0.4793  0.1927
17981TIP3    H275435   3.477   5.356   1.862  1.1951 -0.2401  0.5558
17982TIP3   OH275436   0.312   1.604   4.543  0.4747 -0.0812  0.5956
17982TIP3    H175437   0.406   1.587   4.544  0.3049 -1.0562  1.9000
17982TIP3    H275438   0.294   1.652   4.624 -0.1301  0.2606  0.2726
17983TIP3   OH275439   1.798   1.742  10.909  0.2424  0.6458 -0.2166
17983TIP3    H175440   1.851   1.750  10.988  1.4780 -1.4860 -0.7435
17983TIP3    H275441   1.861   1.740  10.837 -0.7580  1.0479 -1.1382
17984TIP3   OH275442   0.667   2.631   6.381  0.1442 -0.5650  0.1000
17984TIP3    H175443   0.682   2.612   6.474  1.9973  0.7734  0.1223
17984TIP3    H275444   0.627   2.550   6.347 -1.0531 -0.9132  2.1252
17985TIP3   OH275445   4.900   2.887  16.433 -0.2349 -0.7776  0.0508
17985TIP3    H175446   4.994   2.908  16.429 -0.7503  2.2781  1.2860
17985TIP3    H275447   4.897   2.798  16.468  2.2014 -1.5631 -1.4705
17986TIP3   OH275448   1.843   4.410  13.230  0.3344  0.3185 -0.1860
17986TIP3    H175449   1.887   4.459  13.300 -0.4177  0.4311  0.2206
17986TIP3    H275450   1.897   4.332  13.217  1.5278  1.2107 -0.8066
17987TIP3   OH275451   2.539   4.421   2.180 -0.0297 -0.0710  0.0215
17987TIP3    H175452   2.590   4.419   2.261 -1.7245 -0.0446  1.1399
17987TIP3    H275453   2.483   4.498   2.189 -3.1597 -2.2570  0.7422
17988TIP3   OH275454   2.376   4.708  15.749  0.5790 -0.2229  0.1217
17988TIP3    H175455   2.471   4.701  15.748  0.6938  1.0589 -1.1534
17988TIP3    H275456   2.352   4.723  15.657 -1.1108 -3.2826 -0.0881
17989TIP3   OH275457   5.084   3.406   2.471 -0.2289 -0.2286  0.4746
17989TIP3    H175458   5.128   3.326   2.440 -1.9223 -1.8446  2.0008
17989TIP3    H275459   5.080   3.396   2.566  2.7668  3.4825  1.2580
17990TIP3   OH275460   4.705   0.534   5.524 -0.2754  0.6425 -0.1542
17990TIP3    H175461   4.713   0.611   5.469  0.0312  1.3385  0.8372
17990TIP3    H275462   4.788   0.530   5.571 -1.0528  0.8850  1.2878
17991TIP3   OH275463   5.755   5.196   3.653  0.0044  0.8115  0.4486
17991TIP3    H175464   5.716   5.159   3.732  0.6375 -1.9496 -0.4160
17991TIP3    H275465   5.841   5.228   3.681  0.3537 -0.4282  0.8691
17992TIP3   OH275466   1.489   6.519   4.223  0.6131 -0.1482 -0.0831
17992TIP3    H175467   1.475   6.452   4.156  1.2114 -0.4570  0.0909
17992TIP3    H275468   1.421   6.584   4.207  1.2620  0.2166 -1.5345
17993TIP3   OH275469   1.369   4.716  10.856  0.6063  0.0836  0.0615
17993TIP3    H175470   1.380   4.643  10.917 -2.3858  1.3353  2.3233
17993TIP3    H275471   1.280   4.747  10.871  0.4117  1.7862 -3.6093
17994TIP3   OH275472   6.773   1.263   0.374  0.1676  0.2989 -0.4121
17994TIP3    H175473   6.682   1.237   0.389  0.3068  0.3264  0.6027
17994TIP3    H275474   6.780   1.277   0.280 -1.2750  1.7785 -0.3328
17995TIP3   OH275475   6.014   1.848  12.052  0.3763 -0.4018 -0.2359
17995TIP3    H175476   6.015   1.874  12.144 -0.1703 -1.6597  0.1354
17995TIP3    H275477   5.955   1.773  12.048  0.7166 -0.6285 -1.5419
17996TIP3   OH275478   4.283   2.362   0.848  0.6545  0.1701  0.0063
17996TIP3    H175479   4.366   2.320   0.825  0.7101  0.6493 -0.7024
17996TIP3    H275480   4.309   2.437   0.901  0.5988 -0.2783  0.6823
17997TIP3   OH275481   2.460   6.652  13.014  0.0665 -0.3149  0.0340
17997TIP3    H175482   2.396   6.708  12.969  0.3065  0.2679  0.3954
17997TIP3    H275483   2.430   6.651  13.105 -0.3615 -1.4007 -0.1118
17998TIP3   OH275484   2.439   5.419   6.755  0.3359 -0.7148  1.0196
17998TIP3    H175485   2.508   5.479   6.785  0.5923  0.3420 -1.3931
17998TIP3    H275486   2.370   5.427   6.820  1.3713  0.3774  2.0287
17999TIP3   OH275487   2.259   3.416   1.719 -0.1396 -0.2598 -0.1620
17999TIP3    H175488   2.304   3.465   1.789  0.9447 -1.2126 -0.1714
17999TIP3    H275489   2.282   3.463   1.639  0.6863 -0.6112 -0.1420
18000TIP3   OH275490   0.178   3.091   5.527 -0.5342 -0.1677  0.5505
18000TIP3    H175491   0.155   3.082   5.434 -0.9364 -3.4671  0.8557
18000TIP3    H275492   0.229   3.172   5.531 -1.1861  0.5119 -2.3846
18001TIP3   OH275493   2.269   2.252  16.234  0.5119  0.4124 -0.4678
18001TIP3    H175494   2.318   2.193  16.292  0.5191  0.6061 -0.2740
18001TIP3    H275495   2.320   2.334  16.235 -1.0863  1.4961  1.7330
18002TIP3   OH275496   4.122   3.609  11.570 -0.1306  0.0349  0.0224
18002TIP3    H175497   4.055   3.671  11.540 -2.6139 -1.6207  1.6555
18002TIP3    H275498   4.111   3.607  11.665  2.6209 -0.0323  0.4184
18003TIP3   OH275499   0.896   5.004  13.999  0.0746 -0.2431  0.6399
18003TIP3    H175500   0.854   5.028  13.917 -0.1627  0.2391  0.8943
18003TIP3    H275501   0.854   5.060  14.065 -0.3184 -1.2029  1.2233
18004TIP3   OH275502   5.384   1.359   0.680 -0.2846 -0.8359 -0.1730
18004TIP3    H175503   5.446   1.429   0.700 -1.7960  0.3252  0.5948
18004TIP3    H275504   5.307   1.403   0.646 -1.9730 -1.9020  1.9990
18005TIP3   OH275505   2.692   4.181  11.614 -0.1606 -0.2719  0.2591
18005TIP3    H175506   2.770   4.237  11.610  0.4826 -1.0070  1.8300
18005TIP3    H275507   2.672   4.175  11.707 -1.9392 -0.3534 -0.0922
18006TIP3   OH275508   3.427   1.816  14.144 -0.4273 -0.4596  0.3151
18006TIP3    H175509   3.444   1.864  14.062  0.1082 -0.1057  0.6288
18006TIP3    H275510   3.361   1.869  14.190 -0.6231 -0.5849  0.1819
18007TIP3   OH275511   6.455   6.297   4.431  0.1286 -0.2381 -0.1112
18007TIP3    H175512   6.418   6.211   4.411 -1.7632  0.2442  1.0598
18007TIP3    H275513   6.409   6.356   4.371  1.1197  0.0478 -0.6185
18008TIP3   OH275514   0.557   0.090  11.684 -0.0904 -0.0958 -0.2671
18008TIP3    H175515   0.508   0.027  11.737  0.5065 -0.5730 -0.2670
18008TIP3    H275516   0.490   0.141  11.639 -0.5906 -1.5488 -1.2394
18009TIP3   OH275517   2.673   3.642  12.445  0.3138 -0.3113 -0.3692
18009TIP3    H175518   2.689   3.721  12.497  1.3943 -0.8164  0.1096
18009TIP3    H275519   2.656   3.674  12.357  0.2200  0.4807 -0.0671
18010TIP3   OH275520   4.483   5.726   5.085  0.1326  0.0048 -0.1796
18010TIP3    H175521   4.437   5.794   5.135  1.0390  1.3089 -1.0405
18010TIP3    H275522   4.422   5.702   5.015 -0.0777  0.1554 -0.0494
18011TIP3   OH275523   2.491   5.299   4.868 -0.0112  0.5957  0.5420
18011TIP3    H175524   2.573   5.343   4.889  0.7707 -0.6295  0.1468
18011TIP3    H275525   2.510   5.206   4.878 -1.6486  0.3164  1.4462
18012TIP3   OH275526   5.973   6.248  14.787  0.4761 -0.6845 -0.6706
18012TIP3    H175527   5.894   6.196  14.771  0.7870 -0.8599 -1.7546
18012TIP3    H275528   5.948   6.310  14.855 -0.5707 -0.7800 -0.9544
18013TIP3   OH275529   0.043   5.747   2.054  0.2432  0.2956  0.6715
18013TIP3    H175530   0.015   5.749   2.145 -2.0277  0.1623  0.0335
18013TIP3    H275531   0.105   5.674   2.049  1.9463  1.5071  2.4434
18014TIP3   OH275532   6.667   2.397  12.315  0.1665 -0.0312 -0.1966
18014TIP3    H175533   6.756   2.404  12.280 -0.3178  0.6815 -1.3497
18014TIP3    H275534   6.614   2.454  12.259 -1.4050 -2.0599 -0.9261
18015TIP3   OH275535   2.165   1.393  13.977 -0.4729 -0.0265 -0.2357
18015TIP3    H175536   2.153   1.370  13.885 -1.8275 -1.3931  0.2292
18015TIP3    H275537   2.175   1.308  14.022 -0.6827  0.5585  0.9672
18016TIP3   OH275538   4.647   1.727  13.538  0.3959  0.2843 -0.5881
18016TIP3    H175539   4.551   1.728  13.537  0.3551 -0.8208  0.5246
18016TIP3    H275540   4.672   1.819  13.551 -0.4799  0.6635 -1.4206
18017TIP3   OH275541   5.382   4.094  14.924  0.6218  0.6128  0.4026
18017TIP3    H175542   5.438   4.044  14.984 -0.7146  0.4273  1.5268
18017TIP3    H275543   5.341   4.028  14.869 -0.6541  0.4960  1.4661
18018TIP3   OH275544   6.558   0.938  13.987  0.3453 -0.1518  0.3016
18018TIP3    H175545   6.503   1.015  13.978  0.4005 -0.2297 -0.8853
18018TIP3    H275546   6.600   0.928  13.901  1.9859 -0.2637  1.0747
18019TIP3   OH275547   1.451   4.986  14.265 -0.0341  0.1499  0.3481
18019TIP3    H175548   1.392   5.006  14.338 -1.0664 -1.4101 -0.0051
18019TIP3    H275549   1.524   4.940  14.306 -0.7915 -1.0637  0.4109
18020TIP3   OH275550   4.924   4.987   2.322 -0.7495  0.2627  0.1317
18020TIP3    H175551   4.936   5.081   2.336  1.6426 -0.2183  2.1687
18020TIP3    H275552   4.873   4.980   2.241 -0.6681  3.2838 -0.2746
18021TIP3   OH275553   6.041   0.690   0.963  0.2025  0.0381  0.3694
18021TIP3    H175554   6.083   0.724   0.884 -0.3567 -2.4848 -1.1358
18021TIP3    H275555   6.113   0.649   1.012 -0.1242 -3.8297 -1.9590
18022TIP3   OH275556   3.938   3.923  12.079 -0.1871  0.1448 -0.3499
18022TIP3    H175557   4.024   3.964  12.082 -0.1467  0.0500  2.1749
18022TIP3    H275558   3.952   3.835  12.112 -1.2945  0.3108  0.6547
18023TIP3   OH275559   1.681   1.881   3.720  0.2448 -0.3344  0.0808
18023TIP3    H175560   1.727   1.825   3.782  1.4244 -0.7696 -1.1398
18023TIP3    H275561   1.742   1.892   3.648 -1.1744 -0.0342 -1.1242
18024TIP3   OH275562   0.099   1.958   4.023  0.3281 -0.3459 -0.1843
18024TIP3    H175563   0.179   1.927   3.982  0.8836 -0.3237  0.8596
18024TIP3    H275564   0.062   1.881   4.066 -0.9037 -0.6561 -1.7037
18025TIP3   OH275565   2.516   4.620   1.764 -0.3150 -0.4865 -0.3977
18025TIP3    H175566   2.538   4.712   1.753 -0.9081 -0.4442 -1.2874
18025TIP3    H275567   2.488   4.613   1.855 -0.7161  0.3067 -0.4541
18026TIP3   OH275568   3.930   4.230  12.486  0.0936 -0.0867 -0.0699
18026TIP3    H175569   3.898   4.183  12.563  0.6957 -1.0284 -0.3821
18026TIP3    H275570   3.993   4.293  12.521 -2.6376  2.4899  0.6822
18027TIP3   OH275571   6.123   3.463  16.150 -0.5930  0.0214 -0.8704
18027TIP3    H175572   6.151   3.554  16.151 -1.3055  0.2526 -1.4861
18027TIP3    H275573   6.134   3.435  16.059 -1.8541 -0.0307 -1.0174
18028TIP3   OH275574   2.224   2.803   4.850  0.2911 -0.2546  0.1298
18028TIP3    H175575   2.235   2.723   4.901  0.0583 -0.3882 -0.0285
18028TIP3    H275576   2.299   2.857   4.873 -0.5060  0.2533  1.6717
18029TIP3   OH275577   6.496   3.266   2.693 -0.2549  0.3398  0.3527
18029TIP3    H175578   6.513   3.331   2.625 -1.4896  2.5637  2.0438
18029TIP3    H275579   6.546   3.295   2.768 -0.2740 -1.1082  0.9607
18030TIP3   OH275580   1.249   5.389  11.996  0.4227 -0.8378  0.0273
18030TIP3    H175581   1.284   5.300  12.002  2.8747  0.0988  0.4559
18030TIP3    H275582   1.195   5.399  12.075 -0.2268 -2.0393 -0.2336
18031TIP3   OH275583   3.408   5.522  13.292  0.2126  0.3307  0.2115
18031TIP3    H175584   3.454   5.603  13.269  1.4303 -0.2880  0.3661
18031TIP3    H275585   3.425   5.511  13.385 -0.4152  0.1772  0.3113
18032TIP3   OH275586   2.795   5.125  13.059 -0.9441  0.5983 -0.3108
18032TIP3    H175587   2.864   5.184  13.089  0.2425 -1.1330  0.5411
18032TIP3    H275588   2.831   5.082  12.982 -1.0969 -0.1901  0.0356
18033TIP3   OH275589   2.044   0.406   3.560  0.0699  0.2594 -0.0205
18033TIP3    H175590   2.044   0.332   3.498  0.2665  0.5635 -0.3873
18033TIP3    H275591   2.136   0.421   3.580  0.2048  1.5948 -1.4036
18034TIP3   OH275592   6.023   2.578  16.992 -0.0330  0.3249 -0.3128
18034TIP3    H175593   5.928   2.580  16.981 -0.0219  1.7996 -0.2990
18034TIP3    H275594   6.039   2.619  17.077  0.4429 -3.2052  1.4911
18035TIP3   OH275595   1.479   3.812   1.607 -0.2540 -1.0072 -0.3054
18035TIP3    H175596   1.485   3.785   1.515  0.5750 -0.8006 -0.3164
18035TIP3    H275597   1.570   3.819   1.636 -0.4734  0.4066  0.1010
18036TIP3   OH275598   4.413   6.466   3.343 -0.3897 -0.1829 -0.4429
18036TIP3    H175599   4.400   6.512   3.260 -1.9442 -0.1427 -0.2033
18036TIP3    H275600   4.504   6.436   3.339  0.6014  2.6237 -0.7122
18037TIP3   OH275601   0.860   1.186  15.819 -0.0390 -0.1961  0.4905
18037TIP3    H175602   0.894   1.245  15.752 -0.9249 -0.4936 -0.2523
18037TIP3    H275603   0.787   1.141  15.776  1.1120 -2.4628  0.7375
18038TIP3   OH275604   3.267   6.159  14.383  0.6926 -0.1199 -0.2658
18038TIP3    H175605   3.334   6.141  14.316  2.1708  0.7240  0.9104
18038TIP3    H275606   3.188   6.179  14.333  1.1592 -1.6282 -1.7035
18039TIP3   OH275607   5.044   3.223  12.048  0.4843  0.0273 -0.1962
18039TIP3    H175608   5.057   3.303  11.997  0.8021 -0.9413 -1.6915
18039TIP3    H275609   4.949   3.215  12.057  0.4692  0.8667  0.4663
18040TIP3   OH275610   2.607   3.225  15.688  0.4080  0.3390 -0.3847
18040TIP3    H175611   2.649   3.307  15.661 -0.8090  0.9312 -0.5570
18040TIP3    H275612   2.668   3.187  15.751  3.4386 -1.1624 -3.8382
18041TIP3   OH275613   0.374   4.105  11.507 -0.4536  0.2767 -0.2015
18041TIP3    H175614   0.336   4.027  11.467 -2.0372  0.0998  1.4722
18041TIP3    H275615   0.412   4.073  11.589  2.8342  0.5902 -1.4881
18042TIP3   OH275616   4.424   5.400   5.356  0.4962 -0.2424 -0.0762
18042TIP3    H175617   4.494   5.387   5.419 -2.1706 -1.1903  2.9475
18042TIP3    H275618   4.370   5.470   5.394 -0.5114  0.1128 -2.0182
18043TIP3   OH275619   3.309   0.908   4.397  0.2756  0.1157 -0.2503
18043TIP3    H175620   3.292   0.914   4.303  2.0336  3.4167 -0.5153
18043TIP3    H275621   3.404   0.905   4.404  0.2056  0.5714  1.4009
18044TIP3   OH275622   5.579   4.381   2.542 -0.6502  0.0280  0.0259
18044TIP3    H175623   5.514   4.449   2.525  0.7739  1.4274  0.0139
18044TIP3    H275624   5.589   4.336   2.458 -0.2092  1.0676 -0.4903
18045TIP3   OH275625   3.118   1.807   4.408 -0.3415 -0.0446 -0.4985
18045TIP3    H175626   3.165   1.823   4.327  3.3094 -1.2020  1.1894
18045TIP3    H275627   3.100   1.894   4.443  0.7380  0.4433 -1.1298
18046TIP3   OH275628   0.395   1.130   2.148  0.4816 -0.0682 -1.0153
18046TIP3    H175629   0.461   1.080   2.099  0.1139 -0.1795 -1.4035
18046TIP3    H275630   0.336   1.163   2.080 -0.1534 -0.3991 -0.6302
18047TIP3   OH275631   5.215   5.784  16.713 -0.2310  0.5918 -0.2171
18047TIP3    H175632   5.290   5.773  16.656 -1.2383 -1.5062 -1.2195
18047TIP3    H275633   5.190   5.695  16.739 -3.4371  1.0136 -1.3935
18048TIP3   OH275634   5.125   3.017   4.645 -0.2704  0.0315  0.1805
18048TIP3    H175635   5.091   3.094   4.691 -1.0763 -0.5758  0.6515
18048TIP3    H275636   5.050   2.984   4.595  0.0270 -0.4992  0.0744
18049TIP3   OH275637   3.189   2.523  15.471 -0.8917 -0.5441  0.1457
18049TIP3    H175638   3.154   2.475  15.396 -0.9008  0.2163 -0.3556
18049TIP3    H275639   3.222   2.605  15.433 -1.8165  0.3065  1.0999
18050TIP3   OH275640   5.309   3.255  16.965 -0.2867  0.1528 -0.1069
18050TIP3    H175641   5.404   3.246  16.974 -0.2717  0.1795 -0.2281
18050TIP3    H275642   5.275   3.167  16.979 -0.4090  0.4678  1.8257
18051TIP3   OH275643   0.688   4.045   5.105  0.3597  0.3067 -0.1353
18051TIP3    H175644   0.674   4.128   5.150  1.2122  0.4560 -0.1175
18051TIP3    H275645   0.603   4.001   5.106  0.2793  0.4791  1.2704
18052TIP3   OH275646   1.216   6.687   5.070  0.0377 -0.0210 -0.5098
18052TIP3    H175647   1.238   6.755   5.007  0.6845 -1.3171 -1.7297
18052TIP3    H275648   1.254   6.717   5.152  0.0560  1.2171 -0.9499
18053TIP3   OH275649   4.925   1.378   1.052 -0.0640 -0.4111  0.4376
18053TIP3    H175650   4.993   1.327   1.096  1.2921  0.4420 -0.5902
18053TIP3    H275651   4.902   1.325   0.976 -0.6394 -0.7528  0.8472
18054TIP3   OH275652   0.304   2.816   1.262 -0.6190 -0.1407  0.1357
18054TIP3    H175653   0.360   2.866   1.202 -0.7417 -1.7032 -1.3593
18054TIP3    H275654   0.289   2.875   1.336  0.8615  1.2670 -0.6289
18055TIP3   OH275655   0.826   5.232   5.043 -0.2059  0.6142 -0.1422
18055TIP3    H175656   0.829   5.198   4.954  0.2912  1.4836 -0.4631
18055TIP3    H275657   0.889   5.303   5.044  2.1612 -1.3258  1.7538
18056TIP3   OH275658   2.348   2.614  11.571 -0.4511 -0.1052  0.4283
18056TIP3    H175659   2.277   2.637  11.511 -2.4672  0.7686  2.9213
18056TIP3    H275660   2.428   2.638  11.524 -1.7854 -0.5218 -2.2660
18057TIP3   OH275661   2.545   3.657   0.825 -0.3021  0.6436 -0.4696
18057TIP3    H175662   2.601   3.732   0.846 -1.7611  1.3306  1.2729
18057TIP3    H275663   2.464   3.696   0.792 -1.7563  0.0176  2.0807
18058TIP3   OH275664   1.832   2.924   0.442 -0.3754  0.1140  0.2704
18058TIP3    H175665   1.831   2.871   0.363 -1.7910  2.3732 -1.3538
18058TIP3    H275666   1.887   2.999   0.420 -1.4034  1.1618  1.1055
18059TIP3   OH275667   6.405   6.265   4.089  0.2720  0.0067 -0.0400
18059TIP3    H175668   6.387   6.336   4.150  0.4746 -1.2759  1.5964
18059TIP3    H275669   6.318   6.229   4.068  0.2682 -0.2833  0.4466
18060TIP3   OH275670   4.580   0.913  13.207 -0.4612  0.3551 -0.6674
18060TIP3    H175671   4.489   0.891  13.186 -0.0426 -2.0517 -0.2326
18060TIP3    H275672   4.616   0.832  13.243  1.9667  1.1414 -1.1731
18061TIP3   OH275673   1.186   5.804  14.283  0.5030  0.2256 -0.2600
18061TIP3    H175674   1.234   5.874  14.327  0.8509  0.2201 -0.6175
18061TIP3    H275675   1.196   5.728  14.340 -0.6051  0.6798  0.5581
18062TIP3   OH275676   1.578   2.568  13.349 -0.4955  0.3900  0.2745
18062TIP3    H175677   1.667   2.534  13.357  1.1770  4.1975 -0.2272
18062TIP3    H275678   1.553   2.552  13.258  0.1893  0.4181  0.0815
18063TIP3   OH275679   6.183   6.634  14.954  0.5163 -0.4308 -0.6478
18063TIP3    H175680   6.227   6.714  14.925  0.3870 -0.2215 -0.2803
18063TIP3    H275681   6.091   6.660  14.965  0.9626  0.2451  2.4745
18064TIP3   OH275682   0.896   1.155  12.743  0.4994  0.7128 -0.4719
18064TIP3    H175683   0.891   1.151  12.648  1.0201  0.8869 -0.5126
18064TIP3    H275684   0.966   1.219  12.760  1.0144  0.0378  0.0095
18065TIP3   OH275685   3.254   4.833   3.753 -0.3238 -0.4741  0.0913
18065TIP3    H175686   3.159   4.832   3.752 -0.3400 -1.8342  0.9136
18065TIP3    H275687   3.280   4.776   3.680 -0.1501 -0.3827  0.0803
18066TIP3   OH275688   2.037   1.236   0.239  0.0276 -0.2279 -0.1266
18066TIP3    H175689   1.970   1.224   0.171 -0.2438 -1.6228  0.3520
18066TIP3    H275690   2.119   1.246   0.190 -0.4261  0.9168 -0.6987
18067TIP3   OH275691   0.307   5.631   2.325  0.5677  0.5051 -0.8122
18067TIP3    H175692   0.396   5.623   2.361 -0.5626 -0.1886  2.0567
18067TIP3    H275693   0.321   5.644   2.231  3.6822 -0.0848 -0.5455
18068TIP3   OH275694   4.773   3.897   4.384 -0.2231 -0.4231  0.2905
18068TIP3    H175695   4.855   3.848   4.391  0.9044  1.3862  0.1936
18068TIP3    H275696   4.768   3.947   4.465 -0.2798  0.8753 -0.4902
18069TIP3   OH275697   5.033   1.409  13.114  0.3960  0.0890 -0.6143
18069TIP3    H175698   5.014   1.497  13.083 -2.0157 -0.4504 -0.8688
18069TIP3    H275699   5.114   1.385  13.068  0.7760  1.9171 -0.9900
18070TIP3   OH275700   5.608   4.920  11.498 -0.2847  0.5256  0.3731
18070TIP3    H175701   5.537   4.862  11.468 -0.2437  0.9104 -0.5026
18070TIP3    H275702   5.572   4.964  11.575 -1.4854  1.6303 -0.7700
18071TIP3   OH275703   3.048   4.129  16.943 -0.1490 -0.0703 -0.5200
18071TIP3    H175704   3.123   4.188  16.939  0.9033 -1.2866  0.4473
18071TIP3    H275705   3.077   4.056  16.998 -1.8971 -0.7890 -0.4662
18072TIP3   OH275706   2.451   5.608  10.504  0.0961  0.3107  0.1818
18072TIP3    H175707   2.469   5.662  10.427  1.4604  1.6530  1.3845
18072TIP3    H275708   2.537   5.595  10.544 -0.3035 -2.0726  0.4231
18073TIP3   OH275709   5.256   1.754  14.967  0.0235  0.1250  0.0714
18073TIP3    H175710   5.218   1.792  15.046 -2.2163 -0.1877 -0.7684
18073TIP3    H275711   5.345   1.789  14.963 -0.2719  1.2174  1.9829
18074TIP3   OH275712   5.612   4.792  13.660 -0.0044  0.2135 -0.2977
18074TIP3    H175713   5.533   4.739  13.653 -0.3962  0.6265  0.7325
18074TIP3    H275714   5.683   4.729  13.672 -0.1778 -0.1573 -1.1619
18075TIP3   OH275715   3.090   4.064   4.645 -0.1359 -0.8849  0.4654
18075TIP3    H175716   3.002   4.067   4.682 -0.3395  2.1513 -0.0402
18075TIP3    H275717   3.090   3.985   4.590 -2.6761 -0.7311  0.1367
18076TIP3   OH275718   3.241   5.928   0.004 -0.2008  0.5286 -0.6106
18076TIP3    H175719   3.332   5.902   0.016 -0.5979 -0.8883 -0.4297
18076TIP3    H275720   3.202   5.854  -0.043 -1.8842 -0.1708  1.7077
18077TIP3   OH275721   0.870   6.650   2.242  0.4717  0.3800 -0.3961
18077TIP3    H175722   0.819   6.636   2.162  0.1482 -0.3417 -0.0710
18077TIP3    H275723   0.938   6.712   2.216 -0.2250  0.9189 -0.9763
18078TIP3   OH275724   0.212   3.296  15.815  0.8274 -0.3925  0.5991
18078TIP3    H175725   0.242   3.302  15.724 -0.7621 -1.6692 -0.0712
18078TIP3    H275726   0.120   3.269  15.807  0.4317  0.2386  2.5830
18079TIP3   OH275727   1.590   3.279   6.408  0.3408  0.6221  0.0602
18079TIP3    H175728   1.507   3.312   6.443  0.0068  1.1752 -1.1815
18079TIP3    H275729   1.623   3.350   6.352  1.6784  0.4262  0.5620
18080TIP3   OH275730   3.534   0.943   3.858  0.2149  0.5020 -0.5580
18080TIP3    H175731   3.480   0.931   3.780 -1.4896 -0.3096  0.6782
18080TIP3    H275732   3.617   0.977   3.825 -0.8780  1.3604 -2.5897
18081TIP3   OH275733   6.715   4.539  15.389 -0.8022 -0.2483  0.3999
18081TIP3    H175734   6.763   4.477  15.335 -0.8358 -0.8666  1.0674
18081TIP3    H275735   6.722   4.622  15.342 -1.9297 -1.0260 -1.2072
18082TIP3   OH275736   4.212   1.990  11.777 -0.0926 -0.0162  0.1430
18082TIP3    H175737   4.178   2.056  11.717  1.1799  1.1009  0.5963
18082TIP3    H275738   4.281   1.945  11.728 -0.4572 -0.5207  0.0840
18083TIP3   OH275739   1.836   4.665   2.822  0.0599 -0.2059  0.2676
18083TIP3    H175740   1.845   4.758   2.841 -0.8486  0.1830 -1.0248
18083TIP3    H275741   1.920   4.641   2.783  1.0706 -0.4679  2.4921
18084TIP3   OH275742   4.758   5.907   5.526 -0.7465 -0.3503  0.0173
18084TIP3    H175743   4.733   5.986   5.574  0.7228 -0.4018  0.9378
18084TIP3    H275744   4.696   5.840   5.555 -1.5534  0.2813 -0.2247
18085TIP3   OH275745   4.698   6.541   2.547  0.0955  0.1087 -0.3764
18085TIP3    H175746   4.724   6.540   2.639 -1.0030 -0.4113 -0.0434
18085TIP3    H275747   4.746   6.469   2.508 -0.6266 -0.6991  0.1716
18086TIP3   OH275748   0.886   2.147  15.057 -0.0570 -0.0520  0.6115
18086TIP3    H175749   0.943   2.080  15.018 -0.5703 -2.7306  3.9691
18086TIP3    H275750   0.941   2.225  15.062  0.4798  0.0974 -3.7480
18087TIP3   OH275751   2.256   1.117   2.410  0.3100  0.3301  0.1402
18087TIP3    H175752   2.333   1.154   2.454 -0.4694  3.0920 -0.6303
18087TIP3    H275753   2.182   1.160   2.452 -0.7893 -1.2359 -0.1078
18088TIP3   OH275754   2.483   1.711  13.104  0.8485 -0.3798  0.1622
18088TIP3    H175755   2.487   1.764  13.184 -0.4720 -1.2439  0.8443
18088TIP3    H275756   2.575   1.694  13.082  1.2586  1.0478  0.6849
18089TIP3   OH275757   0.022   4.672   3.986 -0.1861 -0.4557 -0.0777
18089TIP3    H175758   0.036   4.761   4.019 -3.8646 -0.3763  1.7445
18089TIP3    H275759   0.084   4.618   4.035  0.6663  0.8270  0.3035
18090TIP3   OH275760   4.010   0.475  14.228 -0.1463  0.0160  0.0832
18090TIP3    H175761   4.026   0.385  14.256 -0.9191 -0.0285  0.4125
18090TIP3    H275762   4.065   0.529  14.285  0.8906 -0.2786 -0.6060
18091TIP3   OH275763   6.695   6.802   2.017 -0.1372 -0.3282 -0.3378
18091TIP3    H175764   6.712   6.782   2.109 -0.9394 -0.4422 -0.2044
18091TIP3    H275765   6.634   6.734   1.989  0.9136 -0.9383 -1.2602
18092TIP3   OH275766   0.625   6.135  15.269 -0.2146 -0.0784 -0.1204
18092TIP3    H175767   0.692   6.105  15.207  1.0596  1.4388  0.4401
18092TIP3    H275768   0.544   6.134  15.219  0.3019 -1.4854 -0.9889
18093TIP3   OH275769   6.010   2.553   5.654  0.3106  0.4106 -0.0055
18093TIP3    H175770   5.934   2.539   5.597  0.1568 -0.4146  0.3904
18093TIP3    H275771   5.999   2.642   5.686 -0.3730  0.3801 -0.1308
18094TIP3   OH275772   0.136   1.247  14.309  0.6142  0.1714 -0.2780
18094TIP3    H175773   0.118   1.264  14.216 -0.4326 -0.1475 -0.1473
18094TIP3    H275774   0.115   1.155  14.322 -1.5101  0.7289  0.7516
18095TIP3   OH275775   2.081   6.367   5.985 -0.1654  0.2914 -0.4509
18095TIP3    H175776   2.123   6.385   5.901  1.5489  1.6641  0.6098
18095TIP3    H275777   2.148   6.320   6.035 -1.2331 -0.6962  0.1004
18096TIP3   OH275778   6.701   2.080   3.112 -0.2790 -0.4286  0.0268
18096TIP3    H175779   6.655   2.100   3.194  0.2400 -0.1794  0.2639
18096TIP3    H275780   6.650   2.125   3.045 -0.3161 -0.0558  0.2997
18097TIP3   OH275781   4.717   5.249  11.992  0.1347 -0.1668 -0.2555
18097TIP3    H175782   4.781   5.271  11.924 -0.7257  2.2346 -0.3812
18097TIP3    H275783   4.635   5.286  11.960 -1.1256 -2.2709  0.3962
18098TIP3   OH275784   5.600   5.832   4.606 -0.3759 -0.2073  0.0669
18098TIP3    H175785   5.603   5.741   4.575 -2.1248 -0.7136  1.2024
18098TIP3    H275786   5.678   5.842   4.660  1.1219 -0.2346 -1.9813
18099TIP3   OH275787   3.656   5.739  13.762  0.3898 -0.3904 -0.8711
18099TIP3    H175788   3.593   5.777  13.701  0.3305  0.5495 -0.2486
18099TIP3    H275789   3.649   5.793  13.841  1.1945 -0.9475 -0.3994
18100TIP3   OH275790   2.836   0.837   3.659  0.0058 -0.0234  0.1853
18100TIP3    H175791   2.834   0.887   3.578  2.9482 -1.0027 -0.6087
18100TIP3    H275792   2.846   0.746   3.631  1.6136 -0.3314  1.6097
18101TIP3   OH275793   2.725   5.776  13.662  0.7214  0.4591  0.1060
18101TIP3    H175794   2.802   5.737  13.703  0.0814  0.9722  1.8712
18101TIP3    H275795   2.741   5.871  13.667  0.1286  0.5571  0.1772
18102TIP3   OH275796   3.332   6.505   4.684  0.0100 -0.5025 -0.1872
18102TIP3    H175797   3.371   6.520   4.770  4.4264 -3.0763 -1.4632
18102TIP3    H275798   3.367   6.575   4.629 -0.3700 -0.5840 -0.5392
18103TIP3   OH275799   2.684   0.714   5.095 -0.0683 -0.2691 -0.3092
18103TIP3    H175800   2.601   0.668   5.107 -0.0479 -1.1520 -2.9056
18103TIP3    H275801   2.721   0.677   5.015  0.9414  2.8216 -1.4374
18104TIP3   OH275802   4.012   3.758  15.362 -0.3556  0.1080  0.7417
18104TIP3    H175803   3.969   3.843  15.368 -1.7203 -0.5820  1.2352
18104TIP3    H275804   4.013   3.725  15.452  3.7138  1.2122  1.2830
18105TIP3   OH275805   5.833   6.634  10.727  0.2021  0.1601 -0.4290
18105TIP3    H175806   5.783   6.664  10.803 -1.0713  1.9699 -1.8865
18105TIP3    H275807   5.773   6.579  10.678  0.1131  1.1013 -1.4123
18106TIP3   OH275808   5.083   3.598   3.387 -0.1094  0.1169  0.3873
18106TIP3    H175809   4.999   3.633   3.418 -0.8130 -0.6314 -0.6126
18106TIP3    H275810   5.069   3.580   3.294  1.1515 -0.0736  0.2098
18107TIP3   OH275811   4.779   4.954  16.529  0.1225 -0.4838 -0.3382
18107TIP3    H175812   4.705   5.001  16.567 -0.4380 -1.0947 -0.6519
18107TIP3    H275813   4.798   4.884  16.592  1.2761  0.4344  0.3740
18108TIP3   OH275814   3.215   1.132   0.930  0.7541 -0.4769 -0.6449
18108TIP3    H175815   3.208   1.044   0.894 -1.1433 -1.2037  1.2878
18108TIP3    H275816   3.206   1.121   1.024  0.3516  1.7817 -0.3511
18109TIP3   OH275817   4.515   4.621  17.010  0.0822  0.0827 -0.4096
18109TIP3    H175818   4.605   4.590  17.019  0.3875  0.9731 -0.2675
18109TIP3    H275819   4.496   4.611  16.916 -0.3477 -1.8527 -0.1568
18110TIP3   OH275820   1.727   3.760   4.294  0.4929 -0.1667 -0.1919
18110TIP3    H175821   1.757   3.822   4.360  0.1117  1.3551 -1.3934
18110TIP3    H275822   1.805   3.743   4.241  0.8866 -1.6579  0.8089
18111TIP3   OH275823   2.785   1.739  13.649  0.1861 -0.3767 -0.4673
18111TIP3    H175824   2.698   1.777  13.642 -0.0203 -0.5473  0.9808
18111TIP3    H275825   2.805   1.740  13.742  0.9036 -2.1948 -0.5592
18112TIP3   OH275826   0.687   4.474  11.755  0.5756  0.1199  0.6646
18112TIP3    H175827   0.715   4.564  11.739  0.2167 -0.2468 -2.6776
18112TIP3    H275828   0.764   4.432  11.795  1.4510  1.4248  0.4239
18113TIP3   OH275829   1.807   6.146  11.764  0.2429  0.7870 -0.1452
18113TIP3    H175830   1.746   6.218  11.746  0.9652  1.7572  1.0542
18113TIP3    H275831   1.819   6.148  11.859 -0.6674 -1.7626  0.0895
18114TIP3   OH275832   1.075   0.760  10.645 -0.0764 -0.4965  0.1899
18114TIP3    H175833   1.083   0.682  10.591  0.2254 -0.6362  0.4369
18114TIP3    H275834   1.018   0.734  10.717 -1.0044 -0.1280 -0.3969
18115TIP3   OH275835   0.643   3.291  12.449 -0.0119 -0.7893  0.1051
18115TIP3    H175836   0.681   3.247  12.373 -1.0526 -1.4113 -0.0706
18115TIP3    H275837   0.587   3.359  12.411  0.5929 -0.1422  0.3543
18116TIP3   OH275838   2.673   1.441  15.749  0.1811 -0.1599 -0.1317
18116TIP3    H175839   2.659   1.528  15.785  0.5205 -0.4059  0.6222
18116TIP3    H275840   2.682   1.455  15.655 -1.2782  0.4388 -0.2068
18117TIP3   OH275841   5.470   2.442  15.372 -0.1273  0.0688  0.5061
18117TIP3    H175842   5.532   2.499  15.419 -0.3467  0.0158  0.8660
18117TIP3    H275843   5.523   2.368  15.343 -0.4651 -1.3202  3.0974
18118TIP3   OH275844   1.964   2.822   4.725  0.3312 -0.2571  0.1692
18118TIP3    H175845   2.048   2.788   4.757  0.0953 -1.0699 -0.0532
18118TIP3    H275846   1.970   2.814   4.630 -0.4579 -1.4804  0.1986
18119TIP3   OH275847   6.368   3.185  16.459 -0.6176  0.0922 -0.6772
18119TIP3    H175848   6.406   3.098  16.472 -1.3336  0.0998  1.9455
18119TIP3    H275849   6.317   3.201  16.538 -3.9018  1.2338 -2.8072
18120TIP3   OH275850   4.916   3.987   1.550  0.3787 -0.1765 -0.9902
18120TIP3    H175851   4.836   4.038   1.559  0.0242 -0.8475 -0.2131
18120TIP3    H275852   4.893   3.916   1.490  0.5277 -0.0898 -1.1487
18121TIP3   OH275853   1.929   1.358   5.574  0.1249  0.2013 -0.4345
18121TIP3    H175854   2.013   1.315   5.563 -0.9736 -2.1662 -0.1208
18121TIP3    H275855   1.864   1.288   5.566 -1.8720  2.0143 -1.1666
18122TIP3   OH275856   5.925   1.395  14.796 -0.2011  0.6862 -0.3135
18122TIP3    H175857   5.996   1.427  14.851  0.5070 -1.2003 -0.0624
18122TIP3    H275858   5.863   1.355  14.857 -0.5193  0.5772 -0.6990
18123TIP3   OH275859   4.615   0.615   2.974  0.9892 -0.1212 -0.8044
18123TIP3    H175860   4.658   0.591   3.056  0.2302 -0.8035 -0.5918
18123TIP3    H275861   4.583   0.704   2.989  0.4086 -0.4259 -0.1596
18124TIP3   OH275862   4.337   6.139   1.952  0.2319  0.4001  0.5828
18124TIP3    H175863   4.337   6.084   1.873  0.1480  0.2585  0.6821
18124TIP3    H275864   4.247   6.168   1.961 -0.0593 -0.7154  1.4177
18125TIP3   OH275865   5.972   0.294  12.322 -0.2106  0.2669  0.4005
18125TIP3    H175866   6.010   0.250  12.398 -0.5075  1.0616  1.0291
18125TIP3    H275867   5.971   0.228  12.253  1.1852 -0.1217  0.7231
18126TIP3   OH275868   2.993   2.740  12.208  0.3782  0.3352  0.5637
18126TIP3    H175869   2.951   2.698  12.133  1.5892  0.2183 -0.0853
18126TIP3    H275870   2.936   2.721  12.282  0.0379 -1.0410 -0.0197
18127TIP3   OH275871   5.704   1.505   4.569 -0.4678  0.0322 -0.0679
18127TIP3    H175872   5.782   1.536   4.523 -0.1540  0.5456  0.7906
18127TIP3    H275873   5.635   1.508   4.503  0.1338  0.0211 -0.7093
18128TIP3   OH275874   3.555   6.519   2.786 -0.2842 -0.2675 -0.2997
18128TIP3    H175875   3.566   6.426   2.765 -0.9649 -0.4942  0.3324
18128TIP3    H275876   3.604   6.564   2.717 -0.7338 -1.0665 -1.1745
18129TIP3   OH275877   4.526   6.655  15.770 -0.0215 -0.2139 -0.1811
18129TIP3    H175878   4.466   6.581  15.770 -0.5693  0.2151  0.1155
18129TIP3    H275879   4.607   6.621  15.807 -0.8650 -0.2316  1.8240
18130TIP3   OH275880   4.134   2.172   1.022  0.0738  0.0617  0.4990
18130TIP3    H175881   4.046   2.209   1.031  0.2104  0.7820 -0.8443
18130TIP3    H275882   4.184   2.240   0.977  1.2288 -0.4888  0.9025
18131TIP3   OH275883   5.734   2.566  15.733  0.0379 -0.4163 -0.1374
18131TIP3    H175884   5.687   2.483  15.738 -0.2153 -0.2113  1.2018
18131TIP3    H275885   5.751   2.578  15.639 -1.2703 -1.2194 -0.4994
18132TIP3   OH275886   3.272   2.047   4.768 -0.1231 -0.5032  0.3641
18132TIP3    H175887   3.282   2.028   4.861 -0.2569  1.7274  0.8808
18132TIP3    H275888   3.236   2.136   4.765 -0.9199 -0.8381 -1.8101
18133TIP3   OH275889   6.175   1.944  13.207 -0.3950 -0.7753 -0.4082
18133TIP3    H175890   6.145   1.853  13.209 -0.9782 -0.5828  0.0651
18133TIP3    H275891   6.106   1.993  13.253 -0.5835  0.0554 -1.5336
18134TIP3   OH275892   3.215   0.724  12.227  0.1550 -0.1266 -0.1170
18134TIP3    H175893   3.220   0.748  12.135  0.4763 -0.4982 -0.2015
18134TIP3    H275894   3.255   0.637  12.231  0.6700  0.1266  0.4554
18135TIP3   OH275895   0.495   4.766  15.429 -0.2416 -0.4481  0.2318
18135TIP3    H175896   0.517   4.673  15.424 -0.8525 -0.6125  0.5506
18135TIP3    H275897   0.568   4.805  15.478 -0.8169 -1.0592  1.6436
18136TIP3   OH275898   4.713   4.476   3.582  0.1141  0.4914  1.1919
18136TIP3    H175899   4.807   4.487   3.567 -0.4572  2.8652 -1.4271
18136TIP3    H275900   4.676   4.461   3.495 -1.9262 -0.9535  2.2166
18137TIP3   OH275901   0.901   2.339  13.815  0.3746 -0.1513  0.2885
18137TIP3    H175902   0.853   2.358  13.896  0.4888 -0.5137  0.4440
18137TIP3    H275903   0.862   2.398  13.750  0.2492  0.1086  0.5936
18138TIP3   OH275904   0.865   3.391  15.510  0.0487 -0.0307  0.0504
18138TIP3    H175905   0.906   3.312  15.547  0.0889  0.3719  0.8935
18138TIP3    H275906   0.862   3.452  15.583 -0.8096  0.4346 -0.3651
18139TIP3   OH275907   4.506   0.902   4.818  0.0781  0.0149 -0.0481
18139TIP3    H175908   4.539   0.838   4.881 -0.1052  0.9800  1.0840
18139TIP3    H275909   4.577   0.965   4.809 -0.1463  0.2387 -0.2797
18140TIP3   OH275910   6.035   5.693  12.278  0.2362 -0.2586  0.2731
18140TIP3    H175911   6.037   5.782  12.312  1.7574 -0.2215  0.1307
18140TIP3    H275912   6.119   5.682  12.233  0.3697 -1.9792  0.8670
18141TIP3   OH275913   0.005   4.880   4.631 -0.1718 -0.6129 -0.2820
18141TIP3    H175914  -0.090   4.882   4.617 -0.0319 -0.6932 -1.2900
18141TIP3    H275915   0.042   4.878   4.543  0.8007  0.3856  0.0860
18142TIP3   OH275916   5.742   2.407  17.164 -0.0074  0.4392  0.2997
18142TIP3    H175917   5.789   2.334  17.124  2.0375  1.7703  0.1368
18142TIP3    H275918   5.750   2.478  17.100  0.8262  1.7417  1.7996
18143TIP3   OH275919   0.499   3.033   5.193  0.4649 -1.1873 -0.5704
18143TIP3    H175920   0.540   3.039   5.279 -0.5826 -1.3857 -0.0438
18143TIP3    H275921   0.491   3.123   5.162 -1.9088 -0.8140  0.8922
18144TIP3   OH275922   6.197   2.328   0.421 -0.2176  0.6926  0.0143
18144TIP3    H175923   6.194   2.323   0.325  1.9970 -1.2612 -0.0467
18144TIP3    H275924   6.109   2.302   0.449 -0.0885 -1.6755 -1.4908
18145TIP3   OH275925   3.167   2.261   4.133 -0.4870  0.2254 -0.2152
18145TIP3    H175926   3.248   2.244   4.182 -0.2759 -0.3660 -0.7566
18145TIP3    H275927   3.115   2.181   4.145 -0.3933  0.0313 -1.0187
18146TIP3   OH275928   4.127   2.048   4.507  1.1680 -0.3742 -0.7284
18146TIP3    H175929   4.083   2.048   4.422  0.4628  0.2325 -0.3795
18146TIP3    H275930   4.102   1.965   4.547 -1.1902  0.6758  0.1901
18147TIP3   OH275931   1.721   4.098  15.808 -0.4885  0.3951  0.4834
18147TIP3    H175932   1.809   4.137  15.800  0.1241 -0.9556  0.4147
18147TIP3    H275933   1.686   4.137  15.888  1.0672 -0.6702  1.7630
18148TIP3   OH275934   4.667   1.766   2.977  0.4346  0.0415  0.0642
18148TIP3    H175935   4.741   1.809   3.021 -1.0781  1.2029  1.5614
18148TIP3    H275936   4.604   1.836   2.963 -0.1479 -0.8001 -1.8285
18149TIP3   OH275937   1.619   6.791   1.314 -0.1997 -0.4404  0.2840
18149TIP3    H175938   1.710   6.776   1.339  0.0494 -1.3524 -1.0429
18149TIP3    H275939   1.621   6.871   1.262 -0.0251 -0.8795 -0.3898
18150TIP3   OH275940   1.978   5.775   4.544 -0.5225  0.1951  0.1762
18150TIP3    H175941   2.035   5.851   4.549  0.5101 -0.6104  1.0842
18150TIP3    H275942   2.011   5.715   4.611 -2.1418 -0.5051  0.3983
18151TIP3   OH275943   3.647   0.915  16.396 -0.2237  0.0772  0.1388
18151TIP3    H175944   3.682   0.926  16.308  0.1711 -0.7791  0.1793
18151TIP3    H275945   3.625   1.004  16.425  2.8472  0.8292  0.5046
18152TIP3   OH275946   0.322   1.396   3.191  0.1110 -0.1208  0.5665
18152TIP3    H175947   0.361   1.457   3.253 -0.7344 -0.7187  1.7330
18152TIP3    H275948   0.367   1.413   3.108 -0.5342  2.5070  0.6821
18153TIP3   OH275949   3.851   5.251  11.617  0.5209  0.0403  0.0553
18153TIP3    H175950   3.856   5.258  11.522 -0.1569  0.3129  0.0295
18153TIP3    H275951   3.869   5.159  11.635 -0.9201 -0.3871 -0.4819
18154TIP3   OH275952   6.010   1.776  15.634  0.0242  0.2991  0.2580
18154TIP3    H175953   6.060   1.852  15.665 -1.9883  1.4456  0.8565
18154TIP3    H275954   5.955   1.752  15.708 -3.1075  1.5530 -1.4669
18155TIP3   OH275955   0.897   4.439   3.031 -0.1775  0.2229  0.4138
18155TIP3    H175956   0.926   4.357   3.071 -0.6498 -0.3601 -0.3999
18155TIP3    H275957   0.967   4.501   3.049 -0.7909  0.2886  3.0117
18156TIP3   OH275958   1.982   5.125  15.658  0.1922 -0.8268 -0.1447
18156TIP3    H175959   1.999   5.032  15.670  1.4104 -0.9322 -2.2809
18156TIP3    H275960   2.057   5.168  15.699 -0.6725 -0.6974  1.3980
18157TIP3   OH275961   2.548   4.333   4.296  0.4842 -0.2101 -0.5032
18157TIP3    H175962   2.498   4.351   4.216  0.5740 -2.3890 -1.0927
18157TIP3    H275963   2.632   4.376   4.281 -0.4708  1.8726 -0.3020
18158TIP3   OH275964   5.202   5.597   1.923  0.3482  0.2182 -0.4991
18158TIP3    H175965   5.282   5.648   1.928  0.6304 -0.3211  1.5619
18158TIP3    H275966   5.138   5.647   1.973  0.8119 -1.5864  2.1650
18159TIP3   OH275967   5.062   5.692   1.469 -0.7247 -0.3750 -0.1946
18159TIP3    H175968   4.986   5.721   1.519  0.6966  0.2952  1.6985
18159TIP3    H275969   5.100   5.622   1.521  0.7047  0.2212 -0.3878
18160TIP3   OH275970   2.230   5.861   0.503  0.2003 -0.3929  0.2631
18160TIP3    H175971   2.218   5.827   0.592  1.6088 -0.7022  0.3707
18160TIP3    H275972   2.318   5.831   0.478 -0.2092 -0.3944 -1.2797
18161TIP3   OH275973   6.090   0.391   4.672 -0.6400 -0.1278 -0.0413
18161TIP3    H175974   6.154   0.346   4.617 -1.0308 -0.3023 -0.3585
18161TIP3    H275975   6.121   0.482   4.675 -0.1532 -0.2989  0.1499
18162TIP3   OH275976   0.507   4.339  12.527  0.3997 -0.4130  0.4337
18162TIP3    H175977   0.563   4.397  12.579 -0.7141 -0.6857  1.9968
18162TIP3    H275978   0.510   4.255  12.572 -1.3624 -0.3914  0.6593
18163TIP3   OH275979   6.684   4.347  15.841  0.3221  0.7705  0.5408
18163TIP3    H175980   6.740   4.424  15.855  0.0304  1.3791 -1.2901
18163TIP3    H275981   6.595   4.383  15.836 -0.2124 -0.0933  2.6566
18164TIP3   OH275982   4.983   4.744   5.486 -0.6286  0.0091  0.0569
18164TIP3    H175983   5.028   4.675   5.535  1.7401  1.4786  0.0809
18164TIP3    H275984   4.964   4.703   5.401  2.4425 -0.2260 -0.6392
18165TIP3   OH275985   0.322   1.726   2.563 -0.1775  0.2800  0.4836
18165TIP3    H175986   0.377   1.676   2.622 -1.4254 -1.6935  0.0712
18165TIP3    H275987   0.232   1.707   2.591 -0.7547  2.8974  0.7426
18166TIP3   OH275988   6.679   2.469   3.629 -0.0352  0.5856 -0.3938
18166TIP3    H175989   6.624   2.547   3.630 -0.0617  0.5986 -1.4894
18166TIP3    H275990   6.758   2.494   3.675 -0.0570  1.2575 -0.7154
18167TIP3   OH275991   0.038   5.901  10.888 -0.0884  0.0303 -0.1906
18167TIP3    H175992  -0.018   5.852  10.828 -2.6245  1.6355  0.6828
18167TIP3    H275993   0.099   5.948  10.832 -0.0803 -1.2007 -1.2435
18168TIP3   OH275994   4.132   3.385  12.132  0.2107  0.0458  0.3451
18168TIP3    H175995   4.188   3.403  12.056  0.1839 -2.3415 -0.3139
18168TIP3    H275996   4.187   3.332  12.190 -0.2752  0.5716  1.3216
18169TIP3   OH275997   0.089   3.742  10.697  0.4624 -0.2354 -0.4574
18169TIP3    H175998   0.032   3.742  10.774  0.3462  1.2194 -0.5228
18169TIP3    H275999   0.145   3.819  10.708 -0.1324  0.5079 -2.2391
18170TIP3   OH276000   4.054   3.725  12.585  0.4291 -0.4719 -0.7575
18170TIP3    H176001   3.967   3.733  12.624  1.7783  0.6965  2.3677
18170TIP3    H276002   4.066   3.807  12.536 -0.1647 -0.5755 -1.0817
18171TIP3   OH276003   1.354   6.101   5.566 -0.4498 -0.3128 -0.0260
18171TIP3    H176004   1.334   6.194   5.552  0.4923 -0.2269 -0.8718
18171TIP3    H276005   1.297   6.075   5.638 -2.7119  0.2333 -1.5092
18172TIP3   OH276006   4.326   0.677   1.577 -0.3481  0.4016  0.2635
18172TIP3    H176007   4.413   0.667   1.538 -0.6514 -0.3649 -0.2455
18172TIP3    H276008   4.313   0.596   1.628 -1.5218 -0.3835 -1.2096
18173TIP3   OH276009   0.784   4.596   0.949  0.0523 -0.3368  0.3981
18173TIP3    H176010   0.875   4.624   0.939  0.5165 -1.9599 -0.3276
18173TIP3    H276011   0.765   4.549   0.868 -1.1989 -0.6471  0.8536
18174TIP3   OH276012   0.906   3.711   1.735 -0.0296 -0.5647  0.1749
18174TIP3    H176013   0.965   3.786   1.745 -1.5333  0.7033 -0.0706
18174TIP3    H276014   0.828   3.747   1.694 -0.4579 -2.4690 -0.7883
18175TIP3   OH276015   5.525   4.992  14.401 -0.3306 -0.5990 -0.4559
18175TIP3    H176016   5.614   5.013  14.429  0.4111 -0.6418 -2.6298
18175TIP3    H276017   5.525   4.897  14.388  0.3808 -0.2787 -3.6250
18176TIP3   OH276018   0.585   3.503   4.426  0.1507 -0.4277 -0.2335
18176TIP3    H176019   0.617   3.457   4.348  1.1438 -0.3896  0.1439
18176TIP3    H276020   0.512   3.448   4.457  0.2794 -0.8832 -0.7210
18177TIP3   OH276021   3.023   0.315  16.748  0.1281  0.0538  0.1002
18177TIP3    H176022   2.943   0.285  16.791 -0.6969 -0.9379 -1.9791
18177TIP3    H276023   2.994   0.340  16.660  2.3737 -2.3933 -1.4834
18178TIP3   OH276024   6.137   3.294  14.296 -0.3689 -0.3413  0.3877
18178TIP3    H176025   6.064   3.355  14.300 -0.6440 -0.5713 -0.7456
18178TIP3    H276026   6.116   3.237  14.222  1.3254  0.0796 -0.4634
18179TIP3   OH276027   2.755   2.591   2.154  0.2077  0.0384  0.0846
18179TIP3    H176028   2.734   2.514   2.207 -0.4896 -1.2835 -2.0105
18179TIP3    H276029   2.745   2.665   2.214  0.8507 -1.4615  2.1536
18180TIP3   OH276030   5.405   0.298   1.676 -0.0607 -0.4687 -0.5987
18180TIP3    H176031   5.342   0.226   1.686  1.0880 -1.4123  0.1550
18180TIP3    H276032   5.351   0.377   1.676 -1.2246 -1.2060  0.5643
18181TIP3   OH276033   1.002   4.678   1.325  0.1598 -0.0940  0.4398
18181TIP3    H176034   0.982   4.597   1.278 -2.0532  1.4869 -1.5709
18181TIP3    H276035   1.097   4.688   1.316  0.1215 -1.0515 -1.8179
18182TIP3   OH276036   3.801   0.450  16.349  0.4635 -0.8024 -0.0971
18182TIP3    H176037   3.830   0.399  16.424 -2.6351 -2.0094  0.4321
18182TIP3    H276038   3.846   0.534  16.359  1.0527 -1.3211  2.4498
18183TIP3   OH276039   4.940   5.375  11.272 -0.4128 -0.3045 -0.1218
18183TIP3    H176040   4.918   5.304  11.211 -1.5942  0.2002 -0.3061
18183TIP3    H276041   4.974   5.445  11.217 -0.7010 -0.1544 -0.1094
18184TIP3   OH276042   3.138   2.122   6.143  0.2889  0.0450 -0.2281
18184TIP3    H176043   3.162   2.031   6.127 -0.1610 -0.0332 -0.4686
18184TIP3    H276044   3.051   2.118   6.182 -0.2663  0.4307 -1.3948
18185TIP3   OH276045   1.981   6.116   4.346  0.4226 -0.2949  0.4653
18185TIP3    H176046   1.982   6.164   4.429 -0.5939 -1.7477  1.3597
18185TIP3    H276047   1.889   6.102   4.327  0.6124  0.4193 -1.2026
18186TIP3   OH276048   2.669   6.278   2.885  0.2040 -0.2339  0.3800
18186TIP3    H176049   2.673   6.320   2.798 -1.6126 -2.3503 -0.8138
18186TIP3    H276050   2.718   6.197   2.874  0.0752 -0.4546  1.3910
18187TIP3   OH276051   6.297   2.569   5.457  0.1261  0.0873 -0.7506
18187TIP3    H176052   6.312   2.532   5.369 -0.3437  1.0077 -1.2298
18187TIP3    H276053   6.212   2.610   5.452 -0.5984 -1.1410  0.6167
18188TIP3   OH276054   3.702   2.300  13.845 -0.6182 -0.1181 -0.1855
18188TIP3    H176055   3.698   2.330  13.754  0.1912  0.1922 -0.1251
18188TIP3    H276056   3.749   2.369  13.891 -1.9547  0.2376  0.6988
18189TIP3   OH276057   3.520   1.865  15.093 -0.0625 -0.0128  0.0484
18189TIP3    H176058   3.450   1.823  15.142 -0.1775 -1.0897 -0.9824
18189TIP3    H276059   3.520   1.821  15.008  2.7475 -1.0082  0.4594
18190TIP3   OH276060   0.408   3.719   2.352  0.7994  0.3808  0.7764
18190TIP3    H176061   0.318   3.698   2.327  0.9092 -0.3378  0.9435
18190TIP3    H276062   0.410   3.706   2.447  0.5753  2.3639  1.0927
18191TIP3   OH276063   5.105   1.383  13.512 -0.6711  0.5023  0.1116
18191TIP3    H176064   5.039   1.381  13.442 -0.6543  1.0871  0.0740
18191TIP3    H276065   5.082   1.310  13.569 -0.8284  0.1621 -0.3715
18192TIP3   OH276066   3.466   3.803   3.981  0.0272 -0.8249  0.1754
18192TIP3    H176067   3.394   3.821   4.041 -0.1491 -2.1664  0.4098
18192TIP3    H276068   3.438   3.725   3.933  1.8043 -2.1380  1.1391
18193TIP3   OH276069   2.626   6.298  16.542 -0.1048 -0.1044 -0.2391
18193TIP3    H176070   2.553   6.282  16.481 -0.0442  0.9606 -0.6162
18193TIP3    H276071   2.591   6.360  16.605  0.5124  0.5463 -0.5201
18194TIP3   OH276072   3.427   4.811  16.815  0.1518 -0.0457  0.0642
18194TIP3    H176073   3.351   4.816  16.872  1.3692  2.1857  1.6637
18194TIP3    H276074   3.498   4.781  16.871  1.1861  1.3528 -0.4124
18195TIP3   OH276075   3.208   5.670  12.627  0.1814  0.3334  0.2964
18195TIP3    H176076   3.267   5.744  12.644 -0.4471  0.7817  0.5680
18195TIP3    H276077   3.122   5.710  12.615 -0.1686 -0.3525  0.4546
18196TIP3   OH276078   5.628   3.674  14.541 -0.5001  0.0659  0.3497
18196TIP3    H176079   5.571   3.748  14.517  0.8304  0.6126 -1.3638
18196TIP3    H276080   5.717   3.708  14.532  0.1456 -1.5894  0.0068
18197TIP3   OH276081   4.018   5.594   4.477 -0.6783  0.2452 -0.4690
18197TIP3    H176082   4.063   5.598   4.393  2.8679 -0.9230  1.2096
18197TIP3    H276083   3.930   5.629   4.458  1.1523  3.8574 -3.7675
18198TIP3   OH276084   5.689   6.285   5.589 -0.5130  0.2258 -0.0468
18198TIP3    H176085   5.596   6.309   5.597 -0.4689  0.0124  1.3507
18198TIP3    H276086   5.735   6.369   5.580 -0.8190  0.3358 -0.6631
18199TIP3   OH276087   2.180   5.296  14.926  0.0004  0.0008  0.3812
18199TIP3    H176088   2.232   5.272  15.003 -0.4796  0.2912  0.8024
18199TIP3    H276089   2.090   5.274  14.950 -0.2026  0.4538  0.0460
18200TIP3   OH276090   1.162   2.192  16.596  0.2316  0.7278 -0.1745
18200TIP3    H176091   1.067   2.188  16.609  0.3423  0.0949  0.5227
18200TIP3    H276092   1.175   2.166  16.505 -0.2402  0.5260 -0.1895
18201TIP3   OH276093   5.225   4.507  15.160  0.2187  0.0863 -0.0397
18201TIP3    H176094   5.218   4.414  15.180  0.0761  0.2007  0.4693
18201TIP3    H276095   5.266   4.545  15.238 -0.6246  0.5965  0.1761
18202TIP3   OH276096   3.417   5.342   5.465 -0.1028  0.4769  0.6051
18202TIP3    H176097   3.342   5.297   5.426 -0.9701  2.1646  0.2283
18202TIP3    H276098   3.490   5.280   5.456 -1.0050 -0.4274 -0.8291
18203TIP3   OH276099   3.577   2.459  11.836  0.7394  0.0766  0.6124
18203TIP3    H176100   3.635   2.437  11.762 -1.8675 -0.0113 -1.5787
18203TIP3    H276101   3.603   2.547  11.862  1.3193  0.3772 -0.8747
18204TIP3   OH276102   0.104   2.809  14.770 -0.2970 -0.1366  0.2747
18204TIP3    H176103   0.174   2.781  14.830 -0.5959  0.7876  1.0969
18204TIP3    H276104   0.026   2.814  14.825 -0.1555  2.8004  0.3934
18205TIP3   OH276105   5.332   3.785   4.890 -0.1816 -0.0360 -0.2429
18205TIP3    H176106   5.392   3.744   4.828  0.3609  0.3922 -0.0070
18205TIP3    H276107   5.274   3.838   4.835 -1.3452 -1.6230 -0.6281
18206TIP3   OH276108   5.262   6.298  15.354  0.2046  0.1443 -0.1115
18206TIP3    H176109   5.270   6.257  15.440 -1.0873 -1.5753 -0.7474
18206TIP3    H276110   5.334   6.262  15.303 -0.6944 -1.0919 -0.5519
18207TIP3   OH276111   3.774   3.852   3.777  0.4642 -0.2033 -0.1108
18207TIP3    H176112   3.795   3.943   3.757  0.0986  0.1852  1.1176
18207TIP3    H276113   3.748   3.854   3.870  0.5827 -1.5806 -0.0291
18208TIP3   OH276114   6.548   3.990   6.537  0.1438 -0.2396 -0.1995
18208TIP3    H176115   6.551   4.069   6.591  0.1503 -0.5688  0.2991
18208TIP3    H276116   6.457   3.985   6.507  0.3632  0.4433 -0.9888
18209TIP3   OH276117   2.887   6.438   3.040  0.4198 -0.1732  0.1153
18209TIP3    H176118   2.840   6.521   3.041  1.4778  0.4605  1.8075
18209TIP3    H276119   2.833   6.380   2.986 -1.7265  0.8280  1.0636
18210TIP3   OH276120   1.726   5.813   2.844  0.2445 -0.3459  0.2225
18210TIP3    H176121   1.776   5.731   2.840  0.2220 -0.3438 -0.1738
18210TIP3    H276122   1.654   5.800   2.782  0.3931  0.0734 -0.0449
18211TIP3   OH276123   3.998   1.620  16.505  0.5860 -0.0268  0.5796
18211TIP3    H176124   4.049   1.701  16.503  1.1100 -0.3564 -0.4927
18211TIP3    H276125   4.050   1.557  16.454  0.5921 -1.3003  2.0781
18212TIP3   OH276126   3.534   0.220   2.023  0.4355  0.2498 -0.0576
18212TIP3    H176127   3.513   0.255   2.109 -2.0621  1.2330 -0.9580
18212TIP3    H276128   3.527   0.296   1.964  1.3935 -0.5253 -1.2152
18213TIP3   OH276129   2.264   3.342  16.046  0.6621 -0.1348 -0.2299
18213TIP3    H176130   2.274   3.275  15.977  0.5290 -0.2569 -0.1308
18213TIP3    H276131   2.239   3.421  15.998  1.8648  0.1231 -0.4643
18214TIP3   OH276132   5.274   3.199   4.903  1.1168  0.1167 -0.0875
18214TIP3    H176133   5.286   3.249   4.984  2.4940  1.0941 -0.8604
18214TIP3    H276134   5.328   3.121   4.915  2.7910  1.1234 -0.7352
18215TIP3   OH276135   2.031   1.730  16.312 -0.6915 -0.3456 -0.3469
18215TIP3    H176136   2.099   1.793  16.287 -0.5086 -0.7814 -0.9626
18215TIP3    H276137   2.075   1.645  16.310 -1.1752 -0.5966 -0.4392
18216TIP3   OH276138   6.070   6.316  12.780  0.1106  0.1005  0.3959
18216TIP3    H176139   6.125   6.382  12.738  0.3591 -2.1286 -3.2951
18216TIP3    H276140   6.110   6.232  12.755 -2.1275 -1.5382  1.8546
18217TIP3   OH276141   2.007   3.122   5.484  0.7807 -0.2712  0.5082
18217TIP3    H176142   1.943   3.097   5.551  2.5964 -1.4110  1.9292
18217TIP3    H276143   2.058   3.192   5.526  0.8023  0.2546 -0.3868
18218TIP3   OH276144   1.792   5.770   2.525 -0.2862  0.0319 -0.4991
18218TIP3    H176145   1.870   5.810   2.564 -1.2569  0.7349  0.8323
18218TIP3    H276146   1.775   5.694   2.580 -1.8378  1.1879  0.7374
18219TIP3   OH276147   6.429   0.102  15.163  0.1213  0.1648 -0.1146
18219TIP3    H176148   6.378   0.175  15.198  1.5227  0.4026  1.5943
18219TIP3    H276149   6.467   0.136  15.082  0.4092  1.2174  0.4369
18220TIP3   OH276150   4.515   4.243   0.860  0.1540 -0.2357  0.2283
18220TIP3    H176151   4.587   4.183   0.841  0.3906  0.3967 -1.0022
18220TIP3    H276152   4.461   4.196   0.922  0.4241 -1.6660 -0.5628
18221TIP3   OH276153   0.745   6.174  15.523  0.3105  0.3078  0.2568
18221TIP3    H176154   0.665   6.169  15.576  0.3187 -1.3943  0.1707
18221TIP3    H276155   0.714   6.198  15.435 -0.0247  0.3183  0.3758
18222TIP3   OH276156   5.558   6.362   2.754  0.2470  0.0235  0.5619
18222TIP3    H176157   5.645   6.352   2.714  0.0200 -2.5951  0.5632
18222TIP3    H276158   5.570   6.331   2.844 -0.3329  1.3613  1.1274
18223TIP3   OH276159   1.898   6.751  11.867  0.3235  0.5499  0.5134
18223TIP3    H176160   1.963   6.682  11.857  0.1335  0.3725  0.4860
18223TIP3    H276161   1.898   6.796  11.783 -2.0146 -1.5993 -0.7767
18224TIP3   OH276162   1.699   4.517  12.613  0.0483  0.0372  0.1194
18224TIP3    H176163   1.704   4.474  12.698 -0.3355 -0.3203 -0.0344
18224TIP3    H276164   1.670   4.606  12.632  2.6861  0.8667  0.6315
18225TIP3   OH276165   3.799   3.291  14.507  0.2687  0.4001  0.0625
18225TIP3    H176166   3.806   3.316  14.599 -0.4705 -0.8355  0.4783
18225TIP3    H276167   3.866   3.223  14.496  1.4815  1.6645 -0.7596
18226TIP3   OH276168   1.685   5.892   1.532  0.0329 -0.2466 -0.1992
18226TIP3    H176169   1.593   5.918   1.520 -0.1586  0.4714  2.2549
18226TIP3    H276170   1.733   5.975   1.528 -0.0441  0.0727  3.1388
18227TIP3   OH276171   1.462   6.107   0.590  0.0524 -0.1160 -0.2477
18227TIP3    H176172   1.393   6.077   0.649 -1.1466  1.1267 -0.9729
18227TIP3    H276173   1.513   6.169   0.642  1.3941 -1.8614  0.6523
18228TIP3   OH276174   6.228   6.688  13.324 -0.1278  0.6312 -0.4764
18228TIP3    H176175   6.288   6.753  13.360 -0.5712  0.6229  0.2955
18228TIP3    H276176   6.273   6.655  13.246 -0.0560  2.1209 -1.1077
18229TIP3   OH276177   0.789   6.656  11.166  0.3623  0.9196 -0.3949
18229TIP3    H176178   0.714   6.596  11.165 -0.3428  1.7637  0.5668
18229TIP3    H276179   0.801   6.681  11.074  1.1794 -1.2693 -0.9468
18230TIP3   OH276180   2.197   5.777   0.773  0.1064 -1.1027  0.5549
18230TIP3    H176181   2.276   5.736   0.807  1.4457  0.3681 -0.6357
18230TIP3    H276182   2.156   5.818   0.849  0.3246 -2.1289  1.2358
18231TIP3   OH276183   5.087   3.310  16.496 -0.3102 -0.3353 -0.1249
18231TIP3    H176184   5.144   3.274  16.564 -0.2114  0.4858  0.2378
18231TIP3    H276185   4.998   3.291  16.525 -0.2394 -1.3395 -0.5352
18232TIP3   OH276186   3.203   1.075   5.651  0.0828  0.0397  0.5609
18232TIP3    H176187   3.126   1.094   5.706 -0.1407  0.8598 -0.0036
18232TIP3    H276188   3.165   1.044   5.569  0.3000  1.4764 -0.1030
18233TIP3   OH276189   6.760   3.040   3.540 -0.4833  0.4264 -0.3405
18233TIP3    H176190   6.839   3.042   3.595  0.0182 -0.9585 -0.9738
18233TIP3    H276191   6.781   3.098   3.467 -1.0560  2.0754  0.7405
18234TIP3   OH276192   6.273   1.260  15.047  0.6247  0.3457 -0.0711
18234TIP3    H176193   6.257   1.288  15.137 -0.4349  2.5704 -0.8942
18234TIP3    H276194   6.199   1.204  15.025 -0.6240  2.0149 -0.3794
18235TIP3   OH276195   0.252   1.224  14.643  0.4690  0.0531 -0.2194
18235TIP3    H176196   0.270   1.311  14.607 -1.3484  0.6126  0.1152
18235TIP3    H276197   0.310   1.216  14.719 -0.1888  1.5089  0.4725
18236TIP3   OH276198   4.290   5.235  17.076 -0.2638 -0.3323 -0.1549
18236TIP3    H176199   4.235   5.299  17.121 -0.0424  0.0951 -0.4843
18236TIP3    H276200   4.339   5.286  17.012 -1.2549 -1.0357 -1.5438
18237TIP3   OH276201   3.314   0.604   4.194 -0.5234  0.2560  0.8854
18237TIP3    H176202   3.404   0.580   4.176 -0.7568 -1.2591  1.5619
18237TIP3    H276203   3.310   0.698   4.177  1.0158  0.2349  0.2644
18238TIP3   OH276204   0.738   4.807  14.342 -0.5904 -0.6726 -0.2722
18238TIP3    H176205   0.657   4.816  14.291  0.3121 -0.5195 -1.7636
18238TIP3    H276206   0.756   4.713  14.341  0.7729 -0.4864 -2.5899
18239TIP3   OH276207   3.914   4.030   1.618 -0.2500 -0.0440  0.1792
18239TIP3    H176208   3.976   4.093   1.655 -1.4726  0.7157  0.9866
18239TIP3    H276209   3.928   3.950   1.669 -0.2839  0.2740  0.6910
18240TIP3   OH276210   6.546   3.760   6.700  0.2361 -0.3988  0.1054
18240TIP3    H176211   6.537   3.839   6.647  0.0687  0.1434  0.9244
18240TIP3    H276212   6.636   3.732   6.687  0.4982  0.3194  0.3444
18241TIP3   OH276213   3.670   5.089  15.323  0.2143  0.3028 -0.2114
18241TIP3    H176214   3.703   5.150  15.257 -1.3524  0.5963 -0.7656
18241TIP3    H276215   3.639   5.014  15.274  0.6784 -0.2684  0.3497
18242TIP3   OH276216   4.242   1.556   5.250  0.3301 -0.7538  0.0951
18242TIP3    H176217   4.214   1.620   5.315  0.8010 -0.4867  0.0413
18242TIP3    H276218   4.338   1.561   5.251  0.3448 -0.7152 -0.6458
18243TIP3   OH276219   1.795   2.149   1.314  0.4504  0.5497 -0.4201
18243TIP3    H176220   1.758   2.199   1.387  0.5899 -1.0159  0.7819
18243TIP3    H276221   1.720   2.132   1.257  0.0242  0.4871  0.1509
18244TIP3   OH276222   1.417   1.067  14.940 -0.1037 -0.3540 -0.3081
18244TIP3    H176223   1.334   1.085  14.897 -0.0396  3.1950  0.7924
18244TIP3    H276224   1.399   1.077  15.034  1.0585 -2.0762  0.1520
18245TIP3   OH276225   6.334   3.377  13.947 -0.3751  0.4411 -0.1263
18245TIP3    H176226   6.285   3.397  13.867  2.3499  2.3265 -1.4777
18245TIP3    H276227   6.361   3.286  13.936 -1.9831 -0.0590 -0.1832
18246TIP3   OH276228   5.523   2.116  13.435 -0.0951 -0.4565 -0.4210
18246TIP3    H176229   5.582   2.155  13.499  0.2812  0.4548 -1.2998
18246TIP3    H276230   5.449   2.178  13.430 -0.7042 -1.1311  0.0076
18247TIP3   OH276231   5.058   4.090   1.257  0.1183 -0.0285 -0.0967
18247TIP3    H176232   5.134   4.099   1.314 -0.5023 -0.2494  0.7988
18247TIP3    H276233   4.991   4.049   1.312 -0.3703 -0.6552 -1.1160
18248TIP3   OH276234   6.638   3.514  12.415 -0.0410 -0.0758 -0.5133
18248TIP3    H176235   6.622   3.602  12.449 -1.0558 -0.3649 -0.1901
18248TIP3    H276236   6.717   3.523  12.361  0.8131  0.6712  0.8094
18249TIP3   OH276237   3.126   3.610   4.522 -0.0163 -0.1237  0.3310
18249TIP3    H176238   3.162   3.654   4.599 -1.4511 -2.1123  2.2390
18249TIP3    H276239   3.135   3.675   4.452  2.2737  1.3948  1.8753
18250TIP3   OH276240   5.971   0.298  14.112  0.2461  0.2657  0.4767
18250TIP3    H176241   5.901   0.244  14.148 -0.6706  1.4360  0.5212
18250TIP3    H276242   5.983   0.266  14.022  0.3658 -0.6060  0.8007
18251TIP3   OH276243   3.679   5.823  15.879 -0.0626  0.8122 -0.1825
18251TIP3    H176244   3.638   5.851  15.796  1.5548  0.1737 -1.2348
18251TIP3    H276245   3.742   5.756  15.853  0.7150  0.8355  1.5468
18252TIP3   OH276246   2.127   1.053   4.766  0.1289 -0.2134  0.6642
18252TIP3    H176247   2.055   1.014   4.815 -0.2138 -2.3998 -1.4119
18252TIP3    H276248   2.084   1.108   4.701  0.3763 -0.5453  0.2145
18253TIP3   OH276249   2.408   2.627   0.705 -0.5832 -0.6061  0.3983
18253TIP3    H176250   2.467   2.565   0.747  2.1607  1.9223  0.6438
18253TIP3    H276251   2.347   2.653   0.775  1.8710  1.1227  2.0573
18254TIP3   OH276252   0.666   3.895   2.930 -0.0592 -0.7724 -0.0122
18254TIP3    H176253   0.687   3.815   2.882  1.1413 -0.8720  0.6108
18254TIP3    H276254   0.603   3.942   2.875  0.5761 -1.3077 -1.2354
18255TIP3   OH276255   2.268   3.598   0.441  0.0478 -0.0652  0.1149
18255TIP3    H176256   2.260   3.600   0.346 -0.5336  1.3233  0.1797
18255TIP3    H276257   2.338   3.661   0.461 -1.9110  2.0210  0.7719
18256TIP3   OH276258   3.882   5.512   0.441  0.2467  0.2330  0.9306
18256TIP3    H176259   3.927   5.502   0.357 -0.3113  0.0110  0.6543
18256TIP3    H276260   3.953   5.523   0.505  0.6618  2.9580  0.1407
18257TIP3   OH276261   2.258   6.602   1.564 -0.0243 -0.3360 -0.0984
18257TIP3    H176262   2.187   6.629   1.506 -1.3094  0.2619  1.6596
18257TIP3    H276263   2.240   6.511   1.584 -0.6705 -0.0224  0.8133
18258TIP3   OH276264   4.310   0.308   3.444  0.2630 -0.2770  0.6271
18258TIP3    H176265   4.281   0.238   3.386 -0.3420  0.4339  0.0391
18258TIP3    H276266   4.320   0.384   3.386  1.2470  0.0329  1.1867
18259TIP3   OH276267   0.837   2.970   0.269  0.0357  0.0271  0.0209
18259TIP3    H176268   0.927   3.000   0.253  0.4006 -1.0074  0.0855
18259TIP3    H276269   0.818   3.000   0.358  0.1618  0.5854 -0.1310
18260TIP3   OH276270   5.484   5.154   2.747 -1.0869  0.3073 -0.3253
18260TIP3    H176271   5.389   5.169   2.750 -1.0723  0.2416  1.0602
18260TIP3    H276272   5.510   5.148   2.839  0.3158  0.6303 -0.6805
18261TIP3   OH276273   6.065   5.342  15.788 -0.1070  0.3877 -0.1020
18261TIP3    H176274   6.121   5.266  15.802  0.0648  0.5050 -0.1593
18261TIP3    H276275   6.103   5.411  15.842  1.1266  1.1222 -1.8246
18262TIP3   OH276276   3.094   1.066  16.703 -0.7127 -0.4440  0.1260
18262TIP3    H176277   3.022   1.127  16.686 -1.1699 -0.8599  0.5379
18262TIP3    H276278   3.078   1.034  16.792 -0.4980 -1.1772 -0.0905
18263TIP3   OH276279   3.570   1.579   4.902 -0.1536 -0.0792 -0.2657
18263TIP3    H176280   3.484   1.598   4.865  0.5363  0.5047 -1.6332
18263TIP3    H276281   3.592   1.492   4.871  0.3512  0.3415 -1.1190
18264TIP3   OH276282   4.724   6.656   6.389  0.6455  0.6747 -0.3032
18264TIP3    H176283   4.753   6.664   6.298 -0.7737  1.7384 -0.7106
18264TIP3    H276284   4.686   6.742   6.410 -3.2017 -0.7998 -0.2877
18265TIP3   OH276285   4.567   6.764   5.756  0.1657 -0.3538 -0.4250
18265TIP3    H176286   4.512   6.803   5.823  0.5913 -1.0508  0.3489
18265TIP3    H276287   4.540   6.672   5.754 -0.5279 -0.1455 -1.9120
18266TIP3   OH276288   1.737   3.646   3.799 -0.0412 -0.1241 -0.6348
18266TIP3    H176289   1.743   3.670   3.892  3.1057  1.3556 -1.0812
18266TIP3    H276290   1.668   3.579   3.796 -0.3876 -0.0936  2.7228
18267TIP3   OH276291   5.243   0.281  10.891 -0.2060 -0.4110 -0.0556
18267TIP3    H176292   5.281   0.355  10.938 -0.0215 -0.4219 -0.1846
18267TIP3    H276293   5.160   0.264  10.936 -0.5313  0.2453 -0.3885
18268TIP3   OH276294   0.299   4.563  13.814  0.3062  0.8722 -0.4148
18268TIP3    H176295   0.372   4.606  13.859  1.1460 -2.5129  1.8144
18268TIP3    H276296   0.310   4.587  13.722  4.0446  0.7890 -0.1414
18269TIP3   OH276297   0.654   0.954  15.657 -0.2700  0.0763  0.4926
18269TIP3    H176298   0.655   1.026  15.594  0.8953  0.6175  1.0821
18269TIP3    H276299   0.616   0.880  15.609  1.5869  0.1436 -1.2479
18270TIP3   OH276300   2.038   0.954   0.010  0.3230  0.0532  0.1025
18270TIP3    H176301   2.081   0.870   0.025 -1.8106 -0.9230  1.2647
18270TIP3    H276302   2.034   0.963  -0.086  1.9299 -0.3978 -0.0272
18271TIP3   OH276303   5.842   4.473  16.517 -0.4520 -0.3558 -0.4694
18271TIP3    H176304   5.828   4.548  16.575 -0.2682 -0.7801  0.1282
18271TIP3    H276305   5.923   4.492  16.471 -0.5485 -0.0609 -0.5152
18272TIP3   OH276306   3.846   4.049   1.084 -0.9769 -0.3715 -0.1634
18272TIP3    H176307   3.864   3.959   1.057 -1.5109 -0.6021  0.2290
18272TIP3    H276308   3.872   4.053   1.176  0.7242  0.3806 -0.6472
18273TIP3   OH276309   6.073   0.349   4.273  0.7809 -0.1635  0.1957
18273TIP3    H176310   6.104   0.368   4.362  0.5881 -0.8100  0.4142
18273TIP3    H276311   6.113   0.264   4.252 -0.0915 -0.5696  0.1268
18274TIP3   OH276312   1.641   4.286   1.657  0.3774  0.2975  0.2752
18274TIP3    H176313   1.551   4.313   1.638  0.2061 -0.4885 -0.0774
18274TIP3    H276314   1.674   4.352   1.717 -0.3699  0.7061  0.2442
18275TIP3   OH276315   0.212   0.377   0.286 -0.3726 -0.1030 -0.5717
18275TIP3    H176316   0.163   0.366   0.368  0.3783  0.3248 -0.0431
18275TIP3    H276317   0.252   0.464   0.294 -0.1397 -0.1382 -1.3092
18276TIP3   OH276318   3.408   5.981   0.506  0.1768  0.2750 -0.3780
18276TIP3    H176319   3.347   5.996   0.433  0.0408  2.0506  0.0432
18276TIP3    H276320   3.354   5.942   0.574 -0.4520  1.5333 -0.1248
18277TIP3   OH276321   0.103   4.128  13.736  0.1236 -0.0802 -0.5387
18277TIP3    H176322   0.033   4.194  13.730  0.1436 -0.0981 -1.0865
18277TIP3    H276323   0.088   4.083  13.818 -1.3520 -1.0168 -1.2853
18278TIP3   OH276324   5.077   3.266   2.075 -0.2343 -0.6042 -0.3754
18278TIP3    H176325   5.074   3.172   2.095 -1.2987 -0.3410  0.8752
18278TIP3    H276326   5.011   3.278   2.007 -0.5118 -0.6783 -0.1209
18279TIP3   OH276327   1.402   2.707   4.638  0.6996 -0.3328  0.5130
18279TIP3    H176328   1.484   2.757   4.630  1.0825 -1.1591 -1.1088
18279TIP3    H276329   1.431   2.617   4.652  0.0998 -0.7737 -0.9708
18280TIP3   OH276330   0.130   1.591  10.423 -0.2058 -0.3018 -0.7484
18280TIP3    H176331   0.101   1.528  10.357 -3.8661  3.0112 -2.6907
18280TIP3    H276332   0.067   1.581  10.494  0.0663  0.2483 -0.4275
18281TIP3   OH276333   3.769   0.559   0.101  0.4132  0.8888 -1.1588
18281TIP3    H176334   3.796   0.650   0.098  0.0391  1.1146  0.8848
18281TIP3    H276335   3.682   0.561   0.139  0.4676 -0.3381 -0.9302
18282TIP3   OH276336   1.867   2.071  14.854 -0.6673  1.0733 -0.7064
18282TIP3    H176337   1.939   2.090  14.915 -0.1901 -1.0331 -0.5185
18282TIP3    H276338   1.907   2.018  14.785 -2.0039 -0.1246 -0.6184
18283TIP3   OH276339   2.380   4.079  15.128  0.2101  0.3563  0.0852
18283TIP3    H176340   2.376   4.140  15.202 -0.4683  0.4050  0.0196
18283TIP3    H276341   2.359   3.994  15.166  2.5491 -0.1213  0.4410
18284TIP3   OH276342   0.163   2.593   1.755  0.2495 -0.2247  0.6092
18284TIP3    H176343   0.119   2.511   1.731 -0.4613  0.1913  0.4659
18284TIP3    H276344   0.189   2.632   1.672  0.6483 -0.3306  0.6806
18285TIP3   OH276345   5.394   6.625   3.109 -0.3086  0.0219 -0.1803
18285TIP3    H176346   5.383   6.530   3.120  0.8957  0.0804  2.0000
18285TIP3    H276347   5.319   6.663   3.156 -1.0791  0.1959 -1.4886
18286TIP3   OH276348   5.242   2.629   2.144  0.0247 -0.4916  0.1491
18286TIP3    H176349   5.283   2.595   2.065 -2.7351 -3.5023 -0.1956
18286TIP3    H276350   5.266   2.566   2.212  1.4928  1.4839  1.5953
18287TIP3   OH276351   3.086   3.262   2.205 -0.6617  0.6560 -0.2984
18287TIP3    H176352   3.021   3.296   2.145  0.3727  0.8769 -1.3353
18287TIP3    H276353   3.084   3.321   2.280 -1.6793  0.6148 -0.2863
18288TIP3   OH276354   0.251   6.271  15.902 -0.5617  0.3221  0.1096
18288TIP3    H176355   0.215   6.302  15.819  1.3444  0.9993 -0.5085
18288TIP3    H276356   0.231   6.177  15.903 -0.3467  0.2429 -1.2666
18289TIP3   OH276357   3.718   4.511   1.350  0.1493  0.2433 -0.4429
18289TIP3    H176358   3.764   4.495   1.267 -1.8499  0.4285 -1.6475
18289TIP3    H276359   3.767   4.583   1.390  1.4470 -0.1714 -1.2069
18290TIP3   OH276360   5.755   5.623   0.185 -0.4297  0.1516  0.0435
18290TIP3    H176361   5.763   5.645   0.277  1.1715 -0.9549  0.2212
18290TIP3    H276362   5.731   5.530   0.184 -1.4747  0.4043 -0.6743
18291TIP3   OH276363   0.077   6.385  17.087 -0.4340 -0.0485  0.2102
18291TIP3    H176364  -0.010   6.371  17.051 -0.1673 -2.7646  0.4364
18291TIP3    H276365   0.116   6.298  17.092  1.4284  0.7976  2.3044
18292TIP3   OH276366   3.180   0.164  10.465 -0.4883 -0.0290  0.7367
18292TIP3    H176367   3.229   0.225  10.411 -0.2299  0.1317  1.1419
18292TIP3    H276368   3.240   0.091  10.480 -0.0547  0.5431  1.9156
18293TIP3   OH276369   0.517   6.279  11.548  0.3958 -0.3676  0.0059
18293TIP3    H176370   0.536   6.260  11.456  0.0017 -0.7694  0.0034
18293TIP3    H276371   0.422   6.273  11.554  0.3902  0.0562  0.3528
18294TIP3   OH276372   1.753   4.803   5.503  0.2870  0.0772 -0.2263
18294TIP3    H176373   1.743   4.805   5.598 -3.2656 -1.4905 -0.4227
18294TIP3    H276374   1.724   4.890   5.475  2.0189  0.7986  0.0810
18295TIP3   OH276375   5.236   3.048  16.548 -0.6180  0.1759 -0.6082
18295TIP3    H176376   5.319   3.092  16.568  0.8426 -2.4835 -0.3225
18295TIP3    H276377   5.194   3.037  16.634  0.2655 -1.1798 -0.3062
18296TIP3   OH276378   3.383   0.140   4.398 -0.7640 -0.1220 -0.0891
18296TIP3    H176379   3.439   0.174   4.329  0.1433 -2.2900 -0.5128
18296TIP3    H276380   3.418   0.178   4.478  2.6577 -2.7124 -0.1007
18297TIP3   OH276381   4.689   0.013   5.070 -0.0671 -0.6287  0.4785
18297TIP3    H176382   4.702   0.080   5.138 -0.5362  1.5948 -1.4920
18297TIP3    H276383   4.776  -0.027   5.060  0.6548  0.8133  0.6164
18298TIP3   OH276384   3.267   2.621   4.693  0.5364 -0.3323 -0.7923
18298TIP3    H176385   3.227   2.682   4.631 -1.6078 -0.7410  0.1255
18298TIP3    H276386   3.361   2.639   4.686  0.0541  2.4175 -1.2157
18299TIP3   OH276387   0.151   1.099   2.731  0.7977  0.0824  0.9517
18299TIP3    H176388   0.087   1.148   2.782 -0.4491 -0.7508  0.2464
18299TIP3    H276389   0.136   1.007   2.753  1.1713 -0.1918  0.1445
18300TIP3   OH276390   0.392   4.360  12.022 -0.0836  0.6993 -0.2704
18300TIP3    H176391   0.364   4.436  12.074  2.1012  1.5011 -0.1553
18300TIP3    H276392   0.341   4.366  11.941  0.1796  2.4200 -0.3463
18301TIP3   OH276393   0.631   0.014   1.039 -0.4109  0.0567 -0.9998
18301TIP3    H176394   0.570   0.069   0.991 -0.0829 -0.3784 -1.9549
18301TIP3    H276395   0.580  -0.063   1.063 -0.4169 -0.0020 -1.1986
18302TIP3   OH276396   3.957   0.447  15.456 -0.2381  0.7263 -0.0267
18302TIP3    H176397   3.932   0.452  15.364  1.2521 -0.1900 -0.5117
18302TIP3    H276398   3.890   0.498  15.502 -1.0724  1.0921 -1.5925
18303TIP3   OH276399   0.096   3.855  14.411 -0.1578  0.2065 -0.2381
18303TIP3    H176400   0.086   3.950  14.412 -2.3939  0.0429 -0.7318
18303TIP3    H276401   0.043   3.825  14.485 -2.1591 -0.7652 -1.9583
18304TIP3   OH276402   6.486   3.497  11.996 -0.8856 -0.5398 -0.4920
18304TIP3    H176403   6.435   3.480  12.075  0.4762  1.6770  0.9737
18304TIP3    H276404   6.570   3.453  12.011  0.0220  1.2991  0.1691
18305TIP3   OH276405   5.349   6.116   2.663  0.4413  0.2127 -0.0707
18305TIP3    H176406   5.254   6.109   2.654  0.5909 -2.2306 -0.5281
18305TIP3    H276407   5.364   6.115   2.758  0.0773 -2.9371  0.0696
18306TIP3   OH276408   2.446   1.297  15.789  0.1820 -0.1466  0.2412
18306TIP3    H176409   2.536   1.330  15.782  0.0095  0.7858  1.9829
18306TIP3    H276410   2.403   1.329  15.710  1.2415 -0.2293 -0.4035
18307TIP3   OH276411   2.355   1.235   0.964 -0.2930 -0.0579  0.1481
18307TIP3    H176412   2.335   1.281   1.045  0.5680 -0.2877  0.5011
18307TIP3    H276413   2.279   1.251   0.908  0.3166  2.5450 -0.0712
18308TIP3   OH276414   2.466   5.613   0.737  0.4328  0.4973  0.5620
18308TIP3    H176415   2.499   5.703   0.742 -0.5506  0.8367  1.0778
18308TIP3    H276416   2.504   5.569   0.813  2.5308 -0.1037 -0.7435
18309TIP3   OH276417   0.307   0.646   1.460 -0.1801 -0.0590  0.5371
18309TIP3    H176418   0.381   0.604   1.416  0.2537  1.4506 -0.2228
18309TIP3    H276419   0.230   0.617   1.411  0.0458 -0.5225  0.4558
18310TIP3   OH276420   6.048   4.984  12.627  1.0477  0.1842  0.3952
18310TIP3    H176421   6.012   4.899  12.652  0.6566  1.2188  3.8252
18310TIP3    H276422   5.998   5.009  12.549 -1.3038 -1.1873  1.3581
18311TIP3   OH276423   5.146   5.567  13.419  0.0726  0.4814  0.1060
18311TIP3    H176424   5.143   5.570  13.324  1.9426  1.5996  0.0317
18311TIP3    H276425   5.178   5.654  13.445 -0.1808  0.1265  1.7448
18312TIP3   OH276426   4.483   0.181  16.484 -0.1408  0.2246  0.0863
18312TIP3    H176427   4.403   0.169  16.536  1.0315 -0.3872  1.8270
18312TIP3    H276428   4.507   0.092  16.457  0.9042  0.1666  1.1145
18313TIP3   OH276429   5.769   6.008   0.618  0.2663 -0.2941  0.1381
18313TIP3    H176430   5.702   5.987   0.683  1.1523 -0.9300  0.8720
18313TIP3    H276431   5.769   6.104   0.614 -0.0951 -0.2615  0.7480
18314TIP3   OH276432   6.550   2.485  10.665  0.4258 -0.0339  0.2698
18314TIP3    H176433   6.560   2.415  10.601  2.4751 -0.6545  1.1783
18314TIP3    H276434   6.463   2.472  10.702  1.0609 -2.6629  1.0311
18315TIP3   OH276435   4.457   4.708   1.042  0.3534  0.3429 -0.4293
18315TIP3    H176436   4.538   4.663   1.018  0.5728  0.2418  0.4844
18315TIP3    H276437   4.470   4.736   1.132 -0.2979  1.0918 -0.5531
18316TIP3   OH276438   1.109   2.472  12.224  0.7678  0.0669  0.8405
18316TIP3    H176439   1.042   2.516  12.276  1.3719  0.4805  1.2849
18316TIP3    H276440   1.166   2.430  12.289  1.0667 -0.0923  0.4795
18317TIP3   OH276441   0.074   1.033  11.377  0.0003  0.3218  0.1732
18317TIP3    H176442   0.115   0.982  11.307 -0.1866 -0.9355  0.9366
18317TIP3    H276443   0.083   1.124  11.349  1.2139 -0.0631 -0.7823
18318TIP3   OH276444   6.059   3.310   5.507  0.1187  0.0391 -0.0006
18318TIP3    H176445   6.129   3.253   5.474  0.3280 -0.6325  1.5065
18318TIP3    H276446   6.106   3.384   5.546 -0.0500  0.0284  0.2200
18319TIP3   OH276447   6.027   3.377   3.665  0.0579 -0.3184  0.0773
18319TIP3    H176448   5.947   3.355   3.616 -0.1986  0.9492 -0.1117
18319TIP3    H276449   6.048   3.466   3.637  0.5564  0.0142  1.4469
18320TIP3   OH276450   6.636   0.434  15.099  0.8561  0.4355  0.2478
18320TIP3    H176451   6.601   0.481  15.023  0.1168 -0.9649 -0.3243
18320TIP3    H276452   6.726   0.412  15.073  0.4371 -0.4983 -0.4674
18321TIP3   OH276453   3.805   3.288  15.105  0.5101  0.0122 -0.0405
18321TIP3    H176454   3.711   3.293  15.088  0.5309 -1.2271 -0.6276
18321TIP3    H276455   3.820   3.349  15.178 -0.3824  1.8035 -1.2826
18322TIP3   OH276456   6.074   1.596  13.585 -0.1232  0.3789 -0.0500
18322TIP3    H176457   6.023   1.587  13.666  1.9877  0.8929  1.4466
18322TIP3    H276458   6.132   1.670  13.602  1.2693 -0.3233 -1.5234
18323TIP3   OH276459   0.777   5.789  14.164 -0.4557  0.2989  0.4747
18323TIP3    H176460   0.722   5.721  14.203 -0.3974  0.8570  1.5623
18323TIP3    H276461   0.741   5.800  14.076  0.8210 -2.5907 -0.5552
18324TIP3   OH276462   2.446   2.158   2.310 -0.0795  0.1277  0.1855
18324TIP3    H176463   2.451   2.095   2.238  0.2195 -1.7906  1.8013
18324TIP3    H276464   2.380   2.221   2.281 -1.4892 -1.7272 -0.9431
18325TIP3   OH276465   0.620   0.647  10.374 -0.3210  0.2598  0.3747
18325TIP3    H176466   0.711   0.630  10.350 -0.4637  0.6583 -0.5150
18325TIP3    H276467   0.624   0.675  10.465  0.5759  1.2789  0.0447
18326TIP3   OH276468   1.411   5.083   0.903  0.1032 -0.4365  0.4317
18326TIP3    H176469   1.456   5.038   0.831 -0.9408 -1.8880  0.6316
18326TIP3    H276470   1.328   5.036   0.911 -0.7933  1.2027  1.0675
18327TIP3   OH276471   1.925   1.943  14.597 -0.5465 -0.7808  0.0006
18327TIP3    H176472   1.877   1.976  14.521  0.0608 -0.8780 -0.4340
18327TIP3    H276473   1.975   1.869  14.564 -0.0787 -0.6674  0.4333
18328TIP3   OH276474   1.152   5.029  12.642 -0.4005 -0.0434  0.4547
18328TIP3    H176475   1.076   5.047  12.586 -0.1424  1.4704  0.5456
18328TIP3    H276476   1.227   5.064  12.593  0.4077 -2.3124 -0.0458
18329TIP3   OH276477   0.848   0.293   0.121  0.0507 -0.7292 -0.3754
18329TIP3    H176478   0.792   0.216   0.115  0.1722 -0.7599 -1.4902
18329TIP3    H276479   0.793   0.365   0.090 -0.0955 -0.3380  0.7656
18330TIP3   OH276480   6.079   3.448  12.526  0.2991  0.3521 -0.0561
18330TIP3    H176481   6.051   3.483  12.442  0.4719 -0.3095 -0.3989
18330TIP3    H276482   5.998   3.432  12.573  0.1654  0.0195 -0.3933
18331TIP3   OH276483   4.630   3.723  11.984 -0.1076  0.1199 -0.8004
18331TIP3    H176484   4.558   3.697  11.926 -0.5629  1.0355 -0.6609
18331TIP3    H276485   4.686   3.777  11.928  1.1551 -1.5877 -1.2586
18332TIP3   OH276486   5.629   1.247  13.951  0.1724 -0.2301 -0.2694
18332TIP3    H176487   5.534   1.254  13.954  0.2274  0.3612  0.2676
18332TIP3    H276488   5.647   1.197  13.871 -0.6975 -2.5026  0.8814
18333TIP3   OH276489   1.128   5.090   0.654  0.0454 -0.2889  0.4307
18333TIP3    H176490   1.104   5.004   0.688  0.2783 -0.7514 -0.5138
18333TIP3    H276491   1.119   5.149   0.728  0.8194 -1.2938  1.3595
18334TIP3   OH276492   0.255   5.966   2.663  0.3263 -0.4995  0.4792
18334TIP3    H176493   0.336   6.016   2.655 -0.7147  1.0372 -1.0086
18334TIP3    H276494   0.187   6.024   2.629 -0.8092 -3.3818 -2.7321
18335TIP3   OH276495   0.776   0.890   0.537  0.1700  0.1487 -0.4702
18335TIP3    H176496   0.748   0.889   0.629 -0.4460  2.3375 -0.5730
18335TIP3    H276497   0.869   0.869   0.540  0.1093 -0.0366  0.6362
18336TIP3   OH276498   3.218   1.104  11.720  0.1036 -0.5047 -0.7224
18336TIP3    H176499   3.152   1.131  11.783 -0.5903 -2.8658 -0.3299
18336TIP3    H276500   3.302   1.123  11.763 -0.3384 -2.6741  1.3269
18337TIP3   OH276501   4.964   1.153   3.463 -0.0460 -0.3535 -0.4192
18337TIP3    H176502   4.964   1.204   3.544  3.4299  1.2336 -1.2519
18337TIP3    H276503   5.040   1.096   3.471 -0.1737 -0.8339 -2.2046
18338TIP3   OH276504   4.205   5.754   2.388  0.3218 -0.0289  0.0013
18338TIP3    H176505   4.128   5.781   2.438 -0.9605 -0.4160 -1.6980
18338TIP3    H276506   4.203   5.808   2.309  0.6348 -1.4657 -1.0151
18339TIP3   OH276507   3.327   4.548   4.823  0.7527  0.2548 -0.3460
18339TIP3    H176508   3.248   4.494   4.820  1.3048 -0.5405 -1.2850
18339TIP3    H276509   3.350   4.562   4.731  0.5833  2.1961 -0.1442
18340TIP3   OH276510   1.219   0.429   2.274  0.0780  0.7516  0.5118
18340TIP3    H176511   1.290   0.413   2.336 -0.3008  0.6730  0.9268
18340TIP3    H276512   1.199   0.342   2.238  2.4016  1.1447 -2.0811
18341TIP3   OH276513   0.065   0.332  12.820  0.2321 -0.4453  0.4681
18341TIP3    H176514   0.016   0.297  12.894  2.1959  3.1288  3.8260
18341TIP3    H276515  -0.001   0.368  12.762 -1.3083 -0.7411  1.9694
18342TIP3   OH276516   1.056   4.729   3.768 -0.1156  0.3583  0.4579
18342TIP3    H176517   1.017   4.649   3.733 -0.0414 -0.0159  1.2198
18342TIP3    H276518   1.016   4.799   3.716 -0.8441 -0.1121  0.3696
18343TIP3   OH276519   5.226   1.560  12.348  0.0459 -0.5173 -0.1568
18343TIP3    H176520   5.278   1.497  12.398 -1.6814 -2.5901 -0.7902
18343TIP3    H276521   5.234   1.532  12.257 -2.4804 -1.2370 -0.2283
18344TIP3   OH276522   1.251   0.497  15.734  0.0334  0.6027  0.3740
18344TIP3    H176523   1.164   0.478  15.698 -0.4794  0.8538  1.4305
18344TIP3    H276524   1.299   0.415  15.726  0.5481  1.0673 -2.4224
18345TIP3   OH276525   1.051   6.053   5.836 -0.4394  0.3985 -0.0024
18345TIP3    H176526   0.958   6.077   5.835 -0.6942 -0.3717 -2.5488
18345TIP3    H276527   1.052   5.961   5.862 -0.2491  0.7131  1.1615
18346TIP3   OH276528   0.456   0.603   2.022 -0.5621 -0.1709 -0.0117
18346TIP3    H176529   0.538   0.606   2.071 -0.1147  2.0757 -0.8097
18346TIP3    H276530   0.482   0.607   1.930 -1.4608 -3.0577 -0.5263
18347TIP3   OH276531   0.687   1.229   5.691 -0.2351 -0.5864 -0.0168
18347TIP3    H176532   0.714   1.153   5.742 -0.0262  0.0785  0.8948
18347TIP3    H276533   0.745   1.229   5.615 -1.3088 -2.2530 -0.8872
18348TIP3   OH276534   2.260   4.895   5.287 -0.1842 -0.8816  0.0845
18348TIP3    H176535   2.179   4.863   5.328 -1.3685  1.3117 -0.3829
18348TIP3    H276536   2.310   4.933   5.359 -2.3639  3.1762 -0.2608
18349TIP3   OH276537   6.740   1.692   1.490 -0.2695 -0.4156  0.1142
18349TIP3    H176538   6.665   1.745   1.466 -0.3025 -1.2219 -1.7834
18349TIP3    H276539   6.705   1.603   1.500  0.0837 -0.4312  1.4185
18350TIP3   OH276540   6.693   1.856   2.952  0.6466 -0.2514  0.3447
18350TIP3    H176541   6.766   1.797   2.971  1.6967  0.8836  0.0234
18350TIP3    H276542   6.703   1.927   3.016  0.8045  0.7216 -0.7129
18351TIP3   OH276543   0.646   4.229  12.052  0.3359 -0.3545 -0.2543
18351TIP3    H176544   0.568   4.285  12.051  1.1242  0.7773 -0.7063
18351TIP3    H276545   0.617   4.147  12.012 -0.4288  0.3393 -1.1674
18352TIP3   OH276546   4.314   6.685   4.096 -0.0896  0.4327 -0.0295
18352TIP3    H176547   4.251   6.613   4.098 -0.1670  0.5276  1.0309
18352TIP3    H276548   4.325   6.704   4.002 -0.9670 -0.1569 -0.2627
18353TIP3   OH276549   2.192   0.284   1.565  0.2540  0.4768  0.1108
18353TIP3    H176550   2.108   0.240   1.569  0.0006  0.9615  0.1617
18353TIP3    H276551   2.213   0.288   1.472  0.5585 -0.2641  0.1361
18354TIP3   OH276552   3.284   0.161  12.245 -0.1310 -0.0550 -0.4630
18354TIP3    H176553   3.261   0.137  12.335 -0.5063 -0.0350 -0.5505
18354TIP3    H276554   3.304   0.078  12.202 -0.0902 -0.0787 -0.3978
18355TIP3   OH276555   0.662   0.920  13.872 -0.6376  0.1231  0.2937
18355TIP3    H176556   0.610   0.934  13.951  0.2833 -0.8626  1.0970
18355TIP3    H276557   0.747   0.890  13.903 -0.1289  0.0539 -1.0606
18356TIP3   OH276558   6.551   2.156   1.311 -0.3204 -0.1982  0.6067
18356TIP3    H176559   6.600   2.238   1.309 -1.0999  0.2718  0.2867
18356TIP3    H276560   6.478   2.170   1.250 -0.1662 -1.3180  0.1386
18357TIP3   OH276561   2.774   3.628  11.861  1.2790 -0.3369  0.2890
18357TIP3    H176562   2.731   3.706  11.896 -0.0332 -0.0040 -1.8804
18357TIP3    H276563   2.731   3.555  11.905 -1.4239  0.0036 -1.5390
18358TIP3   OH276564   1.927   2.597  15.445 -0.2430  0.1998 -0.0461
18358TIP3    H176565   1.923   2.502  15.441 -1.3904  0.2763 -3.7551
18358TIP3    H276566   1.840   2.625  15.473  0.1047  0.2400  1.0817
18359TIP3   OH276567   3.827   0.771  12.823 -0.1590  0.5398  0.0360
18359TIP3    H176568   3.760   0.823  12.869  0.1326  1.1129 -0.1802
18359TIP3    H276569   3.777   0.709  12.771 -0.5567  1.5818 -0.8531
18360TIP3   OH276570   3.638   3.088  14.074  0.2139  0.3059 -0.4445
18360TIP3    H176571   3.656   3.013  14.017  0.8485 -0.6784  0.9933
18360TIP3    H276572   3.722   3.106  14.116 -0.2372  1.0384  0.1562
18361TIP3   OH276573   3.897   1.136   0.567  0.6268 -0.4302  0.0124
18361TIP3    H176574   3.802   1.143   0.555  0.7087  0.7385 -0.0769
18361TIP3    H276575   3.909   1.053   0.613 -0.5048 -0.1915  0.7755
18362TIP3   OH276576   1.225   2.447  15.882  0.5002 -0.0713 -0.1914
18362TIP3    H176577   1.190   2.536  15.887 -0.1238 -0.1923 -1.7430
18362TIP3    H276578   1.205   2.408  15.967 -3.1792 -0.1025 -0.8864
18363TIP3   OH276579   3.424   2.225  13.837  0.0958  0.1989  0.1249
18363TIP3    H176580   3.419   2.215  13.932  0.8928  1.1877  0.2881
18363TIP3    H276581   3.518   2.224  13.817 -0.0541  0.2496 -0.6314
18364TIP3   OH276582   1.967   6.258  13.881  0.0742 -0.3358  0.3642
18364TIP3    H176583   2.045   6.209  13.904 -0.1968 -2.0415 -2.0363
18364TIP3    H276584   1.894   6.199  13.900 -0.5348  0.4728  0.6517
18365TIP3   OH276585   6.819   0.434  15.807 -0.4496  0.0018 -0.4930
18365TIP3    H176586   6.906   0.473  15.796  0.2282 -0.7465  1.6718
18365TIP3    H276587   6.779   0.440  15.720  1.7265  0.4188 -1.5405
18366TIP3   OH276588   4.456   2.330   4.693  0.0742  0.1646  0.4833
18366TIP3    H176589   4.457   2.426   4.691 -0.8750  0.2283  1.7288
18366TIP3    H276590   4.456   2.308   4.786  0.2831 -1.0530  0.2141
18367TIP3   OH276591   1.822   0.813  14.926 -0.4161  0.9668 -0.4854
18367TIP3    H176592   1.858   0.730  14.957  0.6483  1.7424  0.4442
18367TIP3    H276593   1.728   0.807  14.946 -0.4629 -0.2121 -0.9407
18368TIP3   OH276594   5.551   3.040  15.719  0.3526  0.0370 -0.6859
18368TIP3    H176595   5.516   2.966  15.770 -0.2497  0.1256 -0.9523
18368TIP3    H276596   5.484   3.055  15.652 -0.1813  1.6839  0.1740
18369TIP3   OH276597   2.194   5.175   1.344  0.8537 -0.5960 -0.6674
18369TIP3    H176598   2.275   5.169   1.294  0.5249 -1.6429 -1.0969
18369TIP3    H276599   2.196   5.100   1.403  0.6644 -0.0606  0.0326
18370TIP3   OH276600   1.941   5.305  12.054 -0.3772  0.2442 -0.7890
18370TIP3    H176601   1.934   5.213  12.079  3.3050  0.3274  1.1208
18370TIP3    H276602   1.957   5.302  11.959 -1.9194 -0.8915 -1.0624
18371TIP3   OH276603   4.543   3.897   2.617  0.3427  0.9777 -0.1043
18371TIP3    H176604   4.596   3.976   2.628  0.8582  0.9568 -2.0593
18371TIP3    H276605   4.515   3.899   2.526 -0.2533 -0.7413 -0.0023
18372TIP3   OH276606   1.989   0.015  14.403 -0.1863  0.1966 -0.0882
18372TIP3    H176607   1.976   0.110  14.414 -2.5305  0.1132 -1.3887
18372TIP3    H276608   2.034  -0.013  14.483  0.0745  2.3146  0.5668
18373TIP3   OH276609   5.608   6.328  12.128 -0.1465 -0.3657 -0.2992
18373TIP3    H176610   5.517   6.302  12.134 -0.1603  0.0060  2.1134
18373TIP3    H276611   5.620   6.355  12.037 -1.6410 -3.1307 -1.4203
18374TIP3   OH276612   3.145   6.766   4.726  0.3012 -0.4000 -0.4427
18374TIP3    H176613   3.132   6.860   4.738 -1.1034 -0.8004  1.6924
18374TIP3    H276614   3.179   6.736   4.811 -2.4948 -2.2814  0.1350
18375TIP3   OH276615   5.504   1.452   4.390  0.1470  0.1921  0.6963
18375TIP3    H176616   5.543   1.389   4.329 -0.6223  0.2284  0.1526
18375TIP3    H276617   5.410   1.441   4.378  0.0046  1.1235  0.9413
18376TIP3   OH276618   1.722   4.837   1.246 -0.1399 -0.4148  0.2049
18376TIP3    H176619   1.649   4.888   1.212 -1.5925 -1.8786  0.9933
18376TIP3    H276620   1.784   4.832   1.173 -0.0465  2.1674  0.0293
18377TIP3   OH276621   2.660   5.245  16.434  0.3379  0.1461  0.3142
18377TIP3    H176622   2.712   5.287  16.502  0.4901  0.3002  0.1031
18377TIP3    H276623   2.681   5.293  16.354  0.3728 -0.2117  0.1054
18378TIP3   OH276624   1.300   1.991  12.541 -0.4593 -0.1850 -0.7895
18378TIP3    H176625   1.207   2.012  12.538 -0.4625 -0.1875 -0.7180
18378TIP3    H276626   1.302   1.895  12.551 -0.4301 -0.4394 -2.8872
18379TIP3   OH276627   2.402   4.418   3.011  0.4299 -0.1265 -0.6343
18379TIP3    H176628   2.403   4.492   3.072  1.9867 -0.7088  0.1208
18379TIP3    H276629   2.401   4.458   2.924  3.7273  0.9325 -0.3109
18380TIP3   OH276630   0.087   3.739  15.969 -0.2857  0.1093 -0.5578
18380TIP3    H176631   0.072   3.656  15.925  0.8201  0.0613 -0.8638
18380TIP3    H276632   0.171   3.729  16.013  0.3077  1.3607 -1.3378
18381TIP3   OH276633   4.018   4.654  15.360  0.3342  0.2244 -0.0048
18381TIP3    H176634   4.047   4.581  15.414 -1.1247 -1.9986 -1.9867
18381TIP3    H276635   4.080   4.656  15.287 -0.3908  0.0378 -0.6476
18382TIP3   OH276636   6.321   5.710   4.550  0.0283 -0.0204 -0.7045
18382TIP3    H176637   6.387   5.705   4.619  1.7866 -1.5983 -2.3688
18382TIP3    H276638   6.248   5.757   4.590  1.2428 -0.2076  1.9630
18383TIP3   OH276639   0.909   6.275   0.461  0.0548  0.0027 -0.1833
18383TIP3    H176640   0.994   6.320   0.458 -0.4387  1.0349  0.5902
18383TIP3    H276641   0.874   6.297   0.548 -1.2508  0.0679 -0.7153
18384TIP3   OH276642   3.736   4.547   3.856 -0.2770 -0.3630  0.1296
18384TIP3    H176643   3.760   4.576   3.768  1.4944 -1.2770  0.2547
18384TIP3    H276644   3.769   4.457   3.861 -0.8507 -0.5219  1.5309
18385TIP3   OH276645   2.016   3.398  12.444  0.2212  0.3187 -0.0076
18385TIP3    H176646   2.036   3.481  12.488 -0.0196  1.0737 -1.2609
18385TIP3    H276647   1.922   3.402  12.428  0.2112 -0.1976 -0.0820
18386TIP3   OH276648   6.145   4.669  12.533  0.0044  0.3192  0.2486
18386TIP3    H176649   6.237   4.674  12.509  0.1240 -1.5329  0.1928
18386TIP3    H276650   6.143   4.683  12.627  0.4540 -0.4517  0.3803
18387TIP3   OH276651   2.272   3.893   3.924  0.3375  0.2437 -0.5241
18387TIP3    H176652   2.323   3.825   3.881 -0.6961  0.6922 -2.5679
18387TIP3    H276653   2.255   3.957   3.856  0.0773  1.8740  1.0061
18388TIP3   OH276654   0.210   3.825  13.353 -0.1144 -0.1880  0.0553
18388TIP3    H176655   0.300   3.858  13.361 -0.1786  0.7108 -2.1103
18388TIP3    H276656   0.168   3.846  13.436  1.6392 -0.5821  1.0917
18389TIP3   OH276657   5.310   0.518  11.048 -0.3546 -0.3641 -0.3778
18389TIP3    H176658   5.228   0.538  11.094 -0.4314  1.5413 -1.2324
18389TIP3    H276659   5.373   0.580  11.084  1.0961 -2.5677  1.0954
18390TIP3   OH276660   4.655   0.391  14.491 -0.3769  0.1740  0.0356
18390TIP3    H176661   4.747   0.382  14.516 -0.2503  0.5281 -0.2924
18390TIP3    H276662   4.651   0.473  14.441 -0.5762 -0.5985 -1.2837
18391TIP3   OH276663   1.969   0.131   4.991  0.1057  0.6806 -0.1981
18391TIP3    H176664   2.014   0.075   5.054  0.2201  0.7479 -0.2191
18391TIP3    H276665   1.919   0.192   5.045  1.2193  1.5738 -0.1377
18392TIP3   OH276666   0.320   5.953   1.974  0.4469 -0.0918 -0.1212
18392TIP3    H176667   0.366   5.982   1.895 -0.0621  1.0866 -0.0117
18392TIP3    H276668   0.228   5.970   1.955  0.2621 -0.3955  0.4870
18393TIP3   OH276669   0.267   6.222  12.994  0.2773  0.0008  0.3208
18393TIP3    H176670   0.249   6.128  13.006 -0.5130 -0.4828 -3.4540
18393TIP3    H276671   0.181   6.263  13.002 -0.0618 -0.1858 -1.8384
18394TIP3   OH276672   1.460   3.154   5.363  0.0564  0.6468 -0.5739
18394TIP3    H176673   1.506   3.196   5.291  0.9086 -0.6176 -0.7903
18394TIP3    H276674   1.408   3.224   5.402  2.6036  2.3075  0.0761
18395TIP3   OH276675   2.880   3.872  14.790 -0.4433 -0.1440  0.1924
18395TIP3    H176676   2.813   3.882  14.722  1.6610 -0.6521 -2.1003
18395TIP3    H276677   2.930   3.954  14.786  2.0137 -1.6066 -1.6462
18396TIP3   OH276678   0.559   6.357   2.857  0.4028  0.1652 -0.8438
18396TIP3    H176679   0.576   6.329   2.767  1.5287  0.5688 -0.7798
18396TIP3    H276680   0.602   6.290   2.911  3.7027  2.1927 -0.6955
18397TIP3   OH276681   5.452   4.290  13.487  0.3268 -0.2061  0.0316
18397TIP3    H176682   5.361   4.315  13.469  0.2622 -0.8686 -0.5986
18397TIP3    H276683   5.455   4.277  13.582 -0.2831 -0.3580  0.0342
18398TIP3   OH276684   4.330   1.060  15.545  0.0076 -0.0810 -0.0928
18398TIP3    H176685   4.320   0.969  15.575  1.4803 -1.3290 -2.9652
18398TIP3    H276686   4.424   1.077  15.549  0.1280  0.1535 -2.3922
18399TIP3   OH276687   3.907   2.898   1.001  0.0234 -0.5317 -0.6394
18399TIP3    H176688   3.855   2.834   0.953  0.5732 -1.5090  0.0327
18399TIP3    H276689   3.993   2.894   0.959  0.1325 -0.4244 -0.4256
18400TIP3   OH276690   1.457   1.543  11.486 -0.2919  0.2213 -0.2118
18400TIP3    H176691   1.498   1.522  11.402 -1.8277  0.0764 -0.9511
18400TIP3    H276692   1.524   1.522  11.551  0.2423 -1.5801 -1.2787
18401TIP3   OH276693   0.748   0.388   5.759  0.5048 -0.1042  0.2089
18401TIP3    H176694   0.779   0.322   5.822 -2.3273 -0.8213  0.9963
18401TIP3    H276695   0.691   0.445   5.811  0.2452  0.9259 -1.1660
18402TIP3   OH276696   1.653   0.209  16.527 -0.0257  0.2261 -0.1050
18402TIP3    H176697   1.735   0.206  16.576  0.4592  1.3044 -0.8223
18402TIP3    H276698   1.675   0.171  16.442 -0.8273 -1.5005  0.4175
18403TIP3   OH276699   6.168   0.316   2.833 -0.1381 -0.0908 -0.4576
18403TIP3    H176700   6.122   0.272   2.762 -0.6061 -0.4277  0.0476
18403TIP3    H276701   6.111   0.307   2.909  1.0789 -1.1623  0.3744
18404TIP3   OH276702   4.308   0.402  14.461  0.2781  0.1133  0.1729
18404TIP3    H176703   4.216   0.382  14.477  0.4719 -1.4614 -0.4630
18404TIP3    H276704   4.355   0.357  14.532  0.8469 -3.4230 -2.1779
18405TIP3   OH276705   5.718   3.564   2.298 -0.7172  0.0660  0.6634
18405TIP3    H176706   5.684   3.492   2.245  0.4365 -0.0854  0.1016
18405TIP3    H276707   5.656   3.636   2.283 -0.8619 -0.2329 -0.2397
18406TIP3   OH276708   2.309   5.987   4.004 -0.7235  0.3174 -0.7358
18406TIP3    H176709   2.263   6.028   4.077 -1.0560 -1.8770  0.3776
18406TIP3    H276710   2.350   5.910   4.042  1.8333  0.8367 -2.2287
18407TIP3   OH276711   3.055   2.560  15.928  0.0692 -0.0946  0.5237
18407TIP3    H176712   3.052   2.634  15.868 -1.2022 -1.5224 -1.2668
18407TIP3    H276713   3.090   2.488  15.875  2.8780 -0.4780  2.6447
18408TIP3   OH276714   0.925   1.715  16.597 -0.7292  0.1525  0.5911
18408TIP3    H176715   0.851   1.683  16.547 -0.6405  0.2294  0.4098
18408TIP3    H276716   0.998   1.714  16.535 -0.6357  0.3130  0.6991
18409TIP3   OH276717   1.252   0.835  16.982  0.4500 -0.7385 -0.0151
18409TIP3    H176718   1.273   0.773  16.912 -1.1178 -0.3875 -0.8307
18409TIP3    H276719   1.241   0.780  17.060  2.0492 -1.1470 -0.0296
18410TIP3   OH276720   1.076   2.168  11.877  0.1965 -0.3734  0.1204
18410TIP3    H176721   1.072   2.096  11.814 -4.4532  0.0813 -0.5027
18410TIP3    H276722   1.068   2.247  11.823  1.0072  0.3661  1.0500
18411TIP3   OH276723   3.345   5.248   3.154 -0.3474  0.3157 -0.3696
18411TIP3    H176724   3.283   5.175   3.161  1.6585 -1.3687  1.5544
18411TIP3    H276725   3.407   5.220   3.087  0.5489  0.1116  0.5209
18412TIP3   OH276726   3.343   2.887   1.007  0.0576  0.2680  0.3690
18412TIP3    H176727   3.304   2.836   0.936 -0.3189  0.5920  0.3399
18412TIP3    H276728   3.437   2.891   0.986 -0.3428  2.2733 -1.3379
18413TIP3   OH276729   4.594   5.285   2.776  0.2112  0.4397 -0.1337
18413TIP3    H176730   4.666   5.339   2.810  0.8147 -0.2657 -0.2591
18413TIP3    H276731   4.628   5.250   2.693 -0.0610 -0.3391  0.0739
18414TIP3   OH276732   0.421   2.346  11.018  0.1442 -0.2994 -0.0554
18414TIP3    H176733   0.490   2.368  10.956 -1.3484  0.6196 -1.4556
18414TIP3    H276734   0.387   2.430  11.047 -2.3173 -0.6388 -1.6652
18415TIP3   OH276735   6.212   3.024  14.577 -0.1344  0.0101  0.0580
18415TIP3    H176736   6.280   3.079  14.538 -1.2829  1.3704 -0.0918
18415TIP3    H276737   6.234   3.019  14.670  1.0772 -0.9653 -0.2520
18416TIP3   OH276738   4.681   3.710   2.195  0.5148  0.3483 -0.0692
18416TIP3    H176739   4.668   3.629   2.146  0.4413  0.6465 -0.5482
18416TIP3    H276740   4.776   3.715   2.207  0.5066  0.1071  0.1127
18417TIP3   OH276741   5.545   5.170  13.278 -0.1842 -0.3612 -0.3612
18417TIP3    H176742   5.517   5.256  13.309  2.2608  0.5363 -0.4442
18417TIP3    H276743   5.528   5.112  13.352 -0.4029  0.5154  0.3012
18418TIP3   OH276744   3.482   4.789   3.164 -0.0307 -0.2633 -0.1795
18418TIP3    H176745   3.399   4.743   3.177 -0.0640  0.0325  0.7223
18418TIP3    H276746   3.511   4.811   3.252  0.4642  0.5899 -0.5449
18419TIP3   OH276747   0.467   3.434  11.946  0.1621  0.3880 -0.0528
18419TIP3    H176748   0.465   3.471  11.857  0.4036  2.4831  0.7623
18419TIP3    H276749   0.398   3.481  11.993 -0.1259 -0.8774  0.8331
18420TIP3   OH276750   0.065   6.651   0.097 -0.1814 -0.0421  0.3149
18420TIP3    H176751   0.092   6.562   0.074 -0.0123  0.0453  0.1722
18420TIP3    H276752  -0.027   6.656   0.071  0.1595  0.2508 -0.9203
18421TIP3   OH276753   5.665   0.497   3.697  0.2094  0.0108 -0.0966
18421TIP3    H176754   5.594   0.537   3.747 -1.1906 -3.8278  1.3444
18421TIP3    H276755   5.632   0.492   3.607 -1.3786 -1.5767  0.5262
18422TIP3   OH276756   5.928   5.212  14.974 -0.1925 -0.3727 -0.4662
18422TIP3    H176757   5.865   5.245  15.038  2.0437  2.2054  0.6019
18422TIP3    H276758   5.953   5.289  14.923  0.6806 -1.6981 -2.1339
18423TIP3   OH276759   3.441   5.384  11.882 -0.0147  0.0029 -0.2772
18423TIP3    H176760   3.375   5.447  11.909 -1.8195 -0.8641 -2.3436
18423TIP3    H276761   3.467   5.412  11.794 -1.5942 -2.5298 -1.6808
18424TIP3   OH276762   3.736   2.342   4.583  0.2752 -0.4123  0.4544
18424TIP3    H176763   3.768   2.431   4.593  0.2422 -0.5141  1.5455
18424TIP3    H276764   3.771   2.295   4.659  1.2816 -1.6253 -0.7034
18425TIP3   OH276765   3.991   5.528  12.426  0.0183  0.2948  0.4074
18425TIP3    H176766   3.963   5.441  12.451 -0.7350  0.2924 -0.3976
18425TIP3    H276767   3.912   5.582  12.431 -0.0481  0.4171 -1.2935
18426TIP3   OH276768   5.376   2.238   5.232 -0.1369  0.0657 -0.1185
18426TIP3    H176769   5.356   2.162   5.287  1.7297  1.0662  2.1286
18426TIP3    H276770   5.397   2.200   5.146 -1.5148 -1.7188  0.2560
18427TIP3   OH276771   5.350   1.736  15.519 -0.4016  0.0231  0.2259
18427TIP3    H176772   5.273   1.789  15.497 -1.5891 -1.5028  0.5465
18427TIP3    H276773   5.373   1.693  15.437  0.1796  0.5332  0.1138
18428TIP3   OH276774   1.923   6.290   0.086  0.0708  0.0215 -0.3996
18428TIP3    H176775   1.951   6.241   0.164  0.8218 -0.9373 -1.2526
18428TIP3    H276776   1.863   6.357   0.121  0.6427 -0.1734  1.0359
18429TIP3   OH276777   3.111   2.864   1.577  0.4767  0.3858 -0.1186
18429TIP3    H176778   3.172   2.854   1.650  0.7579  0.7456 -0.2975
18429TIP3    H276779   3.163   2.907   1.509  0.1490  0.2769 -0.4390
18430TIP3   OH276780   1.579   1.357   0.239  0.0381 -0.0808  0.2848
18430TIP3    H176781   1.519   1.347   0.313  0.7460  0.5447  0.9567
18430TIP3    H276782   1.558   1.284   0.181  0.4421 -1.4387  1.7840
18431TIP3   OH276783   6.036   5.618  15.865  0.2659  0.1478  0.1879
18431TIP3    H176784   6.104   5.592  15.927  1.9890  0.1218 -1.6126
18431TIP3    H276785   5.959   5.567  15.892  0.8881  0.2218  2.3152
18432TIP3   OH276786   6.113   5.551  14.020  0.2706  0.2214 -0.2059
18432TIP3    H176787   6.101   5.476  14.078 -0.4239  1.2572  1.0287
18432TIP3    H276788   6.176   5.606  14.065 -1.0445  1.5296  0.1012
18433TIP3   OH276789   2.300   4.406  12.154  0.0632 -0.1831 -0.1022
18433TIP3    H176790   2.266   4.492  12.130 -0.1685 -0.2879 -0.1569
18433TIP3    H276791   2.278   4.396  12.246  1.9630  0.6990  0.5023
18434TIP3   OH276792   1.878   3.579  12.902  0.0233 -0.0509 -0.0976
18434TIP3    H176793   1.785   3.598  12.906  0.2386  1.3732 -1.0613
18434TIP3    H276794   1.921   3.658  12.935  0.9077 -1.1209  1.4919
18435TIP3   OH276795   4.119   5.965   3.790  0.7745  0.1691  0.0655
18435TIP3    H176796   4.029   5.935   3.797  1.3961 -1.7337  0.3984
18435TIP3    H276797   4.127   5.996   3.699 -0.2714  0.6556  0.1284
18436TIP3   OH276798   4.816   2.939  15.737 -0.3011 -0.1642 -0.1420
18436TIP3    H176799   4.900   2.975  15.708 -0.4561 -0.2023 -0.6534
18436TIP3    H276800   4.832   2.845  15.746 -0.2401 -0.1461 -0.0660
18437TIP3   OH276801   0.301   0.662  11.128 -0.2470  0.0618 -0.2123
18437TIP3    H176802   0.299   0.589  11.190 -0.5316 -1.0681 -1.4976
18437TIP3    H276803   0.390   0.661  11.093 -0.6672 -0.6559 -1.3220
18438TIP3   OH276804   5.628   0.045   0.463  0.4455  0.8524 -0.6878
18438TIP3    H176805   5.692   0.097   0.414  1.2133  0.7944  0.2250
18438TIP3    H276806   5.584  -0.008   0.396  3.3437 -1.2563 -1.1068
18439TIP3   OH276807   4.060   3.908  16.437 -0.0224  0.6198 -0.3094
18439TIP3    H176808   4.112   3.908  16.517  0.3153 -0.2352 -0.5181
18439TIP3    H276809   4.070   3.997  16.403 -1.6500  1.5529  1.5087
18440TIP3   OH276810   5.797   0.867  13.328  0.4016 -0.4452  0.5064
18440TIP3    H176811   5.838   0.946  13.293  0.1580 -0.3563  0.4231
18440TIP3    H276812   5.706   0.872  13.300  0.5435 -1.1067 -0.1136
18441TIP3   OH276813   4.198   2.163   2.204  0.5926 -0.1167  0.0832
18441TIP3    H176814   4.233   2.145   2.291 -0.5426 -0.7503  0.4243
18441TIP3    H276815   4.271   2.205   2.158  2.0587 -2.0691  0.5033
18442TIP3   OH276816   1.918   0.717   4.182 -0.1994  0.2233 -0.2348
18442TIP3    H176817   1.839   0.764   4.154 -0.7223  0.6490  1.8149
18442TIP3    H276818   1.886   0.634   4.218  0.6335 -1.3222 -2.7741
18443TIP3   OH276819   5.788   2.123   3.471 -0.0239  0.5309 -0.0810
18443TIP3    H176820   5.701   2.097   3.439 -0.6443  1.0021  1.1408
18443TIP3    H276821   5.824   2.043   3.509  0.5358  0.0771 -1.4764
18444TIP3   OH276822   0.516   5.915  15.691  0.3294 -0.5477 -0.6180
18444TIP3    H176823   0.507   5.838  15.748  3.2551 -0.5479 -0.0132
18444TIP3    H276824   0.529   5.988  15.751  1.3056 -0.2083 -1.2166
18445TIP3   OH276825   0.150   3.632  16.693  1.0857 -0.1391  0.0782
18445TIP3    H176826   0.127   3.707  16.638  1.7342 -0.0413 -0.0732
18445TIP3    H276827   0.086   3.634  16.764  1.4799  0.9501  0.4237
18446TIP3   OH276828   2.325   4.494   1.078 -0.4585  0.4819 -0.1675
18446TIP3    H176829   2.313   4.439   1.156 -0.2663  0.9360  0.1875
18446TIP3    H276830   2.257   4.561   1.086 -2.8923 -1.5260 -2.2759
18447TIP3   OH276831   2.515   0.187  15.634  0.8310  0.0492  0.1386
18447TIP3    H176832   2.543   0.241  15.707  1.6233  0.8002 -0.6976
18447TIP3    H276833   2.587   0.193  15.571 -0.6937  1.1230 -1.5973
18448TIP3   OH276834   2.159   5.915   5.684 -0.2402 -0.6346  0.1308
18448TIP3    H176835   2.200   5.935   5.599 -0.6178  0.9629  0.2913
18448TIP3    H276836   2.198   5.977   5.745  1.4668 -3.0172  1.6213
18449TIP3   OH276837   5.872   5.834   6.242  0.3218 -0.1242 -0.1118
18449TIP3    H176838   5.924   5.755   6.223  1.5598  0.0236  2.2977
18449TIP3    H276839   5.791   5.800   6.279 -0.5896 -0.2989 -2.1406
18450TIP3   OH276840   3.997   1.858   2.159  0.4826 -0.5522  0.1197
18450TIP3    H176841   3.968   1.946   2.135  0.8015 -0.7095 -0.8900
18450TIP3    H276842   3.990   1.855   2.254 -1.9985 -0.3009  0.0049
18451TIP3   OH276843   0.083   4.126  14.016 -0.2481 -0.2456 -0.1373
18451TIP3    H176844  -0.006   4.146  14.045 -0.2366  0.2318 -0.4141
18451TIP3    H276845   0.130   4.208  14.028 -0.0560 -0.2574 -0.7794
18452TIP3   OH276846   4.010   4.513  16.279  0.2680  0.6347  0.3879
18452TIP3    H176847   4.099   4.523  16.315 -0.0329 -0.3163  1.4451
18452TIP3    H276848   3.983   4.602  16.258  1.6063  0.9091 -0.2982
18453TIP3   OH276849   1.268   5.464  16.595  0.3684  0.2953  0.0000
18453TIP3    H176850   1.221   5.388  16.629  1.1400 -0.6780 -0.9956
18453TIP3    H276851   1.333   5.484  16.662 -1.6701  1.9440  1.5987
18454TIP3   OH276852   2.628   3.817  11.579 -0.2920 -0.5474  1.3173
18454TIP3    H176853   2.670   3.872  11.645  2.3177  1.0454 -1.4415
18454TIP3    H276854   2.664   3.730  11.595  3.0266  0.4369  0.1237
18455TIP3   OH276855   3.553   0.131  14.395  0.2857 -0.3379 -0.0593
18455TIP3    H176856   3.473   0.155  14.441  0.0309  0.4970 -0.9175
18455TIP3    H276857   3.535   0.150  14.303  0.9890 -1.4373 -0.4414
18456TIP3   OH276858   4.824   1.790  12.213 -0.2741  0.1574  0.2704
18456TIP3    H176859   4.799   1.734  12.139 -0.9413 -0.8350  1.2243
18456TIP3    H276860   4.900   1.839  12.181  0.2820 -1.2311 -0.6330
18457TIP3   OH276861   3.273   6.460  11.919  0.0512 -0.5934  0.0269
18457TIP3    H176862   3.287   6.510  11.840 -0.3385 -2.6547 -1.4339
18457TIP3    H276863   3.293   6.520  11.991  1.3113  1.0387 -1.6348
18458TIP3   OH276864   4.922   6.824  14.050  0.4086 -0.1856  0.3751
18458TIP3    H176865   4.878   6.824  13.965 -1.3988 -1.3499  1.2493
18458TIP3    H276866   4.931   6.917  14.072 -1.1240  0.1203 -0.1282
18459TIP3   OH276867   5.285   5.448  15.028  0.9403 -0.5969  0.0525
18459TIP3    H176868   5.334   5.502  14.966  0.7502 -2.2228 -1.6371
18459TIP3    H276869   5.203   5.428  14.981 -0.2184 -0.0747  1.7651
18460TIP3   OH276870   1.210   0.635   5.073 -0.1450  0.4799 -0.2860
18460TIP3    H176871   1.156   0.667   5.145  0.7589  0.8697  0.2409
18460TIP3    H276872   1.188   0.542   5.066  0.0438  0.3368  0.7767
18461TIP3   OH276873   0.408   3.983  13.445  0.6182 -0.0161 -0.1306
18461TIP3    H176874   0.489   4.031  13.424  0.5946  1.0207  1.8405
18461TIP3    H276875   0.386   4.013  13.534 -1.7397 -0.5565 -0.4801
18462TIP3   OH276876   1.955   4.908  14.832 -0.1962 -0.0345 -0.3725
18462TIP3    H176877   1.930   4.889  14.923  0.1554 -0.6197 -0.3945
18462TIP3    H276878   1.873   4.933  14.789 -0.2688  0.8762  0.2566
18463TIP3   OH276879   0.929   5.893   5.509  0.3159 -0.2919  0.4622
18463TIP3    H176880   0.884   5.976   5.528 -0.6778 -0.3476 -1.4457
18463TIP3    H276881   0.863   5.826   5.528  0.9318 -0.6349  1.4508
18464TIP3   OH276882   4.230   6.740   4.706 -0.6694  0.0611 -0.4254
18464TIP3    H176883   4.204   6.758   4.616  2.2911  1.4887 -1.1371
18464TIP3    H276884   4.307   6.684   4.698 -0.5185 -0.0191  1.2559
18465TIP3   OH276885   3.296   1.830   1.117  0.0152 -0.0235  0.4866
18465TIP3    H176886   3.266   1.830   1.027  1.5957  3.1673 -0.1909
18465TIP3    H276887   3.380   1.784   1.115 -0.9155 -1.8238  0.8205
18466TIP3   OH276888   5.349   2.974  12.155 -0.4209  0.8011  0.4097
18466TIP3    H176889   5.417   2.918  12.192  0.4567  1.9486  0.5677
18466TIP3    H276890   5.361   3.058  12.198 -0.4952  1.6724 -1.2140
18467TIP3   OH276891   4.270   2.235  12.567 -0.1132 -0.2908  0.1472
18467TIP3    H176892   4.200   2.286  12.611 -1.3765 -0.2239 -1.8318
18467TIP3    H276893   4.245   2.144  12.581  0.8794 -0.3642  1.6776
18468TIP3   OH276894   2.202   0.109   1.159 -0.3322  0.5275  0.4918
18468TIP3    H176895   2.212   0.204   1.167  1.1278  0.4857 -0.4181
18468TIP3    H276896   2.176   0.095   1.068 -1.7372  0.1129  0.9393
18469TIP3   OH276897   5.044   1.127  13.627  0.2839  0.3267  0.0523
18469TIP3    H176898   5.130   1.088  13.641 -0.3863 -1.2882 -0.0891
18469TIP3    H276899   5.010   1.144  13.715 -0.4723 -1.9421  0.2816
18470TIP3   OH276900   6.447   4.427  15.258  0.3042 -0.3084 -0.1225
18470TIP3    H176901   6.410   4.349  15.218 -2.0080 -0.6317  2.3220
18470TIP3    H276902   6.514   4.395  15.318 -0.4349 -0.4493  0.6553
18471TIP3   OH276903   6.419   6.291   5.600  0.1153 -0.4755 -0.0262
18471TIP3    H176904   6.428   6.356   5.531  2.0217 -0.6250  0.0468
18471TIP3    H276905   6.337   6.314   5.643 -1.1976 -0.4189 -2.3415
18472TIP3   OH276906   3.598   3.922   1.488 -0.0142  0.2543 -0.2732
18472TIP3    H176907   3.545   3.915   1.409  0.7309  0.9301 -0.8546
18472TIP3    H276908   3.671   3.978   1.462 -0.6218  1.9027  1.3541
18473TIP3   OH276909   4.837   5.580  14.042 -0.5025 -0.2972 -0.0222
18473TIP3    H176910   4.770   5.624  13.990  0.7241 -0.6682 -2.0013
18473TIP3    H276911   4.896   5.541  13.978  0.7955 -1.2434  1.6624
18474TIP3   OH276912   1.061   1.856   0.556  0.1939 -0.0950 -0.0005
18474TIP3    H176913   1.116   1.923   0.598 -0.1910 -0.1766  0.6576
18474TIP3    H276914   0.992   1.839   0.621  1.6422 -2.9283  0.9356
18475TIP3   OH276915   4.149   4.567  16.718 -0.1495 -0.6561  0.2819
18475TIP3    H176916   4.150   4.618  16.799  0.5327  0.7810 -0.5819
18475TIP3    H276917   4.080   4.502  16.731 -1.1922  0.6142  1.3718
18476TIP3   OH276918   4.924   1.045   3.910 -0.1377  0.5590  0.3389
18476TIP3    H176919   5.004   1.004   3.877  0.2179  1.5832 -0.1055
18476TIP3    H276920   4.856   1.019   3.848 -0.3344 -0.9769  1.1605
18477TIP3   OH276921   5.993   4.360  16.743  0.2038  0.9711  0.0622
18477TIP3    H176922   6.062   4.426  16.747 -1.3429  2.7149 -0.8529
18477TIP3    H276923   5.939   4.385  16.668 -4.0052  2.3676  3.1623
18478TIP3   OH276924   2.437   1.411  16.548  0.2797 -0.0508 -0.7552
18478TIP3    H176925   2.344   1.408  16.571  0.9719 -1.2212  2.3491
18478TIP3    H276926   2.477   1.342  16.600  2.6411 -1.1146 -3.6928
18479TIP3   OH276927   1.138   6.310   0.172 -0.3930  0.1893  0.4277
18479TIP3    H176928   1.169   6.232   0.126  0.4233 -0.1128  1.4473
18479TIP3    H276929   1.186   6.382   0.132 -2.4718  0.4644 -1.7749
18480TIP3   OH276930   4.537   0.429   3.591  0.3653  0.0570  0.0802
18480TIP3    H176931   4.601   0.415   3.521  2.3628  1.7953  1.4246
18480TIP3    H276932   4.470   0.362   3.576  2.0839 -1.3567 -1.8765
18481TIP3   OH276933   2.101   1.950   5.537  0.0533 -0.0604 -0.2145
18481TIP3    H176934   2.113   1.924   5.446  0.5615 -1.0223  0.1140
18481TIP3    H276935   2.190   1.968   5.569  0.0237 -1.0741  0.4706
18482TIP3   OH276936   5.199   4.300  14.899 -0.4211 -0.2477 -0.0327
18482TIP3    H176937   5.269   4.246  14.936 -2.1448 -1.2112  2.0646
18482TIP3    H276938   5.144   4.238  14.851 -0.7667  0.1836 -0.2045
18483TIP3   OH276939   3.907   4.813   3.256  0.4586  0.3101  0.2780
18483TIP3    H176940   3.929   4.828   3.348  0.3206 -2.5139  0.8337
18483TIP3    H276941   3.963   4.741   3.229  1.7392  2.1562 -2.4385
18484TIP3   OH276942   1.740   4.445  15.508  0.7103  0.1484  0.5342
18484TIP3    H176943   1.766   4.423  15.598 -0.4751 -1.2498  0.5850
18484TIP3    H276944   1.644   4.438  15.509  0.5944  1.3116 -0.5531
18485TIP3   OH276945   3.481   2.254  12.028 -0.5176  0.0391 -0.1883
18485TIP3    H176946   3.525   2.186  11.978  0.8506  0.6413  0.1530
18485TIP3    H276947   3.513   2.336  11.991  1.1645  0.5190  2.1133
18486TIP3   OH276948   0.454   3.050   0.395  0.5510 -0.3003  0.1672
18486TIP3    H176949   0.519   3.011   0.453  1.1578  1.6150  0.8486
18486TIP3    H276950   0.444   3.140   0.427 -0.5275  0.2330 -1.5284
18487TIP3   OH276951   1.531   3.958   4.916  0.2605  0.0994 -0.4379
18487TIP3    H176952   1.512   3.864   4.921  0.4288 -0.0389 -1.9758
18487TIP3    H276953   1.601   3.965   4.851  1.7365  1.1145  1.1755
18488TIP3   OH276954   2.792   4.461   6.600  0.3006  0.0876 -0.0134
18488TIP3    H176955   2.771   4.382   6.551 -0.1981  0.8322 -1.0567
18488TIP3    H276956   2.886   4.474   6.586  0.5992 -0.8293  0.9798
18489TIP3   OH276957   4.208   4.008   4.873  0.3276 -0.0360  0.6346
18489TIP3    H176958   4.213   3.942   4.803 -0.4651 -0.1019  0.6252
18489TIP3    H276959   4.170   3.961   4.947 -1.4059  0.6711  0.2554
18490TIP3   OH276960   0.118   2.406  11.410  0.2572  0.8417 -0.2922
18490TIP3    H176961   0.211   2.399  11.391 -0.0372 -1.4512 -1.1899
18490TIP3    H276962   0.081   2.323  11.380 -2.0404  1.5893  0.2788
18491TIP3   OH276963   5.560   2.864   4.405 -0.4805  0.0626  0.4403
18491TIP3    H176964   5.562   2.782   4.455  1.2980 -0.0163  0.3062
18491TIP3    H276965   5.549   2.932   4.472 -0.8840 -0.2019  0.6504
18492TIP3   OH276966   3.414   1.460  10.601 -0.7979  0.0018  0.4727
18492TIP3    H176967   3.507   1.445  10.619 -0.4529  1.2999 -0.0959
18492TIP3    H276968   3.369   1.395  10.654  0.3561  0.4395  2.0849
18493TIP3   OH276969   6.607   4.860  11.817  0.1563  0.0397  0.3463
18493TIP3    H176970   6.535   4.841  11.757  1.0108 -1.1189 -0.3404
18493TIP3    H276971   6.645   4.942  11.784 -1.6827  1.4694  1.5535
18494TIP3   OH276972   5.730   4.997   5.251 -0.0811 -0.0806  0.0447
18494TIP3    H176973   5.697   4.944   5.324 -1.4882 -1.0926 -1.2696
18494TIP3    H276974   5.820   4.967   5.239 -0.6771 -1.8607 -0.3225
18495TIP3   OH276975   0.301   5.501   1.583  0.7743  0.5327  0.9698
18495TIP3    H176976   0.354   5.422   1.597  1.4215  1.1992  2.4792
18495TIP3    H276977   0.252   5.511   1.665 -2.4704 -0.5586 -0.6562
18496TIP3   OH276978   1.823   6.591  14.579 -0.2029  0.5002 -0.2962
18496TIP3    H176979   1.871   6.630  14.652 -0.3617  0.1412  0.0047
18496TIP3    H276980   1.766   6.661  14.546 -1.5186  0.1506  1.1290
18497TIP3   OH276981   2.642   4.125   2.796 -0.0598 -0.2401 -0.7839
18497TIP3    H176982   2.727   4.095   2.765 -0.1449 -0.0452 -1.2204
18497TIP3    H276983   2.590   4.136   2.716 -0.6773 -0.9022 -0.4854
18498TIP3   OH276984   6.021   6.541  13.209 -0.6430 -0.1649  0.1417
18498TIP3    H176985   5.936   6.586  13.209  0.5958  2.3459  1.1038
18498TIP3    H276986   6.084   6.608  13.235  1.7391 -1.8243 -0.9828
18499TIP3   OH276987   4.740   5.645   2.909 -0.1843  0.1529 -0.2439
18499TIP3    H176988   4.819   5.700   2.905 -0.0428 -0.0500 -0.2513
18499TIP3    H276989   4.762   5.576   2.971 -0.3653  0.1080 -0.2306
18500TIP3   OH276990   4.045   2.886  13.780  0.1051  0.4399 -0.0570
18500TIP3    H176991   4.091   2.856  13.859  0.9588 -1.9123 -1.3700
18500TIP3    H276992   3.956   2.906  13.810  0.9082  1.4434  1.8227
18501TIP3   OH276993   3.010   4.154   1.378 -0.0368 -0.2566 -0.0517
18501TIP3    H176994   3.080   4.159   1.443 -0.5994  0.0344  0.5422
18501TIP3    H276995   2.947   4.222   1.405 -1.0763 -1.2381  0.0567
18502TIP3   OH276996   3.490   4.127   0.849  0.4236 -0.6996 -0.1163
18502TIP3    H176997   3.412   4.174   0.819  0.7681 -0.3572 -0.5056
18502TIP3    H276998   3.520   4.080   0.771  0.6239 -0.7988  0.0213
18503TIP3   OH276999   1.319   2.601  12.932  0.2304  0.0354 -0.8104
18503TIP3    H177000   1.302   2.604  12.838  0.0989 -0.5498 -0.8090
18503TIP3    H277001   1.234   2.577  12.970  0.2422  0.4396 -0.5294
18504TIP3   OH277002   5.181   1.044   2.482  0.2684  0.5131 -0.0721
18504TIP3    H177003   5.147   1.047   2.393  0.6254  1.4498 -0.1809
18504TIP3    H277004   5.106   1.017   2.535  0.2976 -1.0389 -0.7625
18505TIP3   OH277005   5.230   4.559   3.941  0.2090  0.6716 -0.1816
18505TIP3    H177006   5.316   4.598   3.958  0.9010 -0.7379 -0.3566
18505TIP3    H277007   5.204   4.521   4.025  1.1551 -1.5274 -0.8196
18506TIP3   OH277008   3.722   4.243   5.933  0.8330  0.4070  0.2169
18506TIP3    H177009   3.696   4.183   6.004 -1.1159  1.8726  0.8086
18506TIP3    H277010   3.784   4.303   5.974 -0.0631  1.0668  0.6328
18507TIP3   OH277011   1.942   3.080  12.116  0.3619 -0.4683  0.0993
18507TIP3    H177012   1.936   3.125  12.200  0.0183 -0.0636 -0.1416
18507TIP3    H277013   2.028   3.106  12.081  0.2510 -0.1590  0.0525
18508TIP3   OH277014   2.431   3.956  15.485  0.1426 -0.5126  0.3854
18508TIP3    H177015   2.480   3.942  15.567  1.0621  0.0647 -0.0505
18508TIP3    H277016   2.435   3.872  15.440  1.1709 -0.3394  0.1341
18509TIP3   OH277017   0.352   2.600   4.829  0.4917 -0.4697 -0.2218
18509TIP3    H177018   0.264   2.612   4.863 -0.4027  0.4525 -2.6178
18509TIP3    H277019   0.349   2.516   4.783  0.5396  0.0335 -1.1639
18510TIP3   OH277020   0.594   3.706   2.745 -0.3056 -0.7137  0.0227
18510TIP3    H177021   0.568   3.646   2.676  1.7260 -0.2489 -1.2403
18510TIP3    H277022   0.513   3.747   2.774 -1.2503 -1.0684 -1.9793
18511TIP3   OH277023   6.702   0.768  10.926  0.2106  0.5579 -0.3113
18511TIP3    H177024   6.641   0.830  10.885  1.5565  0.5874 -2.4419
18511TIP3    H277025   6.744   0.818  10.996  1.6939  2.3569 -2.3491
18512TIP3   OH277026   5.724   1.012   0.072  0.2459 -0.0227 -0.2353
18512TIP3    H177027   5.807   0.995   0.117 -1.3089  0.1872  3.0264
18512TIP3    H277028   5.731   1.103   0.043  1.2675 -0.1150 -0.3456
18513TIP3   OH277029   0.305   3.842  11.371  0.6187  0.5394 -0.2295
18513TIP3    H177030   0.348   3.890  11.300  0.6766 -1.0487 -1.2952
18513TIP3    H277031   0.313   3.750  11.347  0.6236 -0.0478  1.8402
18514TIP3   OH277032   6.450   5.194  11.868 -0.9959 -0.1380  0.3673
18514TIP3    H177033   6.385   5.128  11.892  1.0694 -1.8173  1.6546
18514TIP3    H277034   6.490   5.161  11.788 -2.3311  1.4134 -1.0232
18515TIP3   OH277035   5.055   2.799   6.104  0.8008 -0.5108 -0.4200
18515TIP3    H177036   5.098   2.734   6.159 -0.9962 -0.7743  0.7374
18515TIP3    H277037   4.992   2.750   6.052  0.0482  0.1787 -0.1789
18516TIP3   OH277038   0.281   4.489  15.320 -0.0748 -0.4848 -0.1240
18516TIP3    H177039   0.187   4.475  15.328 -0.1124 -0.1133  0.1112
18516TIP3    H277040   0.307   4.528  15.403  0.0105  0.8802 -0.7674
18517TIP3   OH277041   0.462   3.002  10.985 -0.0167  0.1680  0.2533
18517TIP3    H177042   0.397   2.963  10.927 -2.2885  1.6431  1.6153
18517TIP3    H277043   0.506   3.068  10.931  0.8289 -1.2539 -0.8517
18518TIP3   OH277044   6.149   4.957  14.524  0.1457 -0.4732  0.0969
18518TIP3    H177045   6.150   4.952  14.429  0.1823 -0.0488  0.0738
18518TIP3    H277046   6.241   4.943  14.550  0.8911  2.9437 -0.1372
18519TIP3   OH277047   0.099   0.205   0.926 -0.2890 -0.6171 -0.1291
18519TIP3    H177048   0.177   0.163   0.888 -0.2786  0.1382 -0.9703
18519TIP3    H277049   0.055   0.245   0.852 -0.8335  0.0184  0.5248
18520TIP3   OH277050   1.999   0.958   0.959  0.1092 -0.5398 -0.0096
18520TIP3    H177051   2.075   0.900   0.960  0.0998 -0.5501  0.1562
18520TIP3    H277052   1.942   0.923   0.890 -0.5913 -1.6179  1.0903
18521TIP3   OH277053   2.150   6.773  17.006  0.7885  0.0820  0.2947
18521TIP3    H177054   2.165   6.681  17.028  0.0167  0.1874  1.3788
18521TIP3    H277055   2.200   6.822  17.072  0.2594  0.4260  0.4492
18522TIP3   OH277056   0.202   1.862   4.414 -0.0134 -0.5360  0.1533
18522TIP3    H177057   0.222   1.770   4.430  0.4020 -0.4321  0.2364
18522TIP3    H277058   0.231   1.878   4.324 -0.5927 -0.6250 -0.0556
18523TIP3   OH277059   6.638   3.746   1.097 -0.1900  0.2374 -0.7971
18523TIP3    H177060   6.722   3.762   1.054 -0.2352 -1.8209 -1.7873
18523TIP3    H277061   6.596   3.678   1.044 -1.5504 -0.3048  0.8683
18524TIP3   OH277062   6.487   3.463   5.995 -0.5730 -0.1917 -0.0019
18524TIP3    H177063   6.404   3.510   6.000 -0.6220 -0.3512  0.7983
18524TIP3    H277064   6.516   3.456   6.086  0.9271  0.9506 -0.3530
18525TIP3   OH277065   6.535   5.570  13.646 -0.1153 -0.3069  0.1451
18525TIP3    H177066   6.486   5.619  13.712 -1.5276 -1.8349  0.3038
18525TIP3    H277067   6.563   5.491  13.692  2.0504  0.2583 -0.1221
18526TIP3   OH277068   5.746   0.398  14.848 -0.5899  0.2363  0.3558
18526TIP3    H177069   5.676   0.353  14.800  1.4452 -1.4068 -1.3004
18526TIP3    H277070   5.730   0.491  14.833 -0.8451 -0.1715 -2.4509
18527TIP3   OH277071   3.278   5.593  11.834  0.2025  0.4454  0.4503
18527TIP3    H177072   3.195   5.635  11.858 -0.5387  0.2143 -1.4895
18527TIP3    H277073   3.307   5.641  11.756  0.2893 -1.4022 -0.7045
18528TIP3   OH277074   4.758   2.994   3.113 -0.2646  0.4310  0.1548
18528TIP3    H177075   4.755   3.046   3.193  1.1870 -0.1981  0.6720
18528TIP3    H277076   4.830   3.032   3.062  1.4585 -1.5114  0.9539
18529TIP3   OH277077   4.151   5.415  11.636  0.6045  0.4395  0.6056
18529TIP3    H177078   4.157   5.334  11.687  1.0377 -0.7191 -1.1721
18529TIP3    H277079   4.153   5.485  11.701  1.5459 -0.9375  2.1335
18530TIP3   OH277080   0.637   4.644   4.262  0.1845 -0.3838 -0.2895
18530TIP3    H177081   0.597   4.601   4.337  1.4068 -0.7574  0.1699
18530TIP3    H277082   0.594   4.605   4.186 -2.4746  1.3699  0.1733
18531TIP3   OH277083   2.036   3.966  12.577 -0.0488 -0.0738 -0.0898
18531TIP3    H177084   2.018   3.872  12.582 -1.3056  0.1286 -0.5374
18531TIP3    H277085   2.067   3.980  12.488  2.9254 -0.4807  0.7760
18532TIP3   OH277086   2.431   2.038   2.027  0.1030  0.0988  0.2694
18532TIP3    H177087   2.463   2.128   2.030  0.6509 -0.0767 -0.3014
18532TIP3    H277088   2.335   2.047   2.032  0.0731  0.7848 -1.1512
18533TIP3   OH277089   5.433   4.006  15.386  0.7626  0.3011  0.1578
18533TIP3    H177090   5.412   3.915  15.409 -1.7262  0.2733 -1.7504
18533TIP3    H277091   5.495   3.998  15.314 -1.0214 -0.0291 -1.4126
18534TIP3   OH277092   0.789   3.553  10.774  0.1771  0.7494 -0.5747
18534TIP3    H177093   0.874   3.545  10.731 -0.0698  1.4563 -1.2054
18534TIP3    H277094   0.790   3.641  10.812  1.1739 -0.4844  2.6027
18535TIP3   OH277095   3.346   5.122  14.721  0.2278 -0.2606 -0.2047
18535TIP3    H177096   3.374   5.211  14.703  0.4038 -0.1376  0.6450
18535TIP3    H277097   3.426   5.076  14.747  0.3461 -0.9739 -1.7285
18536TIP3   OH277098   4.804   3.159   5.891 -0.1196  0.0869 -0.5742
18536TIP3    H177099   4.734   3.109   5.932  0.4138 -0.8405 -0.7708
18536TIP3    H277100   4.885   3.118   5.922  0.3205  0.5222 -1.1132
18537TIP3   OH277101   1.078   4.895  17.063 -0.3549  0.0298 -0.2199
18537TIP3    H177102   1.048   4.876  17.152  2.9226 -1.0828  0.8260
18537TIP3    H277103   1.140   4.824  17.044  0.3071  1.1808 -2.7361
18538TIP3   OH277104   3.320   1.250  15.940  0.1893 -0.3075  0.3297
18538TIP3    H177105   3.381   1.292  16.000 -0.1495  0.7163 -0.0246
18538TIP3    H277106   3.360   1.260  15.853 -1.7502  2.9822 -0.3410
18539TIP3   OH277107   4.316   4.616  16.146 -0.0198  0.2475  0.0967
18539TIP3    H177108   4.347   4.707  16.152 -0.3024  0.3385  0.2230
18539TIP3    H277109   4.269   4.612  16.063  0.1334  0.1736  0.0155
18540TIP3   OH277110   6.642   6.447   2.540 -0.3826  0.2138  0.1664
18540TIP3    H177111   6.673   6.442   2.450 -0.1848 -1.1681  0.2925
18540TIP3    H277112   6.554   6.486   2.533 -0.6525 -0.5303 -0.6965
18541TIP3   OH277113   3.848   6.734   4.569 -0.1535 -0.5645  0.1492
18541TIP3    H177114   3.788   6.792   4.521  2.7984  2.2868 -0.5019
18541TIP3    H277115   3.868   6.664   4.507 -1.4768 -0.6343 -0.2246
18542TIP3   OH277116   3.610   4.721  11.434  0.7239  0.2538 -0.0931
18542TIP3    H177117   3.578   4.788  11.495  0.3548 -0.3586  0.3939
18542TIP3    H277118   3.705   4.723  11.444  0.7266  0.7755 -0.1631
18543TIP3   OH277119   4.423   4.211  10.904  0.2041 -0.0020  0.3190
18543TIP3    H177120   4.404   4.205  10.810  0.6872 -1.7149  0.3180
18543TIP3    H277121   4.357   4.273  10.937  0.4491  1.1477 -1.2384
18544TIP3   OH277122   6.359   2.228   5.058 -0.3578  0.7082 -0.2978
18544TIP3    H177123   6.345   2.322   5.050 -1.2600  0.6825  0.7188
18544TIP3    H277124   6.453   2.220   5.077  0.1787  1.2295 -2.4248
18545TIP3   OH277125   6.146   4.623   4.321  0.4428  0.1448 -0.5249
18545TIP3    H177126   6.103   4.699   4.360  0.5245 -0.3949  0.6873
18545TIP3    H277127   6.199   4.587   4.392  0.8495 -0.7066 -1.2421
18546TIP3   OH277128   0.540   0.937  14.481  0.1794 -0.8238  0.0435
18546TIP3    H177129   0.474   0.884  14.438 -1.1960  1.2305 -0.5087
18546TIP3    H277130   0.586   0.982  14.410  1.5390 -1.4797  0.4731
18547TIP3   OH277131   3.217   6.460  14.475  0.0077  0.2632  0.3072
18547TIP3    H177132   3.209   6.372  14.510 -0.4818  0.4596  0.7114
18547TIP3    H277133   3.270   6.451  14.396  0.2720 -0.3342  0.5509
18548TIP3   OH277134   3.339   2.308  14.084  0.2074  0.4890  0.0837
18548TIP3    H177135   3.365   2.373  14.019 -0.1491 -0.6588 -1.2504
18548TIP3    H277136   3.268   2.350  14.132  0.0956  1.1501 -0.6340
18549TIP3   OH277137   0.770   6.368   0.226 -0.6809  0.9331 -0.1552
18549TIP3    H177138   0.753   6.286   0.181  0.6977  0.2456  0.5356
18549TIP3    H277139   0.838   6.347   0.290 -0.6982  2.4868  0.4116
18550TIP3   OH277140   0.861   3.507  13.619 -0.2497  0.0738  0.3007
18550TIP3    H177141   0.868   3.473  13.708  4.1482  1.3352  0.6916
18550TIP3    H277142   0.804   3.584  13.626  1.0048  0.8863  2.3871
18551TIP3   OH277143   2.716   4.608   0.345 -0.6853 -0.4758  0.0955
18551TIP3    H177144   2.770   4.580   0.419 -0.2650  0.3667  0.1205
18551TIP3    H277145   2.762   4.684   0.310 -2.7669  1.3810  1.2045
18552TIP3   OH277146   1.405   5.140   5.172  0.3978 -0.5130 -0.7209
18552TIP3    H177147   1.396   5.161   5.265  1.6194 -0.5910 -0.5692
18552TIP3    H277148   1.317   5.153   5.136  0.3347  1.5777  0.0196
18553TIP3   OH277149   1.814   1.216  14.479 -0.0886 -0.3709 -0.2885
18553TIP3    H177150   1.890   1.219  14.537 -0.5070 -0.3878  0.2603
18553TIP3    H277151   1.748   1.270  14.521 -0.3855 -0.3489 -0.7688
18554TIP3   OH277152   1.611   5.396   5.840  0.3877 -0.2773  0.2270
18554TIP3    H177153   1.572   5.323   5.793 -0.4637  0.5174 -0.3240
18554TIP3    H277154   1.572   5.474   5.801  2.3130  0.5591 -0.1551
18555TIP3   OH277155   4.377   1.891  11.571  0.0898  0.3783 -0.4215
18555TIP3    H177156   4.354   1.862  11.483  1.0702  1.4730 -1.0545
18555TIP3    H277157   4.466   1.923  11.564  0.5690 -0.4761  1.2163
18556TIP3   OH277158   1.944   4.745   4.765  0.2997  0.3681 -0.2829
18556TIP3    H177159   1.851   4.721   4.756  0.3694  0.4060 -1.2549
18556TIP3    H277160   1.948   4.834   4.730  0.4434  0.9562  1.1844
18557TIP3   OH277161   6.492   1.981   0.520 -0.6097  0.4156  0.0962
18557TIP3    H177162   6.422   1.940   0.571 -0.7101  0.3022 -0.1322
18557TIP3    H277163   6.458   2.068   0.499 -0.3339  0.6792  0.7123
18558TIP3   OH277164   2.010   4.703  11.263 -0.2827  0.3760 -0.3735
18558TIP3    H177165   1.994   4.662  11.177  2.1352  1.6662 -1.5444
18558TIP3    H277166   1.978   4.639  11.326  0.4168 -1.8911 -2.1850
18559TIP3   OH277167   1.110   5.846   0.341 -0.0462  0.2161 -0.1838
18559TIP3    H177168   1.180   5.912   0.344 -0.8943  1.1145  0.7560
18559TIP3    H277169   1.156   5.762   0.349  1.0282  0.6943 -0.9883
18560TIP3   OH277170   3.869   4.526  13.728 -0.6156  0.4796  0.4880
18560TIP3    H177171   3.795   4.502  13.783 -0.7650  0.4068  0.2582
18560TIP3    H277172   3.830   4.552  13.645 -0.4238  1.0611  0.5757
18561TIP3   OH277173   3.748   3.702  11.338  0.6668 -0.5031  0.1639
18561TIP3    H177174   3.790   3.622  11.369 -0.1999 -0.7881  0.6445
18561TIP3    H277175   3.673   3.672  11.287 -0.1080 -0.0168  0.9782
18562TIP3   OH277176   6.694   4.387  16.840  0.2436  0.4987 -0.0960
18562TIP3    H177177   6.656   4.466  16.801 -1.5198  0.8393  2.0854
18562TIP3    H277178   6.618   4.334  16.865  1.3424 -0.7117  0.7767
18563TIP3   OH277179   0.315   3.147   4.782  0.0286 -0.2365  0.4960
18563TIP3    H177180   0.245   3.087   4.811  0.0431  0.3053  1.6904
18563TIP3    H277181   0.346   3.109   4.700 -1.0140 -1.0218  0.4431
18564TIP3   OH277182   4.005   1.597  13.468  0.0169  0.3170  0.1796
18564TIP3    H177183   3.921   1.589  13.423  0.7696 -0.6109 -1.1418
18564TIP3    H277184   3.987   1.573  13.559 -1.1105 -0.0210 -0.1303
18565TIP3   OH277185   2.808   0.918  14.004  0.4576  0.1545  0.1006
18565TIP3    H177186   2.889   0.868  13.997  0.6615  0.1768  1.8356
18565TIP3    H277187   2.836   1.009  14.014  0.1842  0.2525 -0.0021
18566TIP3   OH277188   5.023   5.935   1.865 -0.5928 -0.2341 -0.2381
18566TIP3    H177189   4.982   6.019   1.888 -1.5723  0.6263 -4.2829
18566TIP3    H277190   5.027   5.887   1.948 -3.1953  2.4416  1.6688
18567TIP3   OH277191   2.312   3.587  13.725  0.1272 -0.0402  0.2501
18567TIP3    H177192   2.302   3.496  13.753 -0.9506  0.5266  1.8203
18567TIP3    H277193   2.236   3.603  13.669  0.1306  0.0062  0.2586
18568TIP3   OH277194   6.711   5.435  16.602 -0.1060  0.2232  0.2420
18568TIP3    H177195   6.628   5.481  16.613 -1.0532 -1.3877  0.1765
18568TIP3    H277196   6.697   5.376  16.528  1.4790  0.7067 -0.4883
18569TIP3   OH277197   5.695   3.599  16.561  0.2425 -0.0752 -0.4503
18569TIP3    H177198   5.690   3.553  16.477 -0.7160 -1.8629  0.5226
18569TIP3    H277199   5.649   3.681  16.546  0.5480 -0.1303 -1.8214
18570TIP3   OH277200   3.838   4.387  15.382 -0.1024  0.1653  0.1315
18570TIP3    H177201   3.824   4.426  15.468 -1.9554 -0.4258  0.1458
18570TIP3    H277202   3.809   4.453  15.319 -3.9722 -1.2281  0.1720
18571TIP3   OH277203   3.350   3.669  11.298 -0.2793  0.1614 -0.6465
18571TIP3    H177204   3.298   3.593  11.325  2.1342 -1.3999 -0.0385
18571TIP3    H277205   3.404   3.635  11.226  1.0595  1.2006 -0.1667
18572TIP3   OH277206   2.795   3.659  11.328 -0.3326 -0.0645 -0.5671
18572TIP3    H177207   2.847   3.592  11.372  0.1562  0.6014 -0.1304
18572TIP3    H277208   2.824   3.742  11.366 -1.5435  0.3372 -0.4857
18573TIP3   OH277209   2.775   1.884   3.778  1.1368  0.3996 -0.3172
18573TIP3    H177210   2.821   1.923   3.853  1.0535  0.1532 -0.1354
18573TIP3    H277211   2.790   1.945   3.706  1.1359  0.6906 -0.0747
18574TIP3   OH277212   1.430   0.506   2.539 -0.5867 -0.2996  0.6575
18574TIP3    H177213   1.387   0.591   2.537  0.6694  0.3751  1.1112
18574TIP3    H277214   1.524   0.526   2.539 -0.2397 -1.7244 -0.5163
18575TIP3   OH277215   3.922   6.394  13.754 -0.9031 -0.3164 -0.1903
18575TIP3    H177216   3.929   6.487  13.778  0.9207 -0.3908 -0.3191
18575TIP3    H277217   3.951   6.390  13.663  1.3751 -1.2879  0.5044
18576TIP3   OH277218   1.916   6.113   0.310  0.2130 -0.1671  0.4736
18576TIP3    H177219   1.910   6.124   0.405 -1.1992  1.5758  0.2248
18576TIP3    H277220   1.829   6.085   0.283  0.3324  0.2793 -0.4120
18577TIP3   OH277221   2.264   1.084  12.811 -0.0773 -0.0646 -1.0211
18577TIP3    H177222   2.206   1.091  12.735 -0.5886  1.6335 -0.5241
18577TIP3    H277223   2.343   1.130  12.786 -0.9092  2.0590  0.0216
18578TIP3   OH277224   6.056   4.720   4.047 -0.0377 -0.2003 -0.3803
18578TIP3    H177225   6.004   4.641   4.031 -0.2202 -0.3938  1.0531
18578TIP3    H277226   6.119   4.694   4.115  1.0631  0.4104 -1.1313
18579TIP3   OH277227   4.187   2.462  14.129 -0.0080 -0.1227 -0.2569
18579TIP3    H177228   4.151   2.414  14.204  2.4798  1.0836  1.8991
18579TIP3    H277229   4.251   2.402  14.091 -0.9314 -0.5591 -1.1387
18580TIP3   OH277230   4.029   0.881  14.387  0.0396 -0.0442  0.0868
18580TIP3    H177231   4.012   0.901  14.294  0.0154  0.9760  0.3019
18580TIP3    H277232   4.111   0.832  14.386  0.0948  0.0477 -0.4670
18581TIP3   OH277233   6.596   1.098   6.153  0.1431 -0.6292 -0.1369
18581TIP3    H177234   6.691   1.115   6.155  0.1193 -0.3575 -0.8455
18581TIP3    H277235   6.558   1.178   6.116 -0.2895 -0.9920 -0.5018
18582TIP3   OH277236   6.322   0.653  16.915  0.1173  0.3809  0.1634
18582TIP3    H177237   6.418   0.656  16.911  0.1314  2.4323  0.9307
18582TIP3    H277238   6.293   0.714  16.848 -0.6545  0.1910  0.3175
18583TIP3   OH277239   2.287   1.559  12.250  0.1041 -0.2642  0.2884
18583TIP3    H177240   2.276   1.598  12.163 -2.2627  0.6077  0.9218
18583TIP3    H277241   2.273   1.631  12.311 -0.4168 -1.3059  1.4388
18584TIP3   OH277242   0.265   4.591   4.096 -0.4452 -0.2249  0.8952
18584TIP3    H177243   0.333   4.589   4.029 -0.6809 -1.5064  0.6635
18584TIP3    H277244   0.297   4.653   4.161  0.7206 -0.4294  0.5414
18585TIP3   OH277245   2.286   3.077  12.315 -0.1792 -0.0711  0.4278
18585TIP3    H177246   2.206   3.093  12.366  0.9399 -0.7858  2.5467
18585TIP3    H277247   2.333   3.010  12.365  1.4478 -0.1355 -1.0965
18586TIP3   OH277248   4.287   5.824   6.126  0.2962  0.0802 -0.5460
18586TIP3    H177249   4.195   5.838   6.104  0.2041  0.0155 -0.2078
18586TIP3    H277250   4.293   5.732   6.150 -0.0022  0.5800  1.5737
18587TIP3   OH277251   0.084   4.494  15.864 -0.0238 -0.4671  0.3823
18587TIP3    H177252   0.082   4.520  15.772 -1.6559  0.4362  0.6176
18587TIP3    H277253   0.142   4.419  15.867 -1.0593 -1.4375 -1.6447
18588TIP3   OH277254   0.740   2.232  14.248 -0.0588 -0.6825  0.5773
18588TIP3    H177255   0.706   2.264  14.165  1.6520 -1.2936 -0.4066
18588TIP3    H277256   0.663   2.219  14.303 -1.3928 -2.0735 -1.5403
18589TIP3   OH277257   2.507   3.419  17.065  0.2779  0.0175 -0.2101
18589TIP3    H177258   2.506   3.356  17.137  0.1157 -0.4048 -0.5773
18589TIP3    H277259   2.589   3.467  17.076  0.9420 -0.9984 -0.5590
18590TIP3   OH277260   5.737   5.402   0.608  0.0982  0.8456  0.4585
18590TIP3    H177261   5.645   5.408   0.630 -0.2266 -0.8560 -0.2485
18590TIP3    H277262   5.765   5.493   0.595 -1.7055  1.3469 -0.2269
18591TIP3   OH277263   0.632   0.552  16.771 -0.2315 -0.5058 -0.4003
18591TIP3    H177264   0.612   0.496  16.846 -1.3977  1.2404  0.6575
18591TIP3    H277265   0.708   0.603  16.798 -0.1625 -0.4242 -0.7355
18592TIP3   OH277266   0.017   0.273   3.798 -0.0190 -0.1330 -0.1619
18592TIP3    H177267   0.057   0.187   3.784  0.5319  0.3491 -1.7735
18592TIP3    H277268   0.060   0.306   3.877  0.9683 -0.6768 -0.4474
18593TIP3   OH277269   4.203   0.999  10.198  0.1930  0.3819 -0.4161
18593TIP3    H177270   4.195   0.927  10.137 -0.4225 -0.4269  0.5895
18593TIP3    H277271   4.130   0.988  10.259  1.0899  0.8381  0.7901
18594TIP3   OH277272   0.714   1.409   1.050  0.4654 -0.1408  0.7205
18594TIP3    H177273   0.789   1.349   1.053  1.9384  1.3879 -1.7526
18594TIP3    H277274   0.752   1.493   1.024 -1.9310  1.1118  1.0003
18595TIP3   OH277275   0.433   1.635  11.099  0.4932  0.0622  0.4114
18595TIP3    H177276   0.504   1.700  11.100  1.1051 -0.5962  0.4391
18595TIP3    H277277   0.414   1.618  11.191 -0.4867  1.0642  0.4150
18596TIP3   OH277278   2.391   3.510  13.065  0.0230  0.5800  0.5617
18596TIP3    H177279   2.382   3.444  13.134  0.1196 -1.4620 -1.2666
18596TIP3    H277280   2.320   3.491  13.004 -0.3531  2.6430  0.3042
18597TIP3   OH277281   2.011   6.099   5.438  0.3161  0.0552 -0.2107
18597TIP3    H177282   1.922   6.078   5.410 -0.1076  0.3803  0.8508
18597TIP3    H277283   2.054   6.014   5.448  0.2840 -0.0886 -1.1705
18598TIP3   OH277284   5.961   4.264  14.620  0.1909  0.1795  0.1082
18598TIP3    H177285   5.951   4.173  14.592 -1.0525  0.3331 -0.0421
18598TIP3    H277286   6.055   4.281  14.616  0.3480 -0.7845 -0.8712
18599TIP3   OH277287   1.848   0.576  13.114 -0.1888 -1.0413 -0.4493
18599TIP3    H177288   1.886   0.562  13.200 -1.9329  3.0954  1.2686
18599TIP3    H277289   1.918   0.619  13.063 -0.7415  1.9244  1.0387
18600TIP3   OH277290   2.645   2.462   5.625  0.0018 -0.0917  0.1628
18600TIP3    H177291   2.732   2.457   5.667  1.0044  0.7130 -1.6957
18600TIP3    H277292   2.654   2.413   5.544 -0.6630  1.6166 -0.9988
18601TIP3   OH277293   2.698   4.643   6.354 -0.2059  0.4313 -0.8405
18601TIP3    H177294   2.719   4.647   6.448 -0.0168  1.5980 -0.9109
18601TIP3    H277295   2.617   4.694   6.346 -1.4483 -1.4697 -1.0214
18602TIP3   OH277296   4.420   4.615   1.955  0.2260  0.3811 -0.1821
18602TIP3    H177297   4.341   4.563   1.946 -0.3928  1.1727  0.5087
18602TIP3    H277298   4.391   4.697   1.996  1.3611  0.7707 -0.1047
18603TIP3   OH277299   3.965   1.388  13.115  0.4905  0.1445  0.2115
18603TIP3    H177300   3.927   1.332  13.047  1.1590 -1.2243  0.9302
18603TIP3    H277301   4.060   1.379  13.103  0.6397  1.8576 -0.2250
18604TIP3   OH277302   5.002   5.508  11.015  0.3872 -0.2169  0.2119
18604TIP3    H177303   5.000   5.461  10.932 -0.4230  0.1253  0.0213
18604TIP3    H277304   5.088   5.550  11.018  0.1284  0.4146 -0.8381
18605TIP3   OH277305   3.168   2.250   5.053 -0.6367 -0.1500 -0.5892
18605TIP3    H177306   3.119   2.319   5.099 -0.3290  0.5723 -1.3287
18605TIP3    H277307   3.112   2.224   4.980 -1.6455 -2.1198  0.7947
18606TIP3   OH277308   2.080   5.116   2.072 -0.6477  0.6139 -0.2663
18606TIP3    H177309   2.083   5.192   2.015  1.0603  0.6444 -0.1862
18606TIP3    H277310   2.104   5.042   2.016  0.5116  0.5688  0.2439
18607TIP3   OH277311   4.397   2.759   3.352  0.0107 -0.0653 -0.4898
18607TIP3    H177312   4.452   2.801   3.287  0.3976 -0.5081 -0.4531
18607TIP3    H277313   4.361   2.831   3.404 -0.5965  0.3215 -1.4105
18608TIP3   OH277314   3.502   2.564   2.991  0.3805 -0.1861 -0.0777
18608TIP3    H177315   3.463   2.638   2.944  1.0729  0.3688  0.1944
18608TIP3    H277316   3.563   2.525   2.928 -0.4727 -0.9541 -0.4494
18609TIP3   OH277317   6.184   3.184   1.460  0.4376  0.5264 -0.0407
18609TIP3    H177318   6.242   3.131   1.516 -0.4012 -1.1556 -0.6729
18609TIP3    H277319   6.221   3.175   1.372 -0.3621  0.0151 -0.3379
18610TIP3   OH277320   0.032   1.492  14.770  0.4708  0.5626 -0.2482
18610TIP3    H177321  -0.037   1.475  14.834 -0.3344  0.1010 -1.2151
18610TIP3    H277322   0.113   1.477  14.818 -0.1309 -1.9182  0.1213
18611TIP3   OH277323   5.185   2.124  11.599 -0.3498  0.2352  0.2616
18611TIP3    H177324   5.262   2.163  11.639 -0.2073  1.7493 -1.3885
18611TIP3    H277325   5.114   2.184  11.620 -0.9186 -0.6454  0.9333
18612TIP3   OH277326   2.767   6.657  12.828 -0.0538  0.3196  0.0956
18612TIP3    H177327   2.739   6.630  12.741 -1.2892  0.2982  0.4817
18612TIP3    H277328   2.832   6.725  12.812 -0.7629  0.8030 -0.8501
18613TIP3   OH277329   4.666   2.388   4.037  0.2386 -0.0640  0.0731
18613TIP3    H177330   4.759   2.384   4.014  0.2092 -0.0021 -0.0561
18613TIP3    H277331   4.635   2.299   4.027  0.3989 -0.1844  0.5947
18614TIP3   OH277332   0.226   5.472   3.653  0.4386 -0.1568 -0.4339
18614TIP3    H177333   0.251   5.536   3.586  1.7333 -0.1592  0.0331
18614TIP3    H277334   0.308   5.447   3.694  0.0313 -2.4827 -0.9148
18615TIP3   OH277335   1.762   3.129  14.309  1.0029 -0.0806 -0.6677
18615TIP3    H177336   1.798   3.071  14.242  1.0012  0.3238 -1.0224
18615TIP3    H277337   1.818   3.207  14.306  3.3272 -1.4519  2.3018
18616TIP3   OH277338   3.418   6.424   3.186 -0.2108  0.0800  0.3857
18616TIP3    H177339   3.367   6.447   3.109  0.2690 -0.5547 -0.1333
18616TIP3    H277340   3.405   6.330   3.196  1.5531 -0.2748 -0.2966
18617TIP3   OH277341   6.497   4.503  11.935 -0.8217  0.1172  0.1277
18617TIP3    H177342   6.469   4.513  12.026  0.8523  0.9662  0.5988
18617TIP3    H277343   6.422   4.464  11.890 -1.1427 -1.7741  2.1725
18618TIP3   OH277344   4.602   6.632   0.542 -0.0387  0.1466  0.0830
18618TIP3    H177345   4.630   6.546   0.511 -0.0819  0.1625  0.0028
18618TIP3    H277346   4.673   6.660   0.600  0.6647  0.7033 -1.0299
18619TIP3   OH277347   1.112   3.042   0.336 -0.2185 -0.0174  0.0345
18619TIP3    H177348   1.109   2.969   0.274 -1.0517  0.5709 -0.6531
18619TIP3    H277349   1.148   3.004   0.416 -0.6553 -1.1879 -0.2933
18620TIP3   OH277350   2.820   5.318   1.504 -0.2893 -0.0115 -0.0205
18620TIP3    H177351   2.727   5.329   1.485  0.2668  0.9583 -2.5510
18620TIP3    H277352   2.858   5.404   1.487  0.9929 -0.1864  1.7256
18621TIP3   OH277353   6.302   0.506   2.969  0.3319  0.0889 -0.0859
18621TIP3    H177354   6.239   0.464   2.911 -2.1400  4.8707 -1.3992
18621TIP3    H277355   6.374   0.532   2.910 -1.5781  3.7907 -1.0709
18622TIP3   OH277356   3.747   0.244  11.843  0.5302  0.9056  0.1605
18622TIP3    H177357   3.679   0.267  11.906  0.7568 -0.2927  0.8839
18622TIP3    H277358   3.828   0.245  11.894  0.3578 -3.7232  1.0327
18623TIP3   OH277359   0.980   6.445  16.590  0.3591  0.2626 -0.6028
18623TIP3    H177360   1.032   6.499  16.530  0.3169  1.9925  0.8093
18623TIP3    H277361   0.892   6.481  16.584  0.0178 -0.5723 -0.6494
18624TIP3   OH277362   5.023   4.230  13.280 -0.0378 -0.5671  0.1388
18624TIP3    H177363   5.034   4.171  13.355  0.5599 -0.9797 -0.2697
18624TIP3    H277364   4.952   4.289  13.307  0.2933 -0.5906  1.1029
18625TIP3   OH277365   0.187   1.498   1.599 -0.3769 -0.1521 -0.0261
18625TIP3    H177366   0.233   1.422   1.634 -0.8414 -1.0157 -1.1960
18625TIP3    H277367   0.165   1.473   1.509 -0.0857  1.5764 -0.6123
18626TIP3   OH277368   6.429   6.830   3.467 -0.6766  0.8428 -0.1833
18626TIP3    H177369   6.464   6.794   3.386  1.0635 -0.6256  1.1566
18626TIP3    H277370   6.477   6.912   3.479  0.7375 -0.0441  0.4714
18627TIP3   OH277371   6.701   1.821   6.658  0.3509  0.4350  0.0487
18627TIP3    H177372   6.700   1.912   6.630  2.4399 -0.0425 -1.9838
18627TIP3    H277373   6.776   1.783   6.612  1.2654 -1.6655  2.9573
18628TIP3   OH277374   5.898   4.668  15.937 -0.0901 -0.2687  0.5759
18628TIP3    H177375   5.929   4.589  15.981  0.0975  0.4042  1.6835
18628TIP3    H277376   5.900   4.736  16.004 -0.1738  0.7059 -0.3712
18629TIP3   OH277377   3.427   5.760  13.515 -0.2991  0.1859  0.0332
18629TIP3    H177378   3.443   5.672  13.547 -1.0310  0.0636  0.0710
18629TIP3    H277379   3.332   5.771  13.520 -0.3783  0.4142 -1.4322
18630TIP3   OH277380   3.915   1.113  15.204 -0.3713  0.3333  0.1629
18630TIP3    H177381   3.953   1.123  15.116 -3.4693 -0.1230 -1.3691
18630TIP3    H277382   3.874   1.198  15.222  0.1834  0.4010  1.1626
18631TIP3   OH277383   2.002   3.944   0.522 -0.0364 -0.3270 -0.3836
18631TIP3    H177384   2.030   3.903   0.604  0.4095 -0.1467 -0.4446
18631TIP3    H277385   1.982   4.034   0.546  0.6068 -0.1310 -0.5721
18632TIP3   OH277386   2.772   3.998   3.992 -1.3661  0.3954  0.3505
18632TIP3    H177387   2.790   3.925   4.051  1.7973  0.2468 -0.6000
18632TIP3    H277388   2.810   4.074   4.036 -0.4151  0.5751 -0.7412
18633TIP3   OH277389   2.287   1.190  13.177 -0.5346  0.5279 -0.1794
18633TIP3    H177390   2.258   1.244  13.104  1.1392 -0.2517 -1.4776
18633TIP3    H277391   2.351   1.130  13.139  1.3525  0.9241  2.1417
18634TIP3   OH277392   5.989   2.915  15.131 -0.3150 -0.1595 -0.4231
18634TIP3    H177393   5.944   2.996  15.108 -1.1643 -0.1556  1.0931
18634TIP3    H277394   6.063   2.943  15.186 -0.4978 -0.3910 -0.0537
18635TIP3   OH277395   1.672   6.556  14.318  0.0555 -0.3757 -0.1112
18635TIP3    H177396   1.710   6.469  14.319  1.0645  0.0554  0.1224
18635TIP3    H277397   1.734   6.609  14.268  1.3204  0.9914  2.6742
18636TIP3   OH277398   1.232   1.516  15.709  0.1814  0.1064 -1.0012
18636TIP3    H177399   1.275   1.433  15.734  0.0520  0.8477  2.1234
18636TIP3    H277400   1.304   1.573  15.684  0.2295 -1.0347 -3.8667
18637TIP3   OH277401   0.007   3.040  13.615  0.3237  0.4366 -0.1329
18637TIP3    H177402   0.045   3.058  13.529  1.4461 -2.0331 -0.2489
18637TIP3    H277403   0.039   3.110  13.671  3.4154 -0.3380 -0.7299
18638TIP3   OH277404   4.646   5.445   4.684 -0.3203  0.3099 -0.2785
18638TIP3    H177405   4.554   5.426   4.701 -1.0345  1.4234 -2.5249
18638TIP3    H277406   4.647   5.487   4.598  2.0095  2.4506  0.6414
18639TIP3   OH277407   6.127   6.223   4.079 -0.6746  0.1178  0.2020
18639TIP3    H177408   6.137   6.305   4.127  1.5012  0.2513 -0.3733
18639TIP3    H277409   6.078   6.248   4.001 -0.0823  0.9006  0.0541
18640TIP3   OH277410   3.360   6.264   6.881  0.0859 -0.4785 -0.6739
18640TIP3    H177411   3.408   6.281   6.800  1.1454 -2.9677 -0.6626
18640TIP3    H277412   3.273   6.300   6.865  1.6671  3.8615 -0.8366
18641TIP3   OH277413   5.446   0.097   4.058 -0.1404 -0.1546  0.3576
18641TIP3    H177414   5.521   0.073   4.112  0.0389  0.3879  0.3608
18641TIP3    H277415   5.477   0.169   4.004 -0.7500  0.3078  0.6040
18642TIP3   OH277416   1.607   4.869  15.811  0.4420  0.4430 -0.6544
18642TIP3    H177417   1.573   4.912  15.889  1.0417 -0.5974  0.2157
18642TIP3    H277418   1.657   4.937  15.766 -0.7067  1.3137 -0.6580
18643TIP3   OH277419   0.904   6.701  15.559  0.2863  0.1739  0.3458
18643TIP3    H177420   0.970   6.711  15.627 -0.3273  0.2687  0.9399
18643TIP3    H277421   0.822   6.727  15.601  0.3416  3.8298 -1.3611
18644TIP3   OH277422   3.889   1.434   4.818  0.2080  0.3785 -0.4085
18644TIP3    H177423   3.801   1.448   4.853  0.4167  1.7550 -0.3760
18644TIP3    H277424   3.944   1.421   4.896 -0.2927 -2.8221 -0.4987
18645TIP3   OH277425   5.195   5.884   5.689 -0.5890  0.1369 -0.2027
18645TIP3    H177426   5.170   5.971   5.719  0.1213 -0.1548  1.3069
18645TIP3    H277427   5.118   5.830   5.706 -1.2489  0.5472 -1.6864
18646TIP3   OH277428   2.825   6.076  15.385 -0.2691 -0.5035 -0.0671
18646TIP3    H177429   2.918   6.096  15.397 -0.3196 -1.1503  1.5955
18646TIP3    H277430   2.782   6.112  15.462 -1.4362 -0.1495 -0.8494
18647TIP3   OH277431   0.773   0.271  11.523  0.4697  0.6383 -0.1084
18647TIP3    H177432   0.752   0.342  11.462  0.8418 -0.5295 -1.6817
18647TIP3    H277433   0.781   0.193  11.467  2.2266 -0.2455  1.2506
18648TIP3   OH277434   2.025   3.937  13.315 -0.2060 -0.1593  0.2984
18648TIP3    H177435   1.934   3.949  13.290 -0.5456 -1.7296  0.6928
18648TIP3    H277436   2.024   3.867  13.379  1.2765 -0.1267  0.4077
18649TIP3   OH277437   0.059   2.567  13.259 -0.0442 -0.1175  0.4221
18649TIP3    H177438   0.029   2.587  13.171 -1.6887 -2.3965  0.3554
18649TIP3    H277439   0.005   2.622  13.316  1.6292  2.0212  0.0672
18650TIP3   OH277440   2.850   3.956   1.303 -0.7003  0.1874  0.1170
18650TIP3    H177441   2.874   3.926   1.390  0.7533 -2.2536 -1.0215
18650TIP3    H277442   2.897   4.039   1.291  1.0818 -0.6852  0.7781
18651TIP3   OH277443   4.854   3.871   3.012 -0.3026 -0.7046  0.0960
18651TIP3    H177444   4.882   3.931   2.943 -1.6152  0.5241  0.5940
18651TIP3    H277445   4.832   3.790   2.965  2.1946 -1.1479 -0.5043
18652TIP3   OH277446   5.996   0.053   5.097 -0.0854 -0.4107  0.1579
18652TIP3    H177447   6.014   0.146   5.107  0.0608 -0.3680 -0.5000
18652TIP3    H277448   6.082   0.012   5.091 -0.1564 -0.4987 -0.3297
18653TIP3   OH277449   2.425   5.000   5.481  0.3011  0.2376 -0.1954
18653TIP3    H177450   2.481   5.053   5.425 -0.4822 -0.6159 -1.8726
18653TIP3    H277451   2.360   5.061   5.515  0.1581  0.5978 -1.0910
18654TIP3   OH277452   6.188   0.871  15.524 -0.9774 -0.2680  0.3868
18654TIP3    H177453   6.098   0.872  15.557 -1.0967  2.2069  0.2131
18654TIP3    H277454   6.242   0.870  15.603 -1.2074  0.7369  0.5709
18655TIP3   OH277455   4.944   5.927   2.717 -0.1458  0.0546 -0.1716
18655TIP3    H177456   4.929   5.920   2.622  4.3850 -1.5889 -1.0236
18655TIP3    H277457   4.954   6.021   2.732 -1.4806  0.3930 -1.1391
18656TIP3   OH277458   1.005   4.205   6.029  0.1626 -0.2306  0.0751
18656TIP3    H177459   0.926   4.228   6.079 -0.5780 -1.8961 -0.2501
18656TIP3    H277460   0.977   4.133   5.973  1.2664  0.8470 -1.9505
18657TIP3   OH277461   5.551   2.255  14.141  0.4825  0.7546 -0.5995
18657TIP3    H177462   5.592   2.229  14.224 -0.9968 -0.0016 -0.0642
18657TIP3    H277463   5.541   2.173  14.093 -0.3339  0.9268 -0.7343
18658TIP3   OH277464   5.589   0.988   4.239  0.6327  0.0973  0.5652
18658TIP3    H177465   5.628   0.941   4.313  0.0164 -2.3614 -0.5357
18658TIP3    H277466   5.637   0.956   4.162 -0.8743  0.0009 -0.3982
18659TIP3   OH277467   6.494   3.251   0.440 -0.2012 -0.1007 -0.1663
18659TIP3    H177468   6.566   3.273   0.499 -0.3439 -1.2347  0.4666
18659TIP3    H277469   6.538   3.223   0.359  0.0217  0.5881 -0.2890
18660TIP3   OH277470   3.280   1.665   6.355  0.0240  0.0140 -0.5481
18660TIP3    H177471   3.344   1.593   6.359 -0.1629 -0.1264 -0.1174
18660TIP3    H277472   3.293   1.714   6.436 -0.9763 -0.4877 -0.0772
18661TIP3   OH277473   0.848   0.625   2.956  0.3240 -0.1809  0.4595
18661TIP3    H177474   0.877   0.620   2.865 -0.8299  1.3530 -0.0374
18661TIP3    H277475   0.926   0.656   3.003  1.9757 -4.0888  0.6679
18662TIP3   OH277476   1.440   1.537  13.518 -0.7213  0.3723  0.6281
18662TIP3    H177477   1.423   1.626  13.549 -3.5525 -0.5243  2.0669
18662TIP3    H277478   1.492   1.497  13.587 -0.7359  0.4857  0.7060
18663TIP3   OH277479   5.871   1.634   3.636 -0.1703 -0.1952 -0.1425
18663TIP3    H177480   5.963   1.629   3.611 -0.0437  0.3786  0.1909
18663TIP3    H277481   5.847   1.726   3.623  0.2570  0.4730  2.9490
18664TIP3   OH277482   1.793   0.416  11.558  0.0259 -0.6307 -0.2711
18664TIP3    H177483   1.793   0.409  11.654 -1.5785 -0.1509 -0.2152
18664TIP3    H277484   1.754   0.334  11.528 -0.3919 -0.3596 -0.4686
18665TIP3   OH277485   1.879   1.428   2.306  0.0521 -0.7575  0.2465
18665TIP3    H177486   1.881   1.484   2.228 -0.9569  0.3955  1.0251
18665TIP3    H277487   1.951   1.459   2.360 -0.8391  0.2039  0.9254
18666TIP3   OH277488   2.400   0.834   5.604 -0.2712 -0.0540  0.0593
18666TIP3    H177489   2.472   0.891   5.629 -0.9500  2.0273 -2.2569
18666TIP3    H277490   2.423   0.748   5.639  2.0945  1.0514  1.4497
18667TIP3   OH277491   1.250   5.965   2.601  0.1047 -0.2644  0.7801
18667TIP3    H177492   1.303   6.045   2.604  0.0901 -0.2524  0.7226
18667TIP3    H277493   1.309   5.896   2.631  0.2537 -0.3059  0.3938
18668TIP3   OH277494   5.383   3.881  12.097  0.1350  0.5691  0.3476
18668TIP3    H177495   5.431   3.962  12.087 -1.1464  1.7336  2.6810
18668TIP3    H277496   5.450   3.815  12.114  1.2395  0.9284 -2.1268
18669TIP3   OH277497   2.311   4.146   5.695 -1.1281 -1.1513  0.1694
18669TIP3    H177498   2.398   4.106   5.698  1.1044  3.0559 -0.0607
18669TIP3    H277499   2.278   4.127   5.607  0.4998 -1.1931 -0.4636
18670TIP3   OH277500   6.373   3.167   4.296 -0.7002 -0.5275 -0.0185
18670TIP3    H177501   6.447   3.196   4.349 -0.8612 -0.9680  0.4606
18670TIP3    H277502   6.323   3.110   4.355 -2.0109  0.6140  0.0420
18671TIP3   OH277503   1.758   2.659  14.939 -0.7946 -0.6846  0.8404
18671TIP3    H177504   1.734   2.578  14.893 -0.1332 -0.8547  0.7897
18671TIP3    H277505   1.813   2.631  15.012 -1.5868 -0.3852  1.5728
18672TIP3   OH277506   2.377   6.672   0.321 -0.8053  0.1406 -0.1152
18672TIP3    H177507   2.370   6.727   0.242 -3.4520 -0.5970 -0.4843
18672TIP3    H277508   2.448   6.612   0.302  0.7101  1.9851 -0.6017
18673TIP3   OH277509   6.744   2.778   2.331  0.1890  0.3182 -0.6947
18673TIP3    H177510   6.662   2.743   2.366 -0.1824  1.8959  0.1559
18673TIP3    H277511   6.726   2.794   2.239 -0.1317 -0.2709 -0.7359
18674TIP3   OH277512   0.366   3.033   2.538 -0.1289 -0.1605  0.0860
18674TIP3    H177513   0.376   2.968   2.608  0.9838 -0.4785 -0.3442
18674TIP3    H277514   0.438   3.014   2.478  0.4815  1.7461  0.1475
18675TIP3   OH277515   0.381   5.732   1.449 -0.1506  0.0016  0.1622
18675TIP3    H177516   0.350   5.652   1.492 -0.4411  0.2576  0.4290
18675TIP3    H277517   0.320   5.747   1.377  1.3432 -1.4311 -1.5235
18676TIP3   OH277518   1.952   5.906  10.955 -0.0751  0.0712  0.0260
18676TIP3    H177519   1.975   5.885  10.865 -4.4802 -2.8366 -0.7254
18676TIP3    H277520   2.008   5.849  11.008  0.9676  0.1240 -0.9878
18677TIP3   OH277521   2.341   5.162   1.644 -0.5712 -0.3981 -0.4291
18677TIP3    H177522   2.291   5.108   1.704  0.6091 -1.3373 -0.2549
18677TIP3    H277523   2.300   5.248   1.649 -2.7663 -1.3557 -1.0599
18678TIP3   OH277524   5.854   5.627   5.225  0.2817 -0.3108 -0.1294
18678TIP3    H177525   5.800   5.645   5.148  1.9732  2.3633 -0.8172
18678TIP3    H277526   5.793   5.627   5.298 -0.7453  2.6414 -0.8691
18679TIP3   OH277527   1.146   3.769   3.568  0.0668 -0.5708 -0.5089
18679TIP3    H177528   1.123   3.852   3.525  0.0103  0.2677  1.0617
18679TIP3    H277529   1.096   3.703   3.521 -0.4458  0.3801 -1.3386
18680TIP3   OH277530   1.119   5.652   0.720  0.4238 -0.0306  0.0246
18680TIP3    H177531   1.183   5.609   0.777 -0.3661  1.4737  2.1897
18680TIP3    H277532   1.066   5.581   0.685  0.5146 -1.0147  1.7556
18681TIP3   OH277533   3.677   5.492   4.403 -0.2067 -0.7442  0.1966
18681TIP3    H177534   3.676   5.588   4.399 -0.5367 -0.7980 -1.3170
18681TIP3    H277535   3.587   5.466   4.388  0.1033 -1.3230 -0.7775
18682TIP3   OH277536   6.362   0.855   4.816 -0.3491 -0.4371  0.1735
18682TIP3    H177537   6.376   0.767   4.783  0.0028 -0.8653  1.3958
18682TIP3    H277538   6.406   0.856   4.901  0.4489  1.1935 -0.2113
18683TIP3   OH277539   5.338   3.396   5.658 -0.4046 -0.5552  0.0927
18683TIP3    H177540   5.346   3.454   5.733 -1.1881 -3.5780  2.7578
18683TIP3    H277541   5.405   3.329   5.671  1.8989  0.6009 -3.9509
18684TIP3   OH277542   6.728   4.214  15.008 -0.0863 -0.3862 -0.5167
18684TIP3    H177543   6.749   4.270  15.083 -0.2406 -0.1427 -0.6503
18684TIP3    H277544   6.666   4.267  14.957  1.4840  0.2654 -1.8396
18685TIP3   OH277545   3.906   6.578  14.376 -0.7938 -0.1593 -0.3603
18685TIP3    H177546   3.830   6.624  14.412 -0.3908 -0.3855  0.8106
18685TIP3    H277547   3.919   6.617  14.290 -0.7019  1.6553  0.4387
18686TIP3   OH277548   1.417   5.876   4.213  0.5883  0.4143  0.2870
18686TIP3    H177549   1.440   5.969   4.214  0.8332  0.3498  1.2441
18686TIP3    H277550   1.323   5.874   4.226  0.6752  0.5033  0.9280
18687TIP3   OH277551   1.035   6.022  16.888 -0.1026  0.5146  0.4400
18687TIP3    H177552   0.981   6.090  16.848  0.6742  0.4853 -0.7093
18687TIP3    H277553   1.122   6.034  16.849  0.1506 -0.8794  0.5277
18688TIP3   OH277554   5.075   0.417  11.184  0.5360 -0.6297  0.6055
18688TIP3    H177555   5.127   0.405  11.263  0.4847  0.7846  0.8828
18688TIP3    H277556   5.001   0.358  11.194 -0.1734  0.4716  2.2683
18689TIP3   OH277557   2.617   3.861  16.746  0.0109 -0.0134  0.0940
18689TIP3    H177558   2.647   3.810  16.670  0.3567  0.2858  0.0264
18689TIP3    H277559   2.693   3.913  16.771 -0.1117 -0.0862  0.6312
18690TIP3   OH277560   3.879   4.336  12.234 -0.3256 -0.0016 -0.2986
18690TIP3    H177561   3.890   4.311  12.325 -0.2051 -1.0433 -0.5926
18690TIP3    H277562   3.880   4.254  12.186 -1.6829  0.4147 -1.1138
18691TIP3   OH277563   5.284   5.760   3.639  0.0846 -0.3399 -0.1177
18691TIP3    H177564   5.211   5.820   3.655 -0.3760 -1.0296  0.4498
18691TIP3    H277565   5.360   5.804   3.676 -0.1975  0.0108  0.0527
18692TIP3   OH277566   6.463   4.437   4.810  0.0860 -0.5545  0.1630
18692TIP3    H177567   6.490   4.482   4.729 -1.0782 -0.7579 -0.3563
18692TIP3    H277568   6.456   4.345   4.784 -2.2364 -0.3613 -0.0546
18693TIP3   OH277569   6.082   0.285  14.398  0.3944 -0.2775 -0.3961
18693TIP3    H177570   6.087   0.321  14.309  1.6115 -1.2009 -0.7371
18693TIP3    H277571   6.105   0.193  14.387 -1.6055 -0.9471  0.5912
18694TIP3   OH277572   1.828   1.561  16.452  0.4864  0.1878 -0.4063
18694TIP3    H177573   1.858   1.578  16.542 -0.3796 -0.5279  0.0368
18694TIP3    H277574   1.895   1.600  16.397  1.7275 -0.4987  0.5501
18695TIP3   OH277575   0.170   0.082  13.359 -0.0233 -0.2740 -0.2465
18695TIP3    H177576   0.191   0.129  13.440 -0.1637 -2.6952  1.3350
18695TIP3    H277577   0.253   0.041  13.333 -0.2475 -0.5025 -0.6138
18696TIP3   OH277578   3.695   1.795   5.573 -0.5672  0.4931  0.4143
18696TIP3    H177579   3.650   1.871   5.612  0.0051  1.6769 -1.1432
18696TIP3    H277580   3.706   1.819   5.481  3.3734  0.3486  0.6974
18697TIP3   OH277581   1.950   0.589  14.969 -0.3235  0.0636  0.2637
18697TIP3    H177582   1.953   0.494  14.982  1.9080  0.1950  1.1765
18697TIP3    H277583   2.000   0.624  15.043  1.4753  1.7560 -1.6628
18698TIP3   OH277584   6.798   4.652  11.900  0.4608 -0.0242  0.3371
18698TIP3    H177585   6.729   4.700  11.854  0.6679  1.2716  1.3166
18698TIP3    H277586   6.836   4.595  11.834 -0.1044  0.8434 -0.7683
18699TIP3   OH277587   0.249   2.077   1.332  0.1692 -0.3004  0.7717
18699TIP3    H177588   0.204   2.051   1.413  0.6135  0.4980  1.2988
18699TIP3    H277589   0.190   2.051   1.262 -0.6635 -0.1712  1.4038
18700TIP3   OH277590   5.961   0.141   4.726  0.0329 -0.7505  0.4376
18700TIP3    H177591   5.987   0.231   4.707 -0.5763 -0.7474 -0.4671
18700TIP3    H277592   6.020   0.113   4.795  0.3577  0.2800  0.5994
18701TIP3   OH277593   0.480   4.065  13.737  0.0058 -0.3454 -0.2679
18701TIP3    H177594   0.520   4.024  13.814  2.5643  1.8851 -0.2431
18701TIP3    H277595   0.420   4.130  13.774  0.7851  0.3101 -0.1180
18702TIP3   OH277596   1.746   1.723   4.114  0.0553 -0.1094  0.1280
18702TIP3    H177597   1.742   1.818   4.106 -1.1465  0.0451  1.8978
18702TIP3    H277598   1.778   1.707   4.203 -0.5345 -1.3251  0.1533
18703TIP3   OH277599   5.540   1.080  14.241 -0.2264  0.3681  0.2867
18703TIP3    H177600   5.568   0.991  14.225  1.6590  0.7531  1.2238
18703TIP3    H277601   5.621   1.130  14.250 -1.2338  2.2974 -0.7939
18704TIP3   OH277602   5.527   3.281   4.391 -0.3097  0.0460 -0.0391
18704TIP3    H177603   5.459   3.216   4.404 -0.9292  0.8851  1.1399
18704TIP3    H277604   5.608   3.236   4.416 -0.6515 -0.4547  0.1797
18705TIP3   OH277605   6.067   1.122   6.602  0.1299 -0.3232  0.3922
18705TIP3    H177606   6.032   1.035   6.621 -0.1866 -0.4945 -0.8460
18705TIP3    H277607   5.996   1.166   6.554  0.8358  0.0674 -0.3141
18706TIP3   OH277608   1.806   6.085   2.749 -0.7701  0.3852 -0.1093
18706TIP3    H177609   1.789   6.026   2.823  0.8317  0.9478  0.7620
18706TIP3    H277610   1.737   6.065   2.686 -1.2905 -1.1911  0.8954
18707TIP3   OH277611   1.726   5.076  11.539  0.7237  0.4608  0.5213
18707TIP3    H177612   1.696   5.053  11.450  0.4161 -1.3215  1.0300
18707TIP3    H277613   1.814   5.112  11.526  0.0668  1.7541 -0.6265
18708TIP3   OH277614   3.188   6.646  15.213 -0.3988  0.0882  0.2565
18708TIP3    H177615   3.277   6.677  15.198 -0.8339 -0.2961 -5.1144
18708TIP3    H277616   3.135   6.726  15.212 -0.3896  0.1049 -0.8212
18709TIP3   OH277617   0.474   2.286   2.800  0.5487 -0.4939  1.0380
18709TIP3    H177618   0.549   2.229   2.782  1.4473  0.9030  0.2216
18709TIP3    H277619   0.510   2.357   2.854  1.0191  2.7215 -3.0102
18710TIP3   OH277620   2.411   0.989   0.218  0.5774 -0.6923  0.7550
18710TIP3    H177621   2.432   0.896   0.226 -1.3551 -1.1161  1.5108
18710TIP3    H277622   2.366   1.011   0.300 -0.6358  0.4273 -0.1619
18711TIP3   OH277623   4.031   3.395  12.566 -0.0312 -0.2649  0.0733
18711TIP3    H177624   4.092   3.372  12.637 -2.2220  0.6453  2.4105
18711TIP3    H277625   4.047   3.488  12.551  1.3948 -0.7433 -1.7369
18712TIP3   OH277626   6.448   6.175   1.560  0.3029  0.3407  0.5992
18712TIP3    H177627   6.517   6.169   1.494  0.1394  1.0085  0.3573
18712TIP3    H277628   6.454   6.093   1.609  0.3305 -0.2327 -0.3401
18713TIP3   OH277629   2.805   5.821   1.782 -0.5369  0.1386 -0.3733
18713TIP3    H177630   2.753   5.896   1.754 -1.2826 -0.4355 -0.5696
18713TIP3    H277631   2.891   5.835   1.743 -0.1877  1.6633  0.8498
18714TIP3   OH277632   6.510   6.426   3.370 -0.2114 -0.5799  0.1922
18714TIP3    H177633   6.512   6.483   3.293  0.5830  0.5271  1.0015
18714TIP3    H277634   6.508   6.337   3.334  0.1203 -0.0791 -1.1100
18715TIP3   OH277635   3.709   5.075  12.532  0.1386  0.9867 -0.2779
18715TIP3    H177636   3.622   5.109  12.554 -0.6565 -1.4127  0.5183
18715TIP3    H277637   3.693   4.987  12.500  2.3422  0.2504  0.5025
18716TIP3   OH277638   1.430   4.765   0.993  0.7945  0.2824  0.0666
18716TIP3    H177639   1.346   4.803   0.969 -0.2452 -1.2590  1.1389
18716TIP3    H277640   1.470   4.831   1.050 -0.9193 -0.0723  1.7763
18717TIP3   OH277641   1.856   0.359  13.769  0.1290 -0.1428 -0.1855
18717TIP3    H177642   1.779   0.339  13.715  0.8163  2.4346 -2.3466
18717TIP3    H277643   1.826   0.428  13.828  0.5408  0.2234 -0.4021
18718TIP3   OH277644   0.497   6.222  16.484  0.3944 -0.2247  0.5219
18718TIP3    H177645   0.508   6.317  16.476 -0.3565 -0.2828 -2.4897
18718TIP3    H277646   0.511   6.204  16.577 -0.2614  2.9246  1.3521
18719TIP3   OH277647   6.047   3.915  15.975  0.0861  0.2839 -0.2248
18719TIP3    H177648   6.017   3.892  15.887  0.7210  0.1443 -0.4088
18719TIP3    H277649   6.048   4.011  15.975 -2.3255  0.3926  0.4641
18720TIP3   OH277650   2.118   6.730   1.330  0.0471 -0.1693 -0.0882
18720TIP3    H177651   2.140   6.809   1.281 -3.0065  1.6715  1.1678
18720TIP3    H277652   2.133   6.659   1.269  1.7170  1.4537 -1.7207
18721TIP3   OH277653   3.781   0.789   3.697 -0.9151 -0.5223  0.0124
18721TIP3    H177654   3.818   0.747   3.619 -1.1101  1.2932 -1.1237
18721TIP3    H277655   3.855   0.839   3.733 -0.7645 -1.5437  1.1560
18722TIP3   OH277656   2.759   1.696   2.467  0.2383  0.3550 -0.5342
18722TIP3    H177657   2.783   1.788   2.469 -3.2173  1.3794  0.6587
18722TIP3    H277658   2.746   1.676   2.374 -0.2531  1.4715 -0.7157
18723TIP3   OH277659   1.724   3.460   6.263  0.2669 -0.2621  0.3505
18723TIP3    H177660   1.675   3.539   6.238 -0.0491 -0.4531  0.3622
18723TIP3    H277661   1.812   3.474   6.227 -0.0706 -0.3657 -0.5575
18724TIP3   OH277662   4.357   4.755  12.374  0.5179 -0.1800 -0.4522
18724TIP3    H177663   4.306   4.836  12.370 -2.8710 -1.9664  1.9923
18724TIP3    H277664   4.410   4.757  12.294 -0.7968  3.5134 -1.4452
18725TIP3   OH277665   3.088   3.966   0.643  0.1076  0.0939  0.0635
18725TIP3    H177666   3.165   4.010   0.680 -0.1679 -0.2778  1.1009
18725TIP3    H277667   3.124   3.909   0.575  0.6277  0.7880 -0.2512
18726TIP3   OH277668   6.775   6.129   5.475  0.0590 -0.2328 -0.5187
18726TIP3    H177669   6.751   6.153   5.564 -0.6239 -0.7962 -0.5371
18726TIP3    H277670   6.865   6.095   5.483  0.6019  1.1785 -0.3208
18727TIP3   OH277671   5.808   2.690  14.462  0.0571  0.1759  0.0728
18727TIP3    H177672   5.881   2.728  14.510 -0.8513  1.7485  0.2830
18727TIP3    H277673   5.827   2.596  14.458  1.2949  0.3446  1.4660
18728TIP3   OH277674   1.466   2.288  16.533 -0.2131 -0.2905  0.4663
18728TIP3    H177675   1.418   2.208  16.512  0.2585 -0.0515 -1.7499
18728TIP3    H277676   1.558   2.262  16.532 -0.0595  0.2291 -0.2258
18729TIP3   OH277677   3.002   2.105  14.304 -0.5962  0.5666  0.4866
18729TIP3    H177678   2.958   2.028  14.340 -0.5040 -0.4846 -1.4987
18729TIP3    H277679   2.937   2.144  14.246  0.9399 -1.0358 -2.5205
18730TIP3   OH277680   5.985   5.823  13.109 -0.4963  0.8244 -0.1850
18730TIP3    H177681   6.073   5.787  13.101 -1.2823 -1.4928  0.7221
18730TIP3    H277682   5.965   5.858  13.022  1.2219  1.1788 -0.4580
18731TIP3   OH277683   2.478   3.910   5.870 -0.3128  0.1390 -0.1661
18731TIP3    H177684   2.453   3.990   5.917  2.6752  1.8421 -1.1898
18731TIP3    H277685   2.500   3.847   5.938  0.8840  1.4925  0.7648
18732TIP3   OH277686   6.000   1.129  12.281 -0.1065 -0.4554 -0.2169
18732TIP3    H177687   6.063   1.172  12.338 -0.8914 -1.5056  1.5105
18732TIP3    H277688   5.992   1.188  12.206  2.8633 -0.2531 -0.5101
18733TIP3   OH277689   5.211   5.031   0.590  0.7153 -0.2505  0.2539
18733TIP3    H177690   5.199   5.117   0.550  0.6118 -0.7367 -0.7905
18733TIP3    H277691   5.124   5.005   0.620  0.8455  0.2438  1.0681
18734TIP3   OH277692   2.493   6.041  15.183 -0.9864  0.0962 -0.1643
18734TIP3    H177693   2.567   6.029  15.123 -0.4932 -0.7221  0.5762
18734TIP3    H277694   2.525   6.103  15.248 -1.2899  0.4815 -0.3832
18735TIP3   OH277695   0.046   5.827   4.769  0.0183  0.3975 -0.0830
18735TIP3    H177696  -0.002   5.885   4.709  0.1183 -1.2304 -1.8456
18735TIP3    H277697   0.051   5.744   4.722  1.7354 -0.4245  1.4488
18736TIP3   OH277698   0.859   5.339   0.157  0.4209  0.3980 -0.2024
18736TIP3    H177699   0.796   5.365   0.090  0.6869 -0.5717 -0.8611
18736TIP3    H277700   0.819   5.263   0.199  0.7826  0.2766 -0.0734
18737TIP3   OH277701   4.681   3.434  12.144 -0.9152 -0.1158  0.4422
18737TIP3    H177702   4.694   3.443  12.050  0.5471 -0.1111  0.6257
18737TIP3    H277703   4.693   3.522  12.179  0.4496 -0.4190  0.8136
18738TIP3   OH277704   5.405   6.746   2.019  0.7013  0.4384  0.0665
18738TIP3    H177705   5.454   6.825   1.993  1.9852 -0.9273 -2.0041
18738TIP3    H277706   5.370   6.712   1.936 -0.6790 -0.6432  1.0475
18739TIP3   OH277707   4.198   2.947   2.104  0.2998 -0.5590  0.5231
18739TIP3    H177708   4.123   2.971   2.049  0.4121 -1.5337 -0.0786
18739TIP3    H277709   4.217   2.856   2.081  1.5827 -0.3770  0.7718
18740TIP3   OH277710   2.734   6.198   4.455 -0.2168 -0.1033 -0.0598
18740TIP3    H177711   2.750   6.202   4.550  1.1320 -0.5898 -0.2389
18740TIP3    H277712   2.657   6.143   4.446 -1.3351  1.2549  0.8213
18741TIP3   OH277713   2.512   1.443   5.653  0.4997  0.3899 -0.5548
18741TIP3    H177714   2.607   1.455   5.648  0.6755 -1.1661 -1.3453
18741TIP3    H277715   2.486   1.494   5.730  2.0670  0.2631  0.0948
18742TIP3   OH277716   2.352   0.449  15.903  0.0819  0.2787 -0.0324
18742TIP3    H177717   2.263   0.474  15.878 -0.4251 -0.8761  0.5625
18742TIP3    H277718   2.369   0.497  15.984 -0.1339  0.2337  0.0405
18743TIP3   OH277719   1.172   1.838   2.574  0.3963  0.2404 -0.3285
18743TIP3    H177720   1.110   1.857   2.644  1.6149 -1.0397  1.1848
18743TIP3    H277721   1.153   1.903   2.506 -0.7444  1.6173  1.2389
18744TIP3   OH277722   3.621   5.095  14.415  0.3269  0.5164 -0.3896
18744TIP3    H177723   3.636   5.067  14.325 -0.1736  0.2258 -0.3859
18744TIP3    H277724   3.530   5.125  14.416  0.7965  2.0115 -0.3534
18745TIP3   OH277725   5.890   4.086  13.716  0.7504 -0.1212 -0.5239
18745TIP3    H177726   5.894   4.156  13.651  1.9074  0.3540  0.0263
18745TIP3    H277727   5.982   4.062  13.731  0.4885 -0.4015  0.7277
18746TIP3   OH277728   6.750   4.877  14.762 -0.5767  0.3291 -0.5177
18746TIP3    H177729   6.803   4.799  14.746 -0.9121  0.3203 -1.6994
18746TIP3    H277730   6.760   4.894  14.856  0.5983 -0.3306 -0.5000
18747TIP3   OH277731   6.652   3.263  16.653  0.4060 -0.1892  0.6949
18747TIP3    H177732   6.619   3.262  16.564  0.0219 -2.8762  0.7890
18747TIP3    H277733   6.741   3.296  16.646  0.5286 -0.7902 -0.7384
18748TIP3   OH277734   6.819   1.714  17.003  0.3488 -0.1483  0.3951
18748TIP3    H177735   6.876   1.637  17.010 -0.0319 -0.5055 -0.3255
18748TIP3    H277736   6.833   1.762  17.085 -0.7987 -1.9186  1.6841
18749TIP3   OH277737   0.825   0.197  15.493  0.1661  0.4298  0.0580
18749TIP3    H177738   0.854   0.287  15.476 -1.4565  1.4618  2.2206
18749TIP3    H277739   0.741   0.190  15.447  0.2063  0.0658  0.0368
18750TIP3   OH277740   3.218   1.165   4.588  0.5308 -0.5718  0.0335
18750TIP3    H177741   3.276   1.093   4.564 -0.2619 -1.3008  0.2583
18750TIP3    H277742   3.271   1.243   4.575  1.9947 -1.2765  1.4550
18751TIP3   OH277743   0.830   6.324   2.144  0.2085  0.0563  0.5001
18751TIP3    H177744   0.800   6.395   2.086 -1.3017 -2.1327 -1.5779
18751TIP3    H277745   0.923   6.343   2.159  0.0967  1.9162 -0.8252
18752TIP3   OH277746   5.232   3.107   5.728 -1.1875  0.1800  0.5752
18752TIP3    H177747   5.250   3.038   5.664 -0.6858 -0.1000  1.0028
18752TIP3    H277748   5.240   3.188   5.679 -0.4690 -0.0184  0.3474
18753TIP3   OH277749   0.022   4.048   4.353  0.1515  0.2475 -0.1337
18753TIP3    H177750   0.110   4.036   4.387  0.5308  1.0854 -0.7924
18753TIP3    H277751  -0.035   4.013   4.421  0.9839 -0.1758  0.3553
18754TIP3   OH277752   5.742   4.713   5.528 -0.0427  0.5258  0.6878
18754TIP3    H177753   5.681   4.680   5.593  2.0663 -3.2399  1.0332
18754TIP3    H277754   5.730   4.655   5.452 -0.0514  2.6376 -1.0278
18755TIP3   OH277755   1.749   6.040  15.363 -0.5638 -0.2554  0.1426
18755TIP3    H177756   1.670   6.090  15.341 -0.3252  0.4090  0.7446
18755TIP3    H277757   1.790   6.022  15.278 -1.3187 -0.5405 -0.1702
18756TIP3   OH277758   1.049   4.644  11.392 -0.0988 -0.3342 -0.1489
18756TIP3    H177759   1.031   4.587  11.467  0.8285 -0.9559 -0.3745
18756TIP3    H277760   1.138   4.619  11.364 -1.0742 -1.4672 -2.6006
18757TIP3   OH277761   4.813   5.890  13.865  0.3314 -0.1369  0.6527
18757TIP3    H177762   4.797   5.902  13.958 -2.3704  2.6996  0.0126
18757TIP3    H277763   4.895   5.936  13.848 -0.4591  1.5793  1.2905
18758TIP3   OH277764   2.636   1.044  15.892 -0.1870 -0.3124  0.6445
18758TIP3    H177765   2.638   0.953  15.863  3.9383 -0.1169 -0.1863
18758TIP3    H277766   2.640   1.095  15.811  0.0512  0.5702  1.2011
18759TIP3   OH277767   4.557   3.108   3.338 -0.3102  0.4361  0.3397
18759TIP3    H177768   4.607   3.188   3.353  2.6144 -0.7493 -2.0028
18759TIP3    H277769   4.618   3.037   3.359 -1.1467 -1.1150 -2.0062
18760TIP3   OH277770   4.685   1.213  14.260  0.3058 -0.1743 -0.3998
18760TIP3    H177771   4.773   1.247  14.247 -0.5732  2.4208 -0.2572
18760TIP3    H277772   4.629   1.272  14.210 -1.5214 -0.4422  1.1924
18761TIP3   OH277773   6.780   5.312  17.053  1.0125 -0.6431  0.0624
18761TIP3    H177774   6.709   5.305  17.117  0.8821 -0.2582 -0.0397
18761TIP3    H277775   6.769   5.236  16.996 -0.7171  0.6121 -1.3719
18762TIP3   OH277776   0.939   1.274  16.605 -0.7063  0.1305  0.3625
18762TIP3    H177777   0.861   1.305  16.559  0.8775  2.5777 -0.9233
18762TIP3    H277778   0.967   1.349  16.657  2.2826  0.3794 -1.3705
18763TIP3   OH277779   1.881   0.056   0.275 -0.7351 -0.1930  0.3769
18763TIP3    H177780   1.947   0.001   0.317 -2.4802 -2.9430 -0.2455
18763TIP3    H277781   1.904   0.054   0.182 -1.3215 -0.6514  0.2366
18764TIP3   OH277782   3.086   6.522  12.462 -0.0379 -0.2527 -0.7447
18764TIP3    H177783   3.180   6.520  12.443 -0.4306 -2.1609 -2.8803
18764TIP3    H277784   3.053   6.597  12.413  0.4355  0.9504  0.6962
18765TIP3   OH277785   1.404   6.273  16.027  0.0402 -0.0192 -0.2082
18765TIP3    H177786   1.484   6.238  15.987 -0.6776 -2.6195  0.4450
18765TIP3    H277787   1.332   6.232  15.978 -0.8703  0.3106  0.8106
18766TIP3   OH277788   4.877   3.906   3.730 -0.5481  0.6435  0.1106
18766TIP3    H177789   4.816   3.906   3.657  0.5261  0.0312 -0.8235
18766TIP3    H277790   4.823   3.922   3.807 -1.5077  2.9863 -0.9586
18767TIP3   OH277791   3.869   2.620   1.142  0.3562 -0.4561 -0.0052
18767TIP3    H177792   3.952   2.604   1.095  0.2436  0.7676 -0.6586
18767TIP3    H277793   3.840   2.533   1.167  2.9407 -0.8245  2.2026
18768TIP3   OH277794   5.195   4.960   1.195 -0.0019  0.4467  0.9451
18768TIP3    H177795   5.190   4.928   1.285 -0.5895 -0.2352  0.6837
18768TIP3    H277796   5.135   4.903   1.147  0.7075  0.4537  0.0253
18769TIP3   OH277797   5.430   3.101   3.747 -0.5473  0.1452 -0.7952
18769TIP3    H177798   5.360   3.077   3.687  0.6235 -0.3173 -2.0478
18769TIP3    H277799   5.398   3.075   3.834 -2.4635  1.2462 -1.1146
18770TIP3   OH277800   5.480   5.772  15.372 -0.1670  0.1792 -0.0110
18770TIP3    H177801   5.544   5.714  15.332 -0.8712  0.1903 -1.1942
18770TIP3    H277802   5.486   5.753  15.466  0.0077 -1.3946 -0.3227
18771TIP3   OH277803   5.106   3.377  17.067  0.1665 -0.0888 -0.3962
18771TIP3    H177804   5.173   3.315  17.039  0.5431  0.7682 -1.4589
18771TIP3    H277805   5.153   3.440  17.121 -0.4915 -1.5350  2.0383
18772TIP3   OH277806   4.350   2.776   4.200  0.7056 -0.2902 -0.0186
18772TIP3    H177807   4.340   2.723   4.279  0.2890 -0.0182  0.1181
18772TIP3    H277808   4.313   2.722   4.130  0.8600 -0.4344  0.0092
18773TIP3   OH277809   0.899   0.331   2.792  0.2172 -0.6354  0.3138
18773TIP3    H177810   0.824   0.353   2.736  0.1378 -0.0770  0.6357
18773TIP3    H277811   0.860   0.283   2.865  0.4593 -2.5107 -0.7055
18774TIP3   OH277812   1.653   1.286   4.606  0.2990 -0.2620 -0.5130
18774TIP3    H177813   1.618   1.287   4.517  1.3640  2.1847 -0.9740
18774TIP3    H277814   1.740   1.248   4.597  0.0052 -1.0057 -0.3082
18775TIP3   OH277815   4.106   6.329   2.464 -0.0680  0.2522 -0.1632
18775TIP3    H177816   4.126   6.260   2.527  1.6428  1.4580  0.6747
18775TIP3    H277817   4.166   6.314   2.391  0.0922  0.6771 -0.1192
18776TIP3   OH277818   6.360   1.550   5.546  1.2180  0.6925 -0.1841
18776TIP3    H177819   6.447   1.511   5.551 -0.4192 -3.4969  0.1463
18776TIP3    H277820   6.329   1.529   5.458 -0.0985  0.4713  0.3055
18777TIP3   OH277821   4.386   3.251   4.384  0.1438 -0.0438 -0.1440
18777TIP3    H177822   4.455   3.291   4.331 -0.8993 -0.2653 -1.7489
18777TIP3    H277823   4.407   3.158   4.385  1.1332  0.1615  1.3836
18778TIP3   OH277824   0.680   6.664  10.898 -0.3144 -0.2823  0.0862
18778TIP3    H177825   0.612   6.701  10.841  0.7326  0.5067 -0.6875
18778TIP3    H277826   0.742   6.624  10.837  0.0575 -0.7657  0.7706
18779TIP3   OH277827   0.271   3.898   1.615 -0.0972  0.0533  0.3735
18779TIP3    H177828   0.248   3.842   1.541  1.2270 -0.0851  0.0392
18779TIP3    H277829   0.256   3.844   1.693 -1.6494  0.2524  0.2329
18780TIP3   OH277830   1.917   5.472  13.293 -0.0126 -0.1868 -0.7815
18780TIP3    H177831   1.940   5.560  13.262  0.8453 -0.2892 -0.4489
18780TIP3    H277832   1.821   5.470  13.289 -0.2432  1.6989  1.7179
18781TIP3   OH277833   6.059   5.050  12.139  0.0755 -0.1331 -0.1674
18781TIP3    H177834   5.975   5.029  12.098 -0.9310 -0.3579  1.8765
18781TIP3    H277835   6.112   4.971  12.125 -0.2888 -0.2532 -0.9026
18782TIP3   OH277836   2.513   4.033  11.811  0.2888 -0.2087  0.3116
18782TIP3    H177837   2.525   4.125  11.835  1.5308 -0.1749 -0.3303
18782TIP3    H277838   2.599   3.993  11.826  0.0264 -1.0481 -0.3310
18783TIP3   OH277839   5.407   1.254   0.197 -0.0671  0.1405  0.0355
18783TIP3    H177840   5.334   1.309   0.224  0.7578  0.8081  0.9691
18783TIP3    H277841   5.477   1.316   0.175 -0.0713 -0.4475 -1.7944
18784TIP3   OH277842   2.377   1.739  12.861  0.4820  0.0280 -0.4835
18784TIP3    H177843   2.410   1.829  12.853 -0.6545  0.4516 -0.6700
18784TIP3    H277844   2.411   1.708  12.945 -0.4453  1.2375  0.3851
18785TIP3   OH277845   5.170   2.160   0.186  0.1980  0.1059  0.0616
18785TIP3    H177846   5.091   2.162   0.131  0.0967 -0.6982  0.1581
18785TIP3    H277847   5.210   2.246   0.173 -0.4801  0.3826 -0.3042
18786TIP3   OH277848   0.643   4.829   2.734 -0.5332  0.3215 -0.0682
18786TIP3    H177849   0.631   4.785   2.818  3.0487  0.7799  0.8655
18786TIP3    H277850   0.674   4.760   2.675  1.2766  0.7297  0.3223
18787TIP3   OH277851   4.721   5.286  13.675 -0.0960 -0.4223  0.6464
18787TIP3    H177852   4.670   5.331  13.742  0.5315  0.5025  0.5293
18787TIP3    H277853   4.759   5.356  13.622  2.7215 -0.9216  1.7771
18788TIP3   OH277854   0.092   2.619  11.242 -0.1974  0.0147  0.3509
18788TIP3    H177855   0.174   2.612  11.194 -0.2645  0.2545  0.1974
18788TIP3    H277856   0.096   2.550  11.309 -0.1158 -0.3376 -0.0167
18789TIP3   OH277857   2.550   5.427  15.184  0.2302  0.7593 -0.0007
18789TIP3    H177858   2.528   5.351  15.238  0.5158  0.7231  0.0633
18789TIP3    H277859   2.628   5.464  15.224 -1.0757  2.3413  1.2678
18790TIP3   OH277860   4.891   4.751  12.729  0.3310  0.3871 -0.7602
18790TIP3    H177861   4.921   4.784  12.645 -1.2816 -0.1854 -1.6133
18790TIP3    H277862   4.795   4.747  12.721  0.1995 -0.5930  0.7475
18791TIP3   OH277863   2.782   0.006  16.980 -0.2293 -0.3939 -0.5250
18791TIP3    H177864   2.720  -0.010  16.909 -0.0987  2.0939 -1.3042
18791TIP3    H277865   2.867   0.014  16.936  0.2655 -1.3218  0.2313
18792TIP3   OH277866   4.334   5.189  10.878 -0.2227  0.0645 -0.0797
18792TIP3    H177867   4.271   5.228  10.939 -2.7693 -1.0609 -1.8079
18792TIP3    H277868   4.295   5.104  10.854  2.2838 -0.9850 -0.8125
18793TIP3   OH277869   3.139   0.254  16.288 -0.1532 -0.4664 -0.0010
18793TIP3    H177870   3.156   0.167  16.323  2.2495 -0.3381 -0.6936
18793TIP3    H277871   3.161   0.248  16.195 -0.6209  0.7091 -0.2109
18794TIP3   OH277872   4.703   4.966  13.907 -0.2213  0.1246  0.0848
18794TIP3    H177873   4.685   4.900  13.974  0.4458  0.8159  0.9596
18794TIP3    H277874   4.795   4.989  13.920 -0.3763  1.0544 -0.3759
18795TIP3   OH277875   1.618   0.275  12.216 -0.0424 -0.5292 -0.4988
18795TIP3    H177876   1.549   0.322  12.262 -0.7776 -2.2086  0.1781
18795TIP3    H277877   1.679   0.343  12.188 -1.2717  0.8481  0.0792
18796TIP3   OH277878   4.952   4.326  16.186  0.9347 -0.1097  0.2267
18796TIP3    H177879   5.008   4.276  16.126  0.4452 -1.3927  0.8020
18796TIP3    H277880   4.896   4.378  16.129  2.4373  0.9204 -0.3734
18797TIP3   OH277881   4.904   5.364  14.466  0.3258  0.1485 -0.0516
18797TIP3    H177882   4.874   5.273  14.470  1.4539 -0.2266  0.6770
18797TIP3    H277883   4.862   5.406  14.541 -0.4539  0.3158 -0.5788
18798TIP3   OH277884   1.195   2.861   2.688  0.3268 -0.3050 -0.2526
18798TIP3    H177885   1.285   2.829   2.694  0.3224 -0.0072  2.0150
18798TIP3    H277886   1.203   2.952   2.659  0.7173 -0.4189 -0.5054
18799TIP3   OH277887   4.037   6.266  10.825 -0.4109 -0.2150 -0.1735
18799TIP3    H177888   3.949   6.303  10.838 -0.2908  1.3226 -2.9821
18799TIP3    H277889   4.027   6.173  10.844 -2.3655  0.1050  0.6273
18800TIP3   OH277890   0.834   3.433   3.661  0.5733  0.3193 -0.5283
18800TIP3    H177891   0.779   3.365   3.623  0.0993  1.1689 -1.3983
18800TIP3    H277892   0.772   3.498   3.695  1.0263  0.9791 -0.9471
18801TIP3   OH277893   5.540   0.411  16.295 -0.3840  0.2164  0.1662
18801TIP3    H177894   5.511   0.501  16.285 -0.8243  0.2364  1.4554
18801TIP3    H277895   5.485   0.375  16.364  0.3918 -0.7652  0.3060
18802TIP3   OH277896   2.371   6.716   3.665  0.0144  1.0418  0.5134
18802TIP3    H177897   2.328   6.747   3.585 -0.0106 -1.1085 -0.3960
18802TIP3    H277898   2.309   6.654   3.703  0.9276  0.3942  0.9911
18803TIP3   OH277899   6.377   0.497   5.958 -0.0805 -0.0957  0.3045
18803TIP3    H177900   6.325   0.469   6.033 -0.6396 -0.2080 -0.1178
18803TIP3    H277901   6.341   0.448   5.884  2.3463 -2.2154  0.4030
18804TIP3   OH277902   0.961   5.485   5.002 -0.6348 -0.2430 -0.7157
18804TIP3    H177903   1.043   5.531   5.019  0.0749 -1.0023 -1.9362
18804TIP3    H277904   0.902   5.552   4.968 -0.9594  0.5654  1.2639
18805TIP3   OH277905   6.719   3.800   3.765  0.5499  0.1649  0.1165
18805TIP3    H177906   6.727   3.839   3.853 -0.5962 -1.2294  0.8803
18805TIP3    H277907   6.632   3.826   3.736  0.4170 -0.4600 -0.0506
18806TIP3   OH277908   1.884   3.614  14.753  0.5780  0.1070 -0.0918
18806TIP3    H177909   1.965   3.579  14.716  0.7575 -0.3132  0.6921
18806TIP3    H277910   1.818   3.598  14.685  1.0211 -0.1013 -0.4813
18807TIP3   OH277911   4.317   2.280  14.817  0.8989 -0.0736  0.3820
18807TIP3    H177912   4.273   2.195  14.814  0.4555  0.1699 -1.1511
18807TIP3    H277913   4.248   2.343  14.798  1.5981  0.4423 -0.5529
18808TIP3   OH277914   3.674   4.626  16.337  0.2407 -0.5052 -0.3808
18808TIP3    H177915   3.710   4.537  16.340  0.0426 -0.5991 -0.7094
18808TIP3    H277916   3.588   4.615  16.295  0.2639 -0.1418 -0.5261
18809TIP3   OH277917   2.276   1.572   0.853 -0.5202 -0.3730 -0.3034
18809TIP3    H177918   2.249   1.485   0.823  0.3722 -0.1261 -1.9032
18809TIP3    H277919   2.302   1.618   0.774 -0.6912  1.2747  0.5575
18810TIP3   OH277920   6.516   2.866   1.778 -0.3600  0.2683 -0.2979
18810TIP3    H177921   6.545   2.786   1.735 -1.6686  0.0977 -0.9207
18810TIP3    H277922   6.482   2.838   1.863 -2.1795 -0.0916 -1.0922
18811TIP3   OH277923   0.678   4.173   4.646 -0.4689  0.1679  0.2773
18811TIP3    H177924   0.697   4.245   4.586  0.2351 -0.7243 -0.6199
18811TIP3    H277925   0.712   4.201   4.731  2.0380 -0.0395 -0.5673
18812TIP3   OH277926   6.500   6.104  11.347 -0.0116  0.6523 -0.5414
18812TIP3    H177927   6.497   6.116  11.252 -0.5932 -0.2449 -0.6432
18812TIP3    H277928   6.431   6.040  11.366  1.8055 -1.1858  0.1691
18813TIP3   OH277929   6.408   4.920   0.418 -0.1249  0.4736  0.8101
18813TIP3    H177930   6.437   4.955   0.502  0.0555 -0.4616  1.1545
18813TIP3    H277931   6.488   4.913   0.366 -0.0638  0.0129  0.9601
18814TIP3   OH277932   1.809   0.168   3.596  0.5753  0.4667 -0.0758
18814TIP3    H177933   1.813   0.074   3.616 -0.8725  0.5244  0.6537
18814TIP3    H277934   1.892   0.187   3.554  0.8522 -1.1766 -0.3573
18815TIP3   OH277935   1.699   3.595  14.520  0.1560 -0.2776 -0.0006
18815TIP3    H177936   1.691   3.501  14.536 -0.2671 -0.3162 -0.4129
18815TIP3    H277937   1.613   3.621  14.488 -0.3717  0.6502  2.0108
18816TIP3   OH277938   6.269   6.669  11.612 -0.1143  0.1053  0.1399
18816TIP3    H177939   6.351   6.716  11.601  0.2578  0.1933  2.5914
18816TIP3    H277940   6.295   6.579  11.632 -0.7391 -0.5032 -1.5740
18817TIP3   OH277941   3.359   5.425   1.563 -0.0964 -0.4294  0.3516
18817TIP3    H177942   3.376   5.357   1.629 -0.4980 -0.8710  0.0116
18817TIP3    H277943   3.273   5.403   1.528 -1.1041  1.3757  1.5707
18818TIP3   OH277944   6.303   4.653   2.016 -0.5632  0.2135  0.3498
18818TIP3    H177945   6.336   4.738   2.046 -0.4327  0.3853 -0.2573
18818TIP3    H277946   6.240   4.676   1.947 -0.9735 -0.1617  0.5993
18819TIP3   OH277947   4.849   0.694   0.463 -0.0916  0.1374 -0.0157
18819TIP3    H177948   4.923   0.753   0.470 -0.5126  0.6147  0.4699
18819TIP3    H277949   4.772   0.751   0.463 -0.4383 -0.2581 -1.6468
18820TIP3   OH277950   5.188   2.477   0.375 -0.1965  0.2809 -0.6030
18820TIP3    H177951   5.175   2.569   0.351 -0.8630  0.0636 -1.1141
18820TIP3    H277952   5.187   2.430   0.291 -0.0689 -0.2146 -0.3317
18821TIP3   OH277953   1.346   2.105   1.979 -0.3286 -0.2156 -0.2278
18821TIP3    H177954   1.336   2.105   1.884  0.5079 -0.7688 -0.3314
18821TIP3    H277955   1.257   2.117   2.012 -0.5707  0.4504 -1.0764
18822TIP3   OH277956   2.193   6.420  14.069 -0.4265 -0.5389 -0.0000
18822TIP3    H177957   2.274   6.404  14.021  0.3169 -0.9535  1.3257
18822TIP3    H277958   2.168   6.334  14.103 -1.0474 -0.2964  0.1704
18823TIP3   OH277959   4.762   4.098  15.865  0.2776 -0.4180  0.1656
18823TIP3    H177960   4.673   4.129  15.847  0.6805  0.3634 -0.5245
18823TIP3    H277961   4.812   4.124  15.789  0.6734 -2.7355 -0.4517
18824TIP3   OH277962   3.522   0.727  17.066  0.1055 -0.6066  0.4056
18824TIP3    H177963   3.500   0.775  17.146  0.2610 -1.4914  1.0008
18824TIP3    H277964   3.473   0.645  17.075  2.2184 -1.8815  0.9070
18825TIP3   OH277965   1.532   5.367   1.004  0.1013 -0.4496 -0.3112
18825TIP3    H177966   1.496   5.286   0.966  0.0527 -0.3941 -0.3836
18825TIP3    H277967   1.496   5.369   1.092 -2.3989  1.0438 -1.2550
18826TIP3   OH277968   6.616   4.231   5.139 -0.2335 -0.6649 -0.0085
18826TIP3    H177969   6.552   4.198   5.202  0.2039 -0.2220  0.6761
18826TIP3    H277970   6.642   4.317   5.174  1.2085 -1.1125  0.0583
18827TIP3   OH277971   6.322   6.373  13.594  0.1801 -0.1686  0.0923
18827TIP3    H177972   6.260   6.445  13.586 -0.5457 -0.7309  0.4704
18827TIP3    H277973   6.393   6.395  13.535  0.4893  1.3686  0.9862
18828TIP3   OH277974   1.869   6.588   4.558  0.1266 -0.2125  1.0436
18828TIP3    H177975   1.948   6.634   4.586  0.9295 -0.5171 -0.5942
18828TIP3    H277976   1.854   6.618   4.468 -1.9758  0.2743  1.5058
18829TIP3   OH277977   5.813   1.229  12.568 -0.2528  0.2842 -0.4099
18829TIP3    H177978   5.797   1.323  12.578  0.1708  0.3199 -0.0163
18829TIP3    H277979   5.894   1.224  12.518  0.1477  0.1438  0.2375
18830TIP3   OH277980   5.312   6.065   2.396  0.1627  0.3722  0.1969
18830TIP3    H177981   5.397   6.021   2.387 -0.0318 -0.1403  0.8161
18830TIP3    H277982   5.311   6.096   2.487 -1.7749 -2.7918  1.4279
18831TIP3   OH277983   0.405   1.042  11.170 -0.0308 -0.3247 -0.0780
18831TIP3    H177984   0.449   1.009  11.091  3.5151  2.1389  0.6656
18831TIP3    H277985   0.370   1.127  11.144 -0.9161 -0.5273  0.4221
18832TIP3   OH277986   1.965   4.603  16.160 -0.1554  0.2432 -0.2749
18832TIP3    H177987   2.034   4.633  16.101  0.1627 -1.7735 -1.0261
18832TIP3    H277988   1.919   4.683  16.187  0.0169  1.3151 -2.8548
18833TIP3   OH277989   0.948   1.831   5.764  0.1493  0.2126 -0.4210
18833TIP3    H177990   0.997   1.767   5.816 -1.0352 -0.5632 -0.2028
18833TIP3    H277991   0.946   1.910   5.819 -0.0607 -0.2160  0.2085
18834TIP3   OH277992   6.384   6.794  10.267  0.2836 -0.1048  0.2366
18834TIP3    H177993   6.429   6.866  10.222  0.0229  0.3065  0.6170
18834TIP3    H277994   6.295   6.797  10.234  0.5601 -1.0280 -0.6445
18835TIP3   OH277995   5.450   0.897   0.552 -0.1052 -0.0116  0.2035
18835TIP3    H177996   5.513   0.897   0.480 -1.7422 -1.5670 -1.3431
18835TIP3    H277997   5.379   0.954   0.522 -0.6900 -0.4841  0.6553
18836TIP3   OH277998   0.443   0.134  11.264  0.2937 -0.3263  0.5791
18836TIP3    H177999   0.414   0.043  11.265 -0.4722 -0.1174 -0.5929
18836TIP3    H278000   0.538   0.129  11.257  0.2407 -1.0442  0.2601
18837TIP3   OH278001   3.064   0.279   2.454  0.3532  0.1923  0.1302
18837TIP3    H178002   3.126   0.207   2.459  1.3904  0.9330 -1.3797
18837TIP3    H278003   3.118   0.357   2.442 -0.7360  1.2383  1.6311
18838TIP3   OH278004   1.014   6.815   3.995  0.3929 -0.4955 -0.5917
18838TIP3    H178005   0.925   6.840   3.971  0.3452  0.7849  0.7615
18838TIP3    H278006   1.063   6.819   3.913 -0.0289  2.4941 -0.8356
18839TIP3   OH278007   3.253   5.535  13.850 -0.8432 -0.2973  0.0200
18839TIP3    H178008   3.183   5.480  13.815 -0.9075 -0.8793  1.0497
18839TIP3    H278009   3.215   5.579  13.926  0.5389 -2.4786  2.1164
18840TIP3   OH278010   0.056   6.618   2.422 -0.2593  0.2422 -0.0282
18840TIP3    H178011   0.049   6.526   2.448  1.0270 -0.1424 -0.9059
18840TIP3    H278012   0.144   6.624   2.383 -0.6289  1.6661 -0.6752
18841TIP3   OH278013   4.403   1.180   0.676  0.3358 -0.6167 -0.6985
18841TIP3    H178014   4.376   1.272   0.680 -0.1332 -0.7639 -0.4515
18841TIP3    H278015   4.473   1.179   0.611 -0.1079 -0.1919 -1.1992
18842TIP3   OH278016   6.678   6.030   0.432  0.1909 -0.0888 -0.3570
18842TIP3    H178017   6.716   5.965   0.373  1.6827  0.5758 -0.1638
18842TIP3    H278018   6.586   6.004   0.440  0.2417 -0.8867 -2.0019
18843TIP3   OH278019   5.591   5.341  13.606 -0.0770  0.2925  0.4194
18843TIP3    H178020   5.665   5.295  13.565 -0.0443 -0.1105  0.9160
18843TIP3    H278021   5.632   5.410  13.657 -0.0597  0.2388  0.4792
18844TIP3   OH278022   6.279   4.392   0.901 -0.5456  0.4712  0.2731
18844TIP3    H178023   6.290   4.298   0.915 -0.6241  0.1864 -1.3564
18844TIP3    H278024   6.336   4.433   0.966 -0.9598 -0.6752  1.4011
18845TIP3   OH278025   1.758   4.958  17.031  0.4608  0.1575  0.2596
18845TIP3    H178026   1.767   4.863  17.034 -2.2956 -0.2374 -1.1173
18845TIP3    H278027   1.677   4.976  17.078  1.4295  1.9885  1.3529
18846TIP3   OH278028   0.959   4.279   6.406  0.3592  0.1096 -0.0533
18846TIP3    H178029   0.939   4.282   6.499  1.5189 -0.7470  0.2466
18846TIP3    H278030   0.956   4.370   6.377 -0.8876  0.3005  0.6135
18847TIP3   OH278031   6.259   1.142  15.306 -0.0404 -0.0067  0.2453
18847TIP3    H178032   6.229   1.052  15.292 -2.6748  0.4654  2.1163
18847TIP3    H278033   6.239   1.160  15.398  0.2702  2.5379 -0.1100
18848TIP3   OH278034   4.964   1.550  10.583 -0.8471 -0.2284 -0.7413
18848TIP3    H178035   4.924   1.636  10.573  0.6246  0.5133 -0.6207
18848TIP3    H278036   5.058   1.566  10.570 -0.6035 -1.9125 -1.2585
18849TIP3   OH278037   4.058   0.258  11.374 -0.2505  0.2971 -0.7151
18849TIP3    H178038   4.014   0.234  11.293  0.4678  0.7641 -1.2587
18849TIP3    H278039   4.114   0.182  11.394 -2.9560 -1.3691  1.2783
18850TIP3   OH278040   0.195   3.214  11.939 -0.5075  0.3596  0.4465
18850TIP3    H178041   0.182   3.123  11.965 -1.2652  0.5221  0.6609
18850TIP3    H278042   0.264   3.246  11.997 -0.6528  0.0887  0.7675
18851TIP3   OH278043   5.652   3.569  12.410 -0.0548 -0.6455 -0.3192
18851TIP3    H178044   5.697   3.488  12.434  2.2534  0.6153 -0.1688
18851TIP3    H278045   5.584   3.579  12.477  1.7096 -0.8234  1.5718
18852TIP3   OH278046   3.281   4.711  17.046 -0.0521  0.2999  0.0451
18852TIP3    H178047   3.207   4.655  17.068  0.4095 -0.1508  0.4732
18852TIP3    H278048   3.254   4.798  17.074 -0.7542  0.2972 -0.5734
18853TIP3   OH278049   1.079   0.090   4.546 -0.5401  0.3411 -0.4021
18853TIP3    H178050   0.987   0.112   4.556 -0.5227  0.2057  0.0688
18853TIP3    H278051   1.118   0.169   4.507 -0.4876  1.1941  1.2616
18854TIP3   OH278052   5.582   5.784   2.111  0.1553  0.4286  0.4300
18854TIP3    H178053   5.677   5.796   2.122 -0.2726  4.9861  1.0815
18854TIP3    H278054   5.559   5.720   2.178  2.6732 -0.4607  0.5770
18855TIP3   OH278055   5.267   5.492  12.922 -0.1057 -0.6025  0.2264
18855TIP3    H178056   5.287   5.440  13.000 -0.4598  0.2356  0.8968
18855TIP3    H278057   5.336   5.470  12.860  1.7942  0.6837  1.7443
18856TIP3   OH278058   0.281   1.610   5.401 -0.7808  0.2341 -0.2198
18856TIP3    H178059   0.331   1.529   5.393 -1.5258 -0.3477  0.8042
18856TIP3    H278060   0.339   1.677   5.364  0.6186 -0.4691  0.6056
18857TIP3   OH278061   4.531   5.586   1.056  0.5560 -0.2162  0.2840
18857TIP3    H178062   4.617   5.554   1.084  1.7885  2.6269  0.1270
18857TIP3    H278063   4.491   5.620   1.136  0.2559 -0.1264  0.0978
18858TIP3   OH278064   3.036   3.808  15.730  0.0604 -0.0076  0.0736
18858TIP3    H178065   2.997   3.861  15.800 -0.1928  2.2970 -1.6760
18858TIP3    H278066   2.980   3.823  15.654  0.7310 -1.8443 -0.8574
18859TIP3   OH278067   4.883   3.589   0.621 -0.0032  0.0971 -0.1429
18859TIP3    H178068   4.817   3.521   0.631 -0.5824  0.8874  1.9143
18859TIP3    H278069   4.956   3.546   0.578 -0.7583 -1.5586  0.1717
18860TIP3   OH278070   4.053   2.665   2.201 -0.3549 -0.4418  0.1427
18860TIP3    H178071   4.012   2.751   2.209  1.1220  0.3069 -0.0394
18860TIP3    H278072   3.999   2.618   2.137 -0.6705  0.6714 -0.4292
18861TIP3   OH278073   3.638   2.774  13.686 -0.2132  0.1386 -0.5009
18861TIP3    H178074   3.604   2.771  13.596  1.5342 -2.4159 -1.1820
18861TIP3    H278075   3.723   2.731  13.681  1.0002  2.0087  2.0020
18862TIP3   OH278076   1.582   1.577  16.575 -0.0506  0.2327 -0.1810
18862TIP3    H178077   1.651   1.539  16.521 -1.6438  0.4876 -2.5603
18862TIP3    H278078   1.572   1.667  16.542 -0.1784  0.8754  1.4901
18863TIP3   OH278079   0.544   6.818  16.722 -0.7257 -0.6818 -0.6200
18863TIP3    H178080   0.504   6.843  16.805  1.1301 -0.7028  0.3462
18863TIP3    H278081   0.484   6.754  16.684 -1.2231 -1.2878  1.1048
18864TIP3   OH278082   6.321   2.219  11.834  0.1480  0.1596  0.4116
18864TIP3    H178083   6.248   2.222  11.896  0.5454 -0.9132  0.9629
18864TIP3    H278084   6.289   2.166  11.761 -0.3178  1.4168 -0.3403
18865TIP3   OH278085   5.805   1.485   4.146 -0.0350 -0.0473  0.5785
18865TIP3    H178086   5.846   1.413   4.098  0.3102  0.3608  0.2454
18865TIP3    H278087   5.712   1.462   4.149  0.1420 -0.7566  0.9289
18866TIP3   OH278088   6.709   3.633   1.804  0.1635  0.7653  0.1726
18866TIP3    H178089   6.787   3.681   1.832  0.0931 -0.1251  2.0479
18866TIP3    H278090   6.648   3.641   1.878 -0.3065 -1.1596  0.0531
18867TIP3   OH278091   2.113   5.877   4.269  0.7171 -0.6619  0.1367
18867TIP3    H178092   2.055   5.817   4.315 -0.5760  0.1546 -0.3392
18867TIP3    H278093   2.060   5.956   4.257  1.5125 -0.3143 -1.4083
18868TIP3   OH278094   0.623   1.340   4.297 -0.0206  0.1460 -0.0976
18868TIP3    H178095   0.693   1.403   4.312  0.0835  0.0558 -0.2048
18868TIP3    H278096   0.661   1.274   4.240  0.1606 -0.5054  0.7423
18869TIP3   OH278097   5.664   2.285   3.653 -0.0397 -0.2205 -0.4980
18869TIP3    H178098   5.569   2.291   3.645 -0.1246 -0.9313 -0.1690
18869TIP3    H278099   5.692   2.237   3.575  0.2313  1.3057 -1.3681
18870TIP3   OH278100   2.385   5.689   1.667 -0.1522  0.1522  0.2536
18870TIP3    H178101   2.481   5.697   1.668 -0.0835 -0.5923  1.2135
18870TIP3    H278102   2.359   5.702   1.758 -1.2634  3.2466 -0.3835
18871TIP3   OH278103   0.973   4.205   2.826 -0.4828  0.3209  0.2411
18871TIP3    H178104   0.982   4.167   2.738  1.9807 -0.0840  0.6016
18871TIP3    H278105   0.978   4.130   2.885  0.9565  0.8232  0.8142
18872TIP3   OH278106   2.603   4.404   0.999  0.4756  0.0820 -0.2724
18872TIP3    H178107   2.661   4.421   1.073  0.7322 -0.5560 -0.3183
18872TIP3    H278108   2.521   4.449   1.021  0.6495  0.1396  0.2625
18873TIP3   OH278109   0.970   4.667   4.863  0.8116  0.3366 -0.2364
18873TIP3    H178110   0.913   4.683   4.787  1.1545  0.2740 -0.5058
18873TIP3    H278111   0.969   4.572   4.874  2.5830  0.1233 -1.5796
18874TIP3   OH278112   0.780   6.046  11.545 -0.2686  0.0241 -0.4286
18874TIP3    H178113   0.855   6.106  11.547 -2.2980  2.9142 -2.3377
18874TIP3    H278114   0.712   6.095  11.498 -3.6785 -2.0563  1.8990
18875TIP3   OH278115   0.121   2.655  10.854  0.4083 -0.2641 -0.0096
18875TIP3    H178116   0.153   2.745  10.846 -2.1831  0.6321 -1.4892
18875TIP3    H278117   0.028   2.665  10.876  0.0180 -2.5742 -0.3925
18876TIP3   OH278118   5.509   2.180   2.147 -0.0526  0.3222  0.5035
18876TIP3    H178119   5.583   2.167   2.207 -0.9239 -0.1988  1.4872
18876TIP3    H278120   5.533   2.259   2.098  1.1795  0.1400  0.7605
18877TIP3   OH278121   1.189   6.296   1.888 -0.1793  0.3719  0.3775
18877TIP3    H178122   1.154   6.381   1.861 -0.7810  0.4360  1.3053
18877TIP3    H278123   1.180   6.296   1.984 -0.2901 -0.7745  0.3800
18878TIP3   OH278124   6.179   2.508   2.143  1.0433 -0.2201 -0.2291
18878TIP3    H178125   6.182   2.568   2.069 -0.6749 -0.7983 -0.8164
18878TIP3    H278126   6.184   2.421   2.104  1.0058 -0.5160  0.4046
18879TIP3   OH278127   0.890   2.611   6.214  0.3027 -0.1641  0.5380
18879TIP3    H178128   0.884   2.671   6.140  1.2649  1.0129  1.3691
18879TIP3    H278129   0.814   2.632   6.269  1.6016  1.6955  1.7661
18880TIP3   OH278130   0.883   6.365   2.661 -0.2540 -0.0002 -0.0534
18880TIP3    H178131   0.853   6.452   2.632  1.3759  0.7203  0.3506
18880TIP3    H278132   0.932   6.331   2.586  0.4619  0.1065  0.3672
18881TIP3   OH278133   4.301   1.308   2.470 -0.1446  0.1706 -0.4565
18881TIP3    H178134   4.208   1.330   2.466 -0.9450 -2.5533  0.9980
18881TIP3    H278135   4.310   1.232   2.411  0.2396 -2.0714  2.2932
18882TIP3   OH278136   0.724   3.675   2.182 -0.1547  0.4031 -0.4805
18882TIP3    H178137   0.785   3.721   2.240  0.8143 -0.0204 -1.1332
18882TIP3    H278138   0.766   3.591   2.164 -1.5536 -0.4690  0.0945
18883TIP3   OH278139   5.169   4.889   4.874  0.8938 -0.5294 -0.3262
18883TIP3    H178140   5.116   4.901   4.796 -0.2205 -1.6919  0.2110
18883TIP3    H278141   5.144   4.802   4.907 -0.8144  1.0074  2.8789
18884TIP3   OH278142   1.314   0.621  15.055  0.0217 -0.3485  0.5764
18884TIP3    H178143   1.301   0.532  15.023  1.1448 -0.3795  0.1787
18884TIP3    H278144   1.250   0.630  15.126 -1.2117 -0.9133 -0.4143
18885TIP3   OH278145   5.562   1.491   0.102  0.3557 -1.0380 -0.3383
18885TIP3    H178146   5.530   1.578   0.127 -0.8289 -0.5067 -3.3191
18885TIP3    H278147   5.656   1.504   0.088  0.1463 -0.1697 -0.9956
18886TIP3   OH278148   2.073   4.345   6.262  0.3178 -0.0186 -0.1764
18886TIP3    H178149   2.068   4.253   6.289  3.2696  0.1942  1.5498
18886TIP3    H278150   1.995   4.385   6.298  0.1995 -1.3961  1.1933
18887TIP3   OH278151   4.193   3.082  15.881 -0.7538  0.4292  0.4134
18887TIP3    H178152   4.169   3.155  15.824  0.1087  1.8265  1.7499
18887TIP3    H278153   4.184   3.117  15.970 -1.0387 -1.3384  1.1309
18888TIP3   OH278154   0.494   0.689  12.633 -0.2831 -0.1907 -0.3893
18888TIP3    H178155   0.516   0.673  12.541  0.7533 -0.9091 -0.0380
18888TIP3    H278156   0.417   0.634  12.649  1.7488 -3.1489  0.1202
18889TIP3   OH278157   0.393   2.752   5.169 -0.6550 -0.3272  1.0329
18889TIP3    H178158   0.326   2.803   5.125  1.3829  0.1572 -1.7446
18889TIP3    H278159   0.438   2.815   5.227 -1.1898 -0.1430  1.2493
18890TIP3   OH278160   0.326   1.691  16.940  0.6950 -0.2765  0.0473
18890TIP3    H178161   0.334   1.597  16.919 -0.3314 -0.0945 -1.3158
18890TIP3    H278162   0.412   1.728  16.919  1.4949 -1.0697  1.7065
18891TIP3   OH278163   5.494   3.696   4.677 -0.0094 -0.1064  0.3556
18891TIP3    H178164   5.525   3.757   4.609  0.1713  0.5614  1.0215
18891TIP3    H278165   5.436   3.636   4.631 -1.8017  1.7867  0.0147
18892TIP3   OH278166   1.023   5.208  15.816  0.0384 -0.0076  0.3000
18892TIP3    H178167   1.056   5.130  15.862  1.7996  1.1300  1.0844
18892TIP3    H278168   0.928   5.195  15.813 -0.0117 -0.9212  2.8619
18893TIP3   OH278169   2.437   1.891  16.923  0.2060 -0.0939 -0.2010
18893TIP3    H178170   2.376   1.859  16.857  1.4362 -3.6165  0.1585
18893TIP3    H278171   2.382   1.917  16.997 -0.9351 -1.1564 -0.6554
18894TIP3   OH278172   3.866   0.714   3.457 -0.0873  0.0991 -0.7695
18894TIP3    H178173   3.888   0.779   3.390  1.4418 -0.8277 -1.2250
18894TIP3    H278174   3.808   0.652   3.412 -0.5853  0.4903 -0.6764
18895TIP3   OH278175   3.028   0.512   5.797  0.2265 -0.0334  0.2930
18895TIP3    H178176   3.046   0.486   5.706 -0.0195 -1.1950  0.5692
18895TIP3    H278177   2.960   0.578   5.789 -0.1707 -0.5025 -0.3440
18896TIP3   OH278178   0.942   4.745   3.224  0.0770 -0.0123 -0.0254
18896TIP3    H178179   0.963   4.663   3.269  0.1003  0.5719  1.0525
18896TIP3    H278180   0.935   4.720   3.132  0.4665 -1.1544  0.2341
18897TIP3   OH278181   5.964   0.631   2.006  0.1949 -0.6860  0.0108
18897TIP3    H178182   5.919   0.551   2.032 -2.1318  1.3562  3.0492
18897TIP3    H278183   6.040   0.637   2.063 -1.6069  0.8221  2.5002
18898TIP3   OH278184   4.825   6.205  16.202  0.0738  0.1910  0.3042
18898TIP3    H178185   4.913   6.227  16.231  0.3751 -1.5599  0.8474
18898TIP3    H278186   4.787   6.289  16.174  1.3964  1.2146  1.4051
18899TIP3   OH278187   1.162   3.227   2.169 -0.0983 -0.1521  0.0592
18899TIP3    H178188   1.255   3.243   2.180  0.1676 -2.2243  1.5707
18899TIP3    H278189   1.119   3.298   2.218  0.6799  0.5567 -0.2701
18900TIP3   OH278190   5.723   3.264   1.627 -0.4194 -0.0567  0.2385
18900TIP3    H178191   5.641   3.314   1.623 -0.4738 -0.2068 -0.6489
18900TIP3    H278192   5.738   3.236   1.537 -0.1576 -1.2760  0.6504
18901TIP3   OH278193   0.647   2.092  15.177 -0.4845 -0.0867  0.7098
18901TIP3    H178194   0.739   2.097  15.151  0.1021 -0.3187  2.6006
18901TIP3    H278195   0.620   2.184  15.186  0.2055 -0.0201  2.2198
18902TIP3   OH278196   1.155   3.443   6.236 -0.2573 -0.1418 -0.1497
18902TIP3    H178197   1.136   3.429   6.329  3.1325  0.4432  0.7824
18902TIP3    H278198   1.144   3.538   6.224 -0.5797 -0.2004 -0.3251
18903TIP3   OH278199   2.985   0.884  14.499  0.2096  0.8165  0.3592
18903TIP3    H178200   2.940   0.813  14.544  1.5227 -0.2904 -0.0109
18903TIP3    H278201   2.925   0.909  14.428  0.3774 -1.0499 -0.5084
18904TIP3   OH278202   4.535   2.416  16.483 -0.0240 -0.1664 -0.1629
18904TIP3    H178203   4.617   2.381  16.448  0.2247  0.2298  0.0175
18904TIP3    H278204   4.468   2.355  16.452  0.5326 -1.5422  1.2355
18905TIP3   OH278205   0.822   6.172  14.696  0.0295 -0.1177 -0.4037
18905TIP3    H178206   0.870   6.103  14.743 -0.1126 -0.2275 -0.4199
18905TIP3    H278207   0.884   6.202  14.629 -0.2322 -0.8712 -1.0022
18906TIP3   OH278208   5.720   0.012   5.193  0.5281 -0.4370 -0.0100
18906TIP3    H178209   5.798   0.032   5.141  2.0964  1.0815  2.7127
18906TIP3    H278210   5.739  -0.074   5.232  0.7649 -0.1750  0.4634
18907TIP3   OH278211   6.356   5.840   5.022 -0.5777  0.6266  0.3430
18907TIP3    H178212   6.410   5.761   5.024 -0.4554  0.7158  0.6379
18907TIP3    H278213   6.352   5.864   4.930 -0.7930  0.1547  0.2251
18908TIP3   OH278214   0.626   0.414   6.435 -0.5625 -0.4303 -0.3106
18908TIP3    H178215   0.535   0.408   6.406 -0.5603  0.2519 -0.4798
18908TIP3    H278216   0.676   0.374   6.363 -0.6778 -0.1593 -0.5457
18909TIP3   OH278217   6.468   2.758   2.423 -0.0984  0.6199  0.2090
18909TIP3    H178218   6.465   2.835   2.365  2.1230 -0.2091 -1.1560
18909TIP3    H278219   6.404   2.698   2.386  0.0923  0.7738 -0.3979
18910TIP3   OH278220   2.829   5.601   0.270 -0.0060  0.4269  0.2754
18910TIP3    H178221   2.892   5.562   0.331  1.7699 -0.7595 -2.1338
18910TIP3    H278222   2.844   5.695   0.277  2.8731  0.1534 -0.9336
18911TIP3   OH278223   5.398   6.111  13.403  0.1907 -0.0216 -0.6981
18911TIP3    H178224   5.332   6.137  13.467 -0.6890  0.0466 -1.5929
18911TIP3    H278225   5.465   6.179  13.407  0.6707 -0.5574  0.8539
18912TIP3   OH278226   5.635   5.556  14.380  0.2447 -0.1036  1.3907
18912TIP3    H178227   5.563   5.508  14.420 -0.0559 -0.1213  0.8373
18912TIP3    H278228   5.680   5.598  14.454 -0.3693 -0.0357  1.7362
18913TIP3   OH278229   6.479   3.272  11.339 -0.0574  0.2748  0.0173
18913TIP3    H178230   6.574   3.263  11.345  0.1341  1.3538 -0.8798
18913TIP3    H278231   6.444   3.215  11.407  1.2817  1.0760  1.4464
18914TIP3   OH278232   5.778   4.774   4.373 -0.0178 -0.1613  0.9426
18914TIP3    H178233   5.723   4.719   4.428 -0.4689 -1.0183 -0.3268
18914TIP3    H278234   5.756   4.749   4.283  1.1596  0.7411  0.3668
18915TIP3   OH278235   3.187   0.233   0.121 -0.1185  0.2732 -0.0536
18915TIP3    H178236   3.132   0.155   0.135 -1.3770  1.2681  0.8925
18915TIP3    H278237   3.148   0.276   0.045  0.8274 -0.2210 -0.8242
18916TIP3   OH278238   4.475   3.137   0.583  0.5237 -0.4659 -0.0679
18916TIP3    H178239   4.386   3.102   0.589  0.3739  0.0511  1.0764
18916TIP3    H278240   4.498   3.130   0.491 -0.4184 -1.3126 -0.2541
18917TIP3   OH278241   1.823   5.482  15.422  0.4343  0.1208  0.3623
18917TIP3    H178242   1.825   5.577  15.415 -0.0570  0.1822  1.0103
18917TIP3    H278243   1.840   5.451  15.333  0.5984  0.8129  0.1526
18918TIP3   OH278244   6.581   5.587  16.324  0.4229 -0.1501 -0.4334
18918TIP3    H178245   6.656   5.607  16.380 -0.8431 -0.3875  1.4324
18918TIP3    H278246   6.575   5.491  16.326  0.6141 -0.1860 -1.3379
18919TIP3   OH278247   6.816   1.416   5.193 -0.1594 -0.2916 -0.1913
18919TIP3    H178248   6.812   1.346   5.257 -1.2930  0.0617  0.1350
18919TIP3    H278249   6.798   1.496   5.242 -0.4102  0.0561 -0.8304
18920TIP3   OH278250   0.499   0.030  12.001  0.1888 -0.5599 -0.0167
18920TIP3    H178251   0.513   0.121  11.975  0.2102 -0.1807  1.2660
18920TIP3    H278252   0.587  -0.009  12.000  0.0995 -0.7936 -1.2705
18921TIP3   OH278253   6.184   4.456  14.021  0.1255 -0.0933 -0.3050
18921TIP3    H178254   6.093   4.483  14.033  0.2013  0.0714 -0.0888
18921TIP3    H278255   6.183   4.400  13.944 -0.2197 -0.3811 -0.0913
18922TIP3   OH278256   2.987   0.900  15.733 -0.2233  0.1656 -0.0151
18922TIP3    H178257   3.074   0.877  15.699 -1.1237 -1.1632 -1.5263
18922TIP3    H278258   2.997   0.990  15.764  1.4028  0.4580 -1.2450
18923TIP3   OH278259   3.156   3.656   4.254 -0.2039  0.4627 -0.1287
18923TIP3    H178260   3.181   3.731   4.200 -3.2194  0.9958 -0.9769
18923TIP3    H278261   3.181   3.580   4.202  0.9875  0.8746 -0.1977
18924TIP3   OH278262   1.846   6.780  12.756 -0.2463  0.8208 -0.0753
18924TIP3    H178263   1.793   6.857  12.777 -0.6369  0.7816 -0.9028
18924TIP3    H278264   1.873   6.792  12.665 -0.4368 -0.0867 -0.2669
18925TIP3   OH278265   6.397   1.161  11.296 -0.0008  0.4551  0.3077
18925TIP3    H178266   6.349   1.175  11.215 -1.1544  4.0140  1.4117
18925TIP3    H278267   6.421   1.068  11.295 -1.1797  0.0530 -3.3722
18926TIP3   OH278268   5.220   5.329   2.035 -0.6181 -0.0072 -0.5159
18926TIP3    H178269   5.258   5.405   1.993 -1.7657 -0.7949 -3.1796
18926TIP3    H278270   5.153   5.365   2.094  1.0110  1.1267  0.7054
18927TIP3   OH278271   5.461   5.646   1.472 -0.0316 -0.2388  0.1560
18927TIP3    H178272   5.366   5.655   1.471 -0.0732  0.0711 -3.2038
18927TIP3    H278273   5.476   5.552   1.485 -0.6360 -0.0453  2.7955
18928TIP3   OH278274   1.248   6.533  12.988 -0.3984 -0.0992  0.2629
18928TIP3    H178275   1.251   6.622  13.023 -1.1188  0.1932 -0.3820
18928TIP3    H278276   1.190   6.539  12.912  0.5480 -0.8570 -0.5558
18929TIP3   OH278277   6.548   5.995   4.086  0.5465 -0.4825  0.6219
18929TIP3    H178278   6.497   6.075   4.068  1.1405  0.0699  1.3256
18929TIP3    H278279   6.632   6.011   4.042  0.7975 -0.5635  1.0769
18930TIP3   OH278280   5.008   5.397   2.795  0.3305 -0.3053 -0.2802
18930TIP3    H178281   5.008   5.439   2.881 -1.2180 -2.8004  1.0498
18930TIP3    H278282   5.100   5.384   2.774  0.9481  3.8820 -0.9734
18931TIP3   OH278283   4.420   2.367  15.513 -0.0805 -0.1303 -0.0777
18931TIP3    H178284   4.416   2.287  15.565 -0.3039  0.0906  0.2552
18931TIP3    H278285   4.353   2.424  15.552 -0.0247  0.1618 -0.4006
18932TIP3   OH278286   1.116   3.772   4.859 -0.2470  0.5030 -0.1332
18932TIP3    H178287   1.120   3.677   4.848 -0.9831  0.4131  0.3108
18932TIP3    H278288   1.206   3.802   4.845  0.2221 -0.3799  0.8631
18933TIP3   OH278289   0.191   4.650  11.041  0.2699 -0.3521 -0.3770
18933TIP3    H178290   0.250   4.675  11.112  0.3003  2.1242 -1.1764
18933TIP3    H278291   0.238   4.674  10.961 -1.5632  1.2661 -1.0484
18934TIP3   OH278292   0.788   1.592   1.815  0.3673 -0.3985 -0.1131
18934TIP3    H178293   0.769   1.677   1.854  2.1217  0.0188 -0.0947
18934TIP3    H278294   0.702   1.550   1.806 -0.5675  1.4807 -0.4283
18935TIP3   OH278295   2.946   0.662   4.316  0.5301  0.2148 -0.1316
18935TIP3    H178296   2.901   0.741   4.344 -1.2364 -0.9284  0.4771
18935TIP3    H278297   2.903   0.637   4.235  0.8809 -0.2644 -0.1796
18936TIP3   OH278298   4.990   2.540   2.691  0.7299 -0.1529  0.3823
18936TIP3    H178299   4.956   2.471   2.634  3.9761 -0.5040 -1.3342
18936TIP3    H278300   4.944   2.619   2.661  0.7509 -0.7101 -1.2527
18937TIP3   OH278301   1.795   1.353  11.980  0.2642 -0.0857  0.3259
18937TIP3    H178302   1.782   1.296  11.904 -1.6688 -0.7707  1.0979
18937TIP3    H278303   1.885   1.335  12.008  0.0126 -2.1491  0.0119
18938TIP3   OH278304   1.828   6.608  15.298  0.3752  0.3596  0.2811
18938TIP3    H178305   1.856   6.691  15.335  1.9013 -0.3374  0.7627
18938TIP3    H278306   1.802   6.629  15.208  1.1572  1.2809  0.2564
18939TIP3   OH278307   5.034   3.646   0.215  0.1534  0.4978  0.2490
18939TIP3    H178308   5.045   3.633   0.309  1.7005  0.2015  0.0559
18939TIP3    H278309   5.111   3.697   0.189  0.4256 -0.5185 -1.0586
18940TIP3   OH278310   0.301   3.495   0.751 -0.2552  0.0817 -0.3368
18940TIP3    H178311   0.252   3.423   0.791 -0.1206  0.8363  1.2620
18940TIP3    H278312   0.386   3.493   0.795 -0.3164  1.3203 -0.1252
18941TIP3   OH278313   5.119   6.341   2.862 -0.3168  0.1099  0.3666
18941TIP3    H178314   5.171   6.341   2.942  0.7418  1.2909 -0.2927
18941TIP3    H278315   5.130   6.429   2.826  0.8101 -0.9651 -2.0932
18942TIP3   OH278316   5.445   1.670  15.276  0.1947  0.0637 -0.2730
18942TIP3    H178317   5.528   1.676  15.229  0.6421 -1.9458  0.1639
18942TIP3    H278318   5.404   1.590  15.242 -0.6657 -0.0283  0.9217
18943TIP3   OH278319   6.807   3.325  13.641  0.1497 -0.2994 -0.0888
18943TIP3    H178320   6.802   3.400  13.581 -0.2433 -0.7806 -0.6657
18943TIP3    H278321   6.717   3.293  13.646 -0.0142  0.3362  1.5485
18944TIP3   OH278322   1.205   3.883  11.164 -0.2006  0.2983 -0.1844
18944TIP3    H178323   1.232   3.969  11.195  0.0911  0.0806  0.1800
18944TIP3    H278324   1.118   3.897  11.126  0.4435  1.0255 -1.4523
18945TIP3   OH278325   6.125   3.326   1.673 -0.2426 -0.0713  0.0088
18945TIP3    H178326   6.119   3.292   1.584  0.4252  1.4143 -0.6535
18945TIP3    H278327   6.163   3.414   1.662  0.1394  0.0253  1.7820
18946TIP3   OH278328   4.403   2.203   2.433  0.4775  0.2431 -0.1911
18946TIP3    H178329   4.494   2.225   2.413  0.3441 -0.1322 -1.2913
18946TIP3    H278330   4.365   2.284   2.467  1.1586  0.4631  0.0624
18947TIP3   OH278331   1.154   3.188  16.137  0.6830 -0.0136 -0.0947
18947TIP3    H178332   1.150   3.194  16.232 -1.2775  0.1325 -0.1451
18947TIP3    H278333   1.219   3.254  16.111 -0.3806  1.5354  1.0301
18948TIP3   OH278334   5.618   3.375  15.469  0.3214  0.1593 -0.3686
18948TIP3    H178335   5.672   3.306  15.430  0.8340 -0.6458  1.6636
18948TIP3    H278336   5.649   3.382  15.559 -1.6555  1.0667  0.2957
18949TIP3   OH278337   1.533   1.668  16.305  0.0318 -0.3322  0.9002
18949TIP3    H178338   1.611   1.721  16.321  0.3763 -0.9642  1.3430
18949TIP3    H278339   1.558   1.610  16.234 -0.0429 -0.5261  1.0328
18950TIP3   OH278340   2.175   2.338  14.336  0.2646 -0.2523 -0.2101
18950TIP3    H178341   2.105   2.401  14.316  2.3926  1.9143 -1.4746
18950TIP3    H278342   2.135   2.274  14.394 -2.7788  0.7769 -1.0024
18951TIP3   OH278343   3.575   3.229   4.667 -0.2994  0.2077  0.4288
18951TIP3    H178344   3.611   3.239   4.755  0.7012  1.2779 -0.0781
18951TIP3    H278345   3.517   3.304   4.656  0.8931  1.0427 -0.4206
18952TIP3   OH278346   1.549   4.389   3.459  0.9149  0.2623 -0.0365
18952TIP3    H178347   1.628   4.341   3.435  0.4014 -0.6933  0.1375
18952TIP3    H278348   1.580   4.456   3.520  1.8851  1.2366 -1.5155
18953TIP3   OH278349   3.552   4.537   5.235 -0.1211  0.1397 -0.0529
18953TIP3    H178350   3.563   4.585   5.317  0.9148  0.6344 -0.4612
18953TIP3    H278351   3.526   4.604   5.171 -1.4876 -0.3374 -0.0200
18954TIP3   OH278352   6.310   3.403  17.147 -0.8086  0.0261  0.4508
18954TIP3    H178353   6.384   3.344  17.135 -0.2969  0.8904 -1.0258
18954TIP3    H278354   6.233   3.347  17.137 -0.3387 -0.5576  0.0022
18955TIP3   OH278355   0.996   1.824   5.270 -0.3867 -0.6839 -0.5163
18955TIP3    H178356   1.021   1.916   5.256 -0.8333 -0.4904 -0.0972
18955TIP3    H278357   1.022   1.807   5.361  0.4074 -1.2164 -0.8363
18956TIP3   OH278358   2.286   4.905   1.285 -0.4125 -0.7671 -0.4377
18956TIP3    H178359   2.270   4.910   1.379  1.8631  0.0347 -0.0257
18956TIP3    H278360   2.361   4.847   1.276 -0.6025 -0.8477 -1.7807
18957TIP3   OH278361   2.369   4.152  14.383 -1.0449  0.7458 -0.2922
18957TIP3    H178362   2.300   4.156  14.449  0.2191 -0.2718  1.1717
18957TIP3    H278363   2.421   4.231  14.399  0.2157 -0.3104  1.1050
18958TIP3   OH278364   4.328   1.195  13.504  0.8063 -0.4458  0.1306
18958TIP3    H178365   4.304   1.159  13.418  0.9829  1.4327 -0.7543
18958TIP3    H278366   4.260   1.259  13.522  0.9771 -0.5595  1.2551
18959TIP3   OH278367   2.770   0.041   0.364 -0.0321  0.3477 -0.0526
18959TIP3    H178368   2.787   0.099   0.290  3.5541  1.9055  1.7214
18959TIP3    H278369   2.844  -0.020   0.365 -2.7299 -3.2809 -0.7290
18960TIP3   OH278370   5.485   4.773  16.775  0.2749 -0.4716  0.1995
18960TIP3    H178371   5.469   4.690  16.731  1.9692 -1.1963  0.8989
18960TIP3    H278372   5.460   4.839  16.710  1.1586 -1.5172 -1.2460
18961TIP3   OH278373   0.533   5.478   2.283 -0.3197 -0.0626 -0.2569
18961TIP3    H178374   0.577   5.554   2.244  0.4906 -0.4181 -0.0601
18961TIP3    H278375   0.580   5.463   2.365 -1.0200 -0.2676  0.1161
18962TIP3   OH278376   1.332   0.651  15.419  0.0733 -0.1457 -0.1115
18962TIP3    H178377   1.375   0.576  15.461 -2.1148 -1.3552  0.0971
18962TIP3    H278378   1.276   0.688  15.488  0.0859  0.8660 -0.6192
18963TIP3   OH278379   2.916   6.345   2.327 -0.2629  0.2948 -0.1527
18963TIP3    H178380   2.949   6.368   2.414 -0.9679 -1.3409  0.6037
18963TIP3    H278381   2.823   6.368   2.329 -0.3848 -0.1544 -0.2954
18964TIP3   OH278382   1.967   6.746   4.798  0.2563 -0.3235 -0.1741
18964TIP3    H178383   1.996   6.810   4.863 -2.5069 -0.2470  1.1331
18964TIP3    H278384   1.915   6.797   4.736  1.9283 -0.5905 -1.8600
18965TIP3   OH278385   5.013   1.210  15.261 -0.1306 -0.2834 -0.3985
18965TIP3    H178386   5.046   1.239  15.176 -0.6097 -0.2260 -0.5647
18965TIP3    H278387   5.089   1.217  15.320  0.4722 -1.2681 -1.0274
18966TIP3   OH278388   4.031   6.584  17.042  0.6378 -0.2858  0.1537
18966TIP3    H178389   4.080   6.504  17.060  0.6725 -0.7522 -1.7372
18966TIP3    H278390   3.944   6.554  17.017  0.8735  0.1655 -1.3286
18967TIP3   OH278391   4.626   4.709  12.807  0.2231  0.3426  0.4482
18967TIP3    H178392   4.604   4.647  12.737 -0.2263  1.0736 -0.0730
18967TIP3    H278393   4.541   4.742  12.838  0.4729  1.7984 -0.3084
18968TIP3   OH278394   5.293   2.562   4.095  0.1342 -0.2419  0.0229
18968TIP3    H178395   5.321   2.560   4.004  2.8750 -2.3313  0.7790
18968TIP3    H278396   5.273   2.470   4.116 -4.0012  0.5912  0.6731
18969TIP3   OH278397   1.309   5.079  12.300  0.0844 -0.4440 -0.0363
18969TIP3    H178398   1.402   5.064  12.284  0.2623  0.7447 -0.1753
18969TIP3    H278399   1.307   5.143  12.371 -0.6363 -0.8045  0.2755
18970TIP3   OH278400   4.079   6.310  17.065 -0.0403 -0.0617  0.4012
18970TIP3    H178401   4.060   6.262  16.984  1.3992  0.3945 -0.2465
18970TIP3    H278402   4.167   6.280  17.089  0.0868  0.8123  1.0454
18971TIP3   OH278403   5.969   5.170  16.239 -0.0168 -0.0613 -0.1503
18971TIP3    H178404   5.988   5.078  16.260 -3.0710 -1.5637 -2.9650
18971TIP3    H278405   6.029   5.191  16.167 -0.3351 -0.3849 -0.5127
18972TIP3   OH278406   6.621   6.483   0.395 -0.2425 -0.0468  0.0402
18972TIP3    H178407   6.639   6.414   0.331 -0.9432 -0.2090  0.0068
18972TIP3    H278408   6.700   6.488   0.448 -0.2311 -0.9935  0.1384
18973TIP3   OH278409   1.785   2.126   3.822  0.0359  0.2898 -0.0078
18973TIP3    H178410   1.800   2.206   3.771 -0.2716  0.3731  0.0308
18973TIP3    H278411   1.722   2.076   3.770 -0.8672  0.7176  0.6447
18974TIP3   OH278412   3.080   0.384  15.230 -0.4802  0.2769 -0.3559
18974TIP3    H178413   3.100   0.423  15.145  1.6818 -0.2289 -0.1325
18974TIP3    H278414   3.133   0.433  15.293 -1.8991  0.5222  0.7232
18975TIP3   OH278415   2.853   6.265  15.111  0.6569  0.0071 -0.0000
18975TIP3    H178416   2.855   6.232  15.201 -0.8377  1.7660  0.7255
18975TIP3    H278417   2.939   6.305  15.099  1.1240 -0.8501  0.3799
18976TIP3   OH278418   2.345   2.604  15.468  0.5125  0.3007  0.6181
18976TIP3    H178419   2.309   2.657  15.539 -0.0379 -1.1632  1.4784
18976TIP3    H278420   2.409   2.547  15.512  0.3701 -0.4264 -0.1128
18977TIP3   OH278421   1.119   1.835  13.214  0.4088 -0.5094 -0.0124
18977TIP3    H178422   1.202   1.805  13.178  0.9634 -0.2117  0.9796
18977TIP3    H278423   1.103   1.919  13.171 -0.2265 -1.3157 -1.4262
18978TIP3   OH278424   3.249   6.207  15.011  0.2560  0.0450 -0.2957
18978TIP3    H178425   3.231   6.163  14.928  0.5157 -1.2465  0.3142
18978TIP3    H278426   3.188   6.281  15.013  0.3053  0.1493 -1.6669
18979TIP3   OH278427   2.733   1.026   4.099 -0.0808  0.3370  0.0839
18979TIP3    H178428   2.658   1.029   4.039  1.6038  2.0040 -2.1297
18979TIP3    H278429   2.795   0.966   4.056  1.2533  1.7436 -0.0661
18980TIP3   OH278430   1.137   1.571  12.689 -0.6173  0.3307  0.3359
18980TIP3    H178431   1.194   1.639  12.654  0.3063 -0.1356  0.8765
18980TIP3    H278432   1.087   1.614  12.758 -1.2528  0.8509 -0.4374
18981TIP3   OH278433   1.213   5.678   2.288  0.0381 -0.0268 -0.2402
18981TIP3    H178434   1.268   5.623   2.344 -1.0010  1.1848  2.1166
18981TIP3    H278435   1.208   5.630   2.206  4.0491 -0.5134 -0.4321
18982TIP3   OH278436   0.974   4.280  16.372  0.3213  0.1356  0.3281
18982TIP3    H178437   1.029   4.293  16.294  1.4469  0.6363  1.1764
18982TIP3    H278438   0.885   4.271  16.337  1.0132 -1.6053 -1.1659
18983TIP3   OH278439   6.433   0.916  11.974  0.7354  0.0516 -0.7286
18983TIP3    H178440   6.438   0.850  11.905  0.1169 -0.3025 -0.4444
18983TIP3    H278441   6.417   0.998  11.928  1.4624  0.0003 -1.0825
18984TIP3   OH278442   4.579   1.159  12.384  0.4299 -0.0253  0.0846
18984TIP3    H178443   4.569   1.238  12.437 -2.4316 -0.2049 -0.0772
18984TIP3    H278444   4.563   1.188  12.294  0.7047 -0.5712 -0.1508
18985TIP3   OH278445   0.494   0.273  12.433  0.0227  0.5079 -0.4706
18985TIP3    H178446   0.537   0.188  12.423  0.2836  0.6573 -0.6148
18985TIP3    H278447   0.488   0.308  12.344 -0.1519  0.6060 -0.4194
18986TIP3   OH278448   3.968   0.730  13.096  0.6822  0.9063  0.4195
18986TIP3    H178449   3.932   0.769  13.017  2.1163  1.5889  0.0727
18986TIP3    H278450   3.951   0.795  13.165 -2.6158 -0.6299  1.2624
18987TIP3   OH278451   1.264   4.282   1.273 -0.6143 -0.0229  0.0722
18987TIP3    H178452   1.298   4.295   1.362 -1.3277 -3.5326  0.9863
18987TIP3    H278453   1.339   4.253   1.222 -0.3391  1.4086 -0.3952
18988TIP3   OH278454   0.116   1.817   0.044  0.7852 -0.2488 -0.0128
18988TIP3    H178455   0.167   1.890   0.009  1.4323 -1.1544 -1.0390
18988TIP3    H278456   0.073   1.853   0.121  0.1356  1.5480 -1.1331
18989TIP3   OH278457   4.651   4.737  14.078  0.0149 -0.2830  0.4817
18989TIP3    H178458   4.738   4.761  14.110 -0.5473  1.0018  1.1093
18989TIP3    H278459   4.636   4.648  14.112  1.5040 -0.9731 -0.5501
18990TIP3   OH278460   3.476   1.588  16.939  0.1483 -0.1532 -0.1484
18990TIP3    H178461   3.507   1.677  16.919 -2.4280  0.6169 -1.0514
18990TIP3    H278462   3.382   1.590  16.921 -0.2766 -2.6632  1.3047
18991TIP3   OH278463   3.792   5.674  16.122 -0.3031 -0.3096  0.1653
18991TIP3    H178464   3.841   5.617  16.180 -0.8581  0.1548  1.1161
18991TIP3    H278465   3.827   5.656  16.034  0.0010 -1.5809  0.5379
18992TIP3   OH278466   3.045   5.828  15.035 -0.1984 -0.2482 -0.2333
18992TIP3    H178467   3.061   5.839  15.129  2.0291  0.9987 -0.6713
18992TIP3    H278468   3.034   5.734  15.023 -2.1408 -0.3136  1.4364
18993TIP3   OH278469   3.268   0.617   1.192 -0.5509  0.1569 -0.2556
18993TIP3    H178470   3.317   0.660   1.261 -1.1900 -0.1118  0.3788
18993TIP3    H278471   3.330   0.608   1.120 -0.2483  1.6431 -0.2115
18994TIP3   OH278472   1.266   2.197  12.320  0.4870 -0.2703  0.3511
18994TIP3    H178473   1.176   2.164  12.314 -0.3585  1.9200  0.1691
18994TIP3    H278474   1.296   2.198  12.229  0.2301  0.1756  0.2674
18995TIP3   OH278475   5.100   4.381  13.060  0.0640 -0.6800  0.1723
18995TIP3    H178476   5.055   4.340  13.134  0.0149  0.4126  0.7635
18995TIP3    H278477   5.030   4.406  13.001  0.1516 -2.4329 -0.7532
18996TIP3   OH278478   3.641   5.048   2.601  0.6888 -0.4460  0.3059
18996TIP3    H178479   3.705   5.119   2.607  1.3954 -1.1315  0.9065
18996TIP3    H278480   3.595   5.050   2.685  1.3669 -1.3115  0.7058
18997TIP3   OH278481   2.271   4.030  13.410  0.0369 -0.6216 -0.3539
18997TIP3    H178482   2.229   4.031  13.496 -1.2930 -1.2125 -0.9722
18997TIP3    H278483   2.204   3.997  13.351  0.7758  0.2253 -1.7125
18998TIP3   OH278484   3.481   2.794  11.664 -0.5880  0.0130 -0.2686
18998TIP3    H178485   3.533   2.780  11.743 -1.2040 -0.6563  0.0344
18998TIP3    H278486   3.453   2.885  11.669  0.2283  0.2719 -0.2460
18999TIP3   OH278487   4.815   5.026  16.914  0.0194 -0.2942  0.1078
18999TIP3    H178488   4.748   4.992  16.854  1.0620 -0.5866 -0.9304
18999TIP3    H278489   4.767   5.084  16.973 -1.0503  0.0148 -1.0208
19000TIP3   OH278490   1.129   3.116  16.966 -0.0105  0.6057 -0.2238
19000TIP3    H178491   1.157   3.093  16.877  1.7164  1.8681 -0.0553
19000TIP3    H278492   1.042   3.154  16.954 -0.8782 -1.4406 -1.0428
19001TIP3   OH278493   6.474   6.101  11.074 -0.5013 -0.0777  0.4239
19001TIP3    H178494   6.456   6.088  10.981 -1.2643 -1.0119  0.6829
19001TIP3    H278495   6.467   6.195  11.087  0.9156  0.2199 -0.7026
19002TIP3   OH278496   3.702   3.138  16.111  0.3728 -0.7496 -0.2533
19002TIP3    H178497   3.675   3.091  16.191  1.5327  0.3093  0.7944
19002TIP3    H278498   3.715   3.228  16.140 -1.0119  0.0873 -2.0626
19003TIP3   OH278499   4.330   2.899  14.064 -0.0258  0.1860 -0.0105
19003TIP3    H178500   4.273   2.823  14.060  1.2118 -0.7891  0.3089
19003TIP3    H278501   4.298   2.950  14.139  0.4633 -1.1372  1.1311
19004TIP3   OH278502   4.004   6.384   3.154 -0.4465 -0.3504 -0.9580
19004TIP3    H178503   3.911   6.404   3.162 -0.0842  0.4515  2.9241
19004TIP3    H278504   4.008   6.289   3.144 -1.6716 -0.4508 -0.5917
19005TIP3   OH278505   2.719   6.604  16.739  0.3957  0.5426  0.0754
19005TIP3    H178506   2.676   6.529  16.781  1.3174  0.1405  0.3274
19005TIP3    H278507   2.651   6.672  16.736 -0.6417 -0.4839 -0.7030
19006TIP3   OH278508   1.784   3.292  12.949 -0.7309 -0.0001  0.2399
19006TIP3    H178509   1.723   3.306  12.876 -0.3549  0.3464 -0.0111
19006TIP3    H278510   1.829   3.375  12.960 -1.5254  0.2816  1.5753
19007TIP3   OH278511   1.670   4.210   4.577  0.1896  0.0557  0.0503
19007TIP3    H178512   1.701   4.184   4.664  0.7244 -0.1866 -0.2087
19007TIP3    H278513   1.733   4.276   4.548 -1.0218  1.5187  0.6055
19008TIP3   OH278514   1.126   2.297   2.174  0.3776 -0.6868  0.1521
19008TIP3    H178515   1.083   2.372   2.133 -1.1208  0.2611  3.2107
19008TIP3    H278516   1.203   2.333   2.217 -0.2361 -0.8817  1.4687
19009TIP3   OH278517   3.059   5.948  13.085  0.3623  0.1717  0.1661
19009TIP3    H178518   3.055   5.974  12.993 -2.8521 -0.7708 -0.1009
19009TIP3    H278519   2.982   5.990  13.124  0.3829 -1.2791  1.8737
19010TIP3   OH278520   3.973   0.273  13.623 -0.4807 -0.3937  0.6684
19010TIP3    H178521   3.880   0.295  13.610 -0.4224 -0.6522 -0.1972
19010TIP3    H278522   3.971   0.200  13.686 -0.8953 -0.6945  0.3148
19011TIP3   OH278523   1.577   4.137   2.453  0.0508  0.0620 -0.1908
19011TIP3    H178524   1.635   4.092   2.514 -1.2852  0.3368  1.3595
19011TIP3    H278525   1.633   4.159   2.378  1.3880 -1.6068  0.2633
19012TIP3   OH278526   5.554   1.042   3.111  0.6089  0.1236 -0.2793
19012TIP3    H178527   5.567   1.136   3.119  2.1342 -0.0979  0.1291
19012TIP3    H278528   5.557   1.009   3.200 -0.8907 -0.2311 -0.3250
19013TIP3   OH278529   5.228   1.236  12.956  0.4411 -0.0586  0.1231
19013TIP3    H178530   5.322   1.242  12.971  0.3168  1.0025  0.5713
19013TIP3    H278531   5.199   1.163  13.012  0.7633  0.6071  1.1821
19014TIP3   OH278532   4.211   0.870   4.846  0.1597  0.1206 -0.3380
19014TIP3    H178533   4.305   0.885   4.843 -0.1301  2.1876 -2.5385
19014TIP3    H278534   4.174   0.945   4.799 -2.6731 -0.0624  1.3688
19015TIP3   OH278535   1.276   2.463   3.676  0.6089 -0.1731 -0.1589
19015TIP3    H178536   1.348   2.412   3.713  1.0446 -0.0311 -0.7954
19015TIP3    H278537   1.208   2.398   3.657  0.2587 -0.2050  1.1603
19016TIP3   OH278538   1.524   1.542  11.189  0.2842 -0.1746 -0.4016
19016TIP3    H178539   1.468   1.519  11.115  2.1033  1.2156 -2.3269
19016TIP3    H278540   1.481   1.618  11.229 -0.2097 -0.3234 -0.6470
19017TIP3   OH278541   4.620   1.979  11.497 -0.1048 -0.1339  0.2367
19017TIP3    H178542   4.686   2.003  11.563 -0.9832  0.9243  0.7620
19017TIP3    H278543   4.630   2.046  11.430 -0.9629  0.3264  0.5565
19018TIP3   OH278544   2.760   2.840  11.407 -0.0196 -0.2733  0.1740
19018TIP3    H178545   2.763   2.776  11.336 -1.2296 -0.1036 -0.0547
19018TIP3    H278546   2.715   2.916  11.370  2.2269  1.1495  0.1374
19019TIP3   OH278547   5.154   4.669  10.958 -0.3889  0.1720 -0.2065
19019TIP3    H178548   5.162   4.667  10.863 -0.5343  1.5432 -0.2761
19019TIP3    H278549   5.242   4.689  10.989 -0.6702  1.5199 -0.1849
19020TIP3   OH278550   4.163   1.451  12.045  0.0090 -0.0580  0.4785
19020TIP3    H178551   4.225   1.391  12.003  1.7741  0.6864  1.8861
19020TIP3    H278552   4.216   1.526  12.071 -1.3012  0.2248  2.5385
19021TIP3   OH278553   0.860   1.650   0.272 -0.2733 -1.0022 -0.1643
19021TIP3    H178554   0.947   1.666   0.308 -0.1510 -0.3604 -0.7252
19021TIP3    H278555   0.856   1.555   0.260  0.0745 -1.1110  0.5315
19022TIP3   OH278556   0.538   3.776   4.421  0.2475  0.2721  0.2540
19022TIP3    H178557   0.449   3.780   4.456 -0.5842  0.0814 -1.7233
19022TIP3    H278558   0.552   3.683   4.403  1.2739  0.1558  1.4799
19023TIP3   OH278559   1.922   5.158   1.295 -0.2728  0.7564  0.0339
19023TIP3    H178560   1.913   5.093   1.365 -0.8262  0.0895 -0.6338
19023TIP3    H278561   2.016   5.172   1.287 -0.0857 -0.6607 -0.4247
19024TIP3   OH278562   3.764   3.338  17.079  0.0848 -0.7476 -0.1407
19024TIP3    H178563   3.693   3.305  17.133 -1.9213 -0.2763 -2.3256
19024TIP3    H278564   3.811   3.260  17.050 -1.2199 -1.3060 -0.8158
19025TIP3   OH278565   4.119   1.165  16.648 -0.3633 -0.3440 -0.2629
19025TIP3    H178566   4.154   1.235  16.703  0.1873  0.4256 -1.5524
19025TIP3    H278567   4.042   1.203  16.607 -0.0643 -0.4747 -0.9646
19026TIP3   OH278568   1.829   4.913  13.417  1.0779  0.1917  0.1742
19026TIP3    H178569   1.849   4.925  13.325 -0.5875 -2.4267 -0.6509
19026TIP3    H278570   1.889   4.844  13.446  1.0086  0.3918  0.8098
19027TIP3   OH278571   3.651   4.015   0.676 -0.4465  0.3796  0.1285
19027TIP3    H178572   3.746   4.015   0.692  0.1333 -0.3267 -2.7848
19027TIP3    H278573   3.639   4.079   0.606 -2.2464  0.7660  0.7392
19028TIP3   OH278574   2.039   3.932  10.409  0.0565 -0.1482  0.1724
19028TIP3    H178575   1.958   3.965  10.371  0.3852  0.4174 -0.0563
19028TIP3    H278576   2.020   3.923  10.503  0.1739  1.4430  0.3797
19029TIP3   OH278577   0.155   4.348   1.965 -0.3935  0.3785 -0.0435
19029TIP3    H178578   0.104   4.291   2.022 -0.0298 -0.0158 -0.1055
19029TIP3    H278579   0.155   4.433   2.009  1.0475 -0.2594  1.2777
19030TIP3   OH278580   4.134   1.328  15.970  0.0781 -0.1026  0.1007
19030TIP3    H178581   4.101   1.332  16.059  0.8721 -2.0876  0.5257
19030TIP3    H278582   4.183   1.246  15.965 -0.6105 -0.4624 -2.3883
19031TIP3   OH278583   5.412   2.766  11.843 -0.5311 -0.2511 -0.4120
19031TIP3    H178584   5.419   2.727  11.756  0.1767 -0.7307 -0.1458
19031TIP3    H278585   5.345   2.834  11.833 -0.9007 -0.7101 -1.1789
19032TIP3   OH278586   3.132   4.112   2.265  0.0649 -0.4353 -0.2189
19032TIP3    H178587   3.165   4.185   2.213  0.6723  0.8250  1.7986
19032TIP3    H278588   3.210   4.066   2.295 -0.0590  0.4575  1.6714
19033TIP3   OH278589   6.194   2.511  16.375  0.4944  0.5779  0.5367
19033TIP3    H178590   6.283   2.515  16.342 -0.0214 -0.6120 -1.1641
19033TIP3    H278591   6.157   2.432  16.335 -0.6089 -0.2769  3.0768
19034TIP3   OH278592   6.242   3.315   3.853 -0.0378 -0.1659  0.1909
19034TIP3    H178593   6.285   3.267   3.782  0.6882  1.7016 -0.6850
19034TIP3    H278594   6.167   3.357   3.811  0.7392  1.4448  0.3708
19035TIP3   OH278595   4.587   1.381  14.734 -0.0577 -0.4634 -0.0782
19035TIP3    H178596   4.606   1.440  14.807  0.3897  1.9713 -2.0273
19035TIP3    H278597   4.503   1.411  14.699 -0.8540 -2.3333  0.0778
19036TIP3   OH278598   5.053   5.489   0.613 -0.6136 -0.3779  0.4638
19036TIP3    H178599   4.964   5.521   0.598 -1.1261 -1.0234  1.9778
19036TIP3    H278600   5.106   5.569   0.621 -1.0671  0.0126 -0.3301
19037TIP3   OH278601   0.448   3.601  14.174 -0.3203 -0.0034 -0.0820
19037TIP3    H178602   0.477   3.534  14.235  1.3889  0.1275 -0.7115
19037TIP3    H278603   0.482   3.683  14.210  0.2735  0.1340 -0.9445
19038TIP3   OH278604   2.232   3.545   0.164  0.4874 -0.2907  0.4108
19038TIP3    H178605   2.302   3.608   0.147 -0.3560  0.0872 -1.9835
19038TIP3    H278606   2.273   3.460   0.157  1.5786 -0.1265  3.3888
19039TIP3   OH278607   0.114   4.922  14.212  0.1885  0.0214 -0.0890
19039TIP3    H178608   0.083   5.005  14.249 -2.1622  0.2565 -2.3099
19039TIP3    H278609   0.118   4.863  14.288 -1.1838  1.3278  1.0839
19040TIP3   OH278610   5.087   4.553   6.101  0.4753 -0.0273 -0.3950
19040TIP3    H178611   5.142   4.541   6.024  0.6482 -2.9348  0.0467
19040TIP3    H278612   5.147   4.540   6.175  0.0022  1.0867  0.1966
19041TIP3   OH278613   0.378   0.240  11.507  0.0291 -0.0306 -0.4745
19041TIP3    H178614   0.421   0.198  11.432 -0.8848  0.0228 -1.0409
19041TIP3    H278615   0.324   0.171  11.546  1.3869 -0.3825  0.8627
19042TIP3   OH278616   5.959   0.861  15.662 -0.1118 -0.1307  0.3361
19042TIP3    H178617   5.897   0.789  15.649  0.3464 -1.1973  3.3099
19042TIP3    H278618   5.936   0.898  15.747  1.7596  1.0677  0.3754
19043TIP3   OH278619   5.907   0.635  13.965 -0.4860 -0.2686  0.5713
19043TIP3    H178620   5.918   0.568  13.897 -1.1338 -0.8027  0.9804
19043TIP3    H278621   5.813   0.637  13.981 -0.2701 -0.6282  1.9379
19044TIP3   OH278622   5.576   0.468  15.287  0.4676 -0.4478 -0.3383
19044TIP3    H178623   5.665   0.495  15.309  0.3300 -0.2235 -0.0476
19044TIP3    H278624   5.520   0.521  15.344  0.2007 -1.5891  0.4829
19045TIP3   OH278625   1.662   2.185   5.944 -0.5132 -0.1383  0.2785
19045TIP3    H178626   1.594   2.172   5.878 -0.4591  0.1905  0.1614
19045TIP3    H278627   1.614   2.190   6.027 -0.6176 -0.0778  0.2141
19046TIP3   OH278628   2.122   2.164  14.553 -0.2304 -0.5405 -0.2026
19046TIP3    H178629   2.099   2.204  14.636  1.5605  0.0892  0.0320
19046TIP3    H278630   2.040   2.126  14.521 -1.4199  1.0563  0.8071
19047TIP3   OH278631   6.090   5.835   4.649 -0.6030 -0.6160  0.1913
19047TIP3    H178632   6.121   5.923   4.668  0.3615 -0.7251 -0.7886
19047TIP3    H278633   6.001   5.833   4.682 -0.5421  0.6332  0.4693
19048TIP3   OH278634   2.350   3.826  11.607  0.2921 -0.0114 -0.0949
19048TIP3    H178635   2.430   3.833  11.555 -1.2051  3.8159 -2.3066
19048TIP3    H278636   2.374   3.860  11.693  1.7920 -2.4035  0.5223
19049TIP3   OH278637   0.492   1.227   0.448  0.2260  0.1931 -0.2781
19049TIP3    H178638   0.555   1.182   0.392  0.3027  0.3598 -0.3264
19049TIP3    H278639   0.408   1.213   0.405  0.3934  1.0903 -0.9417
19050TIP3   OH278640   3.127   4.807  14.616  0.3150 -0.4055  0.0588
19050TIP3    H178641   3.032   4.801  14.625  0.0840  2.5917  0.6646
19050TIP3    H278642   3.157   4.842  14.700  1.5910  1.1768 -0.9987
19051TIP3   OH278643   4.756   2.165   0.938 -0.7322 -0.1932 -0.1510
19051TIP3    H178644   4.788   2.149   1.027 -0.7036  0.2829 -0.0760
19051TIP3    H278645   4.774   2.258   0.922  0.5502 -0.5760 -1.1589
19052TIP3   OH278646   4.354   3.307  14.388  0.4130 -0.9468 -0.0143
19052TIP3    H178647   4.301   3.250  14.332 -0.0190 -0.8216  0.2645
19052TIP3    H278648   4.409   3.247  14.439 -0.6992 -1.1743  0.9534
19053TIP3   OH278649   1.003   0.328   1.463  0.0346 -0.0889 -0.3265
19053TIP3    H178650   1.063   0.292   1.399  1.2797  2.0141 -0.4365
19053TIP3    H278651   1.058   0.348   1.539 -0.9191 -0.0409  0.3695
19054TIP3   OH278652   6.609   1.695   6.117  0.5906 -0.0014  0.1803
19054TIP3    H178653   6.528   1.647   6.136 -0.7342  1.8525 -0.4724
19054TIP3    H278654   6.623   1.751   6.193  2.5784 -1.8595  1.3012
19055TIP3   OH278655   0.480   3.188  12.652  0.1000  0.1892  0.1082
19055TIP3    H178656   0.431   3.266  12.677 -1.5997 -1.0479  0.7633
19055TIP3    H278657   0.546   3.220  12.590 -1.4625  1.9105 -0.7332
19056TIP3   OH278658   4.121   2.564   3.093 -0.5729 -0.2157 -0.8287
19056TIP3    H178659   4.145   2.656   3.091 -0.6992 -0.1580 -0.1307
19056TIP3    H278660   4.026   2.563   3.097 -0.5856 -0.3839 -1.1626
19057TIP3   OH278661   5.066   2.518   3.567  0.3223 -0.1831  0.1531
19057TIP3    H178662   5.140   2.461   3.549  0.4183 -0.2237  0.6693
19057TIP3    H278663   5.083   2.554   3.654 -0.4686 -0.5207  0.4587
19058TIP3   OH278664   4.284   0.576   4.855  0.1229  0.2594 -0.2242
19058TIP3    H178665   4.258   0.520   4.781 -0.8024  1.4477 -0.8342
19058TIP3    H278666   4.244   0.660   4.836  0.3696  0.7616  1.3600
19059TIP3   OH278667   2.434   0.220  16.533  0.2245  0.1248  0.7283
19059TIP3    H178668   2.431   0.218  16.438  0.9773  0.4167  0.6903
19059TIP3    H278669   2.465   0.308  16.554  1.2338 -0.3274  1.1976
19060TIP3   OH278670   6.093   6.598   2.645 -0.3310 -0.2346  0.3671
19060TIP3    H178671   6.149   6.610   2.722 -0.2334  0.2981  0.2121
19060TIP3    H278672   6.088   6.502   2.635  0.6293 -0.2957  0.3315
19061TIP3   OH278673   5.453   4.627   4.253  0.5791  0.2024  0.4002
19061TIP3    H178674   5.447   4.679   4.334 -0.0631  0.6603  0.0708
19061TIP3    H278675   5.436   4.690   4.183  3.7276  0.4084 -0.3343
19062TIP3   OH278676   0.121   3.052  12.727 -0.4107 -0.3041 -0.0965
19062TIP3    H178677   0.079   3.042  12.812  0.3347 -1.4216  0.1618
19062TIP3    H278678   0.133   3.146  12.717  0.3648 -0.2019  1.4847
19063TIP3   OH278679   3.088   6.686   1.620  0.1297 -0.6661 -0.1161
19063TIP3    H178680   3.099   6.595   1.650 -0.7499 -0.1886  1.8596
19063TIP3    H278681   3.117   6.738   1.695  0.2747  0.6990 -1.0939
19064TIP3   OH278682   4.274   5.765  15.093 -0.0849  0.1688 -0.5498
19064TIP3    H178683   4.251   5.818  15.169 -0.1909  1.7466 -1.6101
19064TIP3    H278684   4.367   5.783  15.078 -0.4590  1.3183 -1.7919
19065TIP3   OH278685   1.375   6.185  15.582  0.2685  0.5869  0.2984
19065TIP3    H178686   1.368   6.214  15.492 -0.1189 -0.4389 -0.0226
19065TIP3    H278687   1.352   6.262  15.635  0.8888  1.3035 -0.4483
19066TIP3   OH278688   0.771   5.947   6.500  0.5098  0.5634 -0.5354
19066TIP3    H178689   0.813   5.874   6.546  0.2976  0.7237 -0.0795
19066TIP3    H278690   0.827   5.963   6.425 -0.0312 -0.8046 -1.2708
19067TIP3   OH278691   5.388   2.201   2.740  0.4951 -0.4476 -0.6764
19067TIP3    H178692   5.295   2.207   2.719  0.6203 -0.8031 -1.3736
19067TIP3    H278693   5.392   2.143   2.816  0.1012  0.0764 -0.2506
19068TIP3   OH278694   2.421   0.133  14.696  0.1512 -0.2632  0.1754
19068TIP3    H178695   2.380   0.209  14.655  0.0072 -1.0567 -1.2500
19068TIP3    H278696   2.447   0.163  14.783 -1.7185  0.8151  0.4216
19069TIP3   OH278697   2.760   4.325   4.643  0.4218  0.5478 -0.1873
19069TIP3    H178698   2.845   4.315   4.600  0.5558  1.9835 -0.2976
19069TIP3    H278699   2.726   4.408   4.610 -1.2302 -0.1883 -0.4669
19070TIP3   OH278700   0.029   6.617   4.913 -0.2582  0.3770  0.5468
19070TIP3    H178701  -0.023   6.538   4.931  0.4123 -0.0699  0.5827
19070TIP3    H278702   0.097   6.617   4.981 -0.6261  1.3396  0.9335
19071TIP3   OH278703   2.766   4.527   6.866 -0.2093 -0.1062  0.5166
19071TIP3    H178704   2.685   4.507   6.912  0.3676  0.4236  1.8082
19071TIP3    H278705   2.752   4.495   6.777 -2.9893  2.5429 -0.1811
19072TIP3   OH278706   0.612   1.313  14.115  0.0597 -0.6466  0.3770
19072TIP3    H178707   0.550   1.282  14.049 -1.5737  2.3081  0.3696
19072TIP3    H278708   0.580   1.277  14.198  0.0408 -1.4472  0.0365
19073TIP3   OH278709   0.663   0.518  14.923 -0.1989 -0.1268  0.2906
19073TIP3    H178710   0.609   0.516  14.844  1.3356 -2.1167 -0.8318
19073TIP3    H278711   0.608   0.479  14.991  0.1043 -3.5444 -1.1642
19074TIP3   OH278712   3.999   2.909   2.743 -0.4428 -0.5011 -0.0201
19074TIP3    H178713   3.947   2.970   2.690  0.2832 -0.8998 -1.2229
19074TIP3    H278714   4.006   2.831   2.689  2.9718  0.1747 -0.7849
19075TIP3   OH278715   1.739   1.265   1.895  0.0684 -0.0808 -0.3095
19075TIP3    H178716   1.719   1.356   1.912 -3.6369 -0.2680 -2.5618
19075TIP3    H278717   1.717   1.252   1.803  3.7296 -2.5598 -1.0942
19076TIP3   OH278718   0.319   3.142   3.522 -0.0238 -0.1938  0.2157
19076TIP3    H178719   0.305   3.049   3.505  1.2017 -0.2803 -0.4043
19076TIP3    H278720   0.294   3.153   3.614 -2.6633 -0.5834 -0.3716
19077TIP3   OH278721   2.972   2.806   2.632  0.2847  0.0297  0.4699
19077TIP3    H178722   3.016   2.860   2.697 -0.3942  0.6868  0.3951
19077TIP3    H278723   2.893   2.775   2.676  0.5157 -0.6603  0.4096
19078TIP3   OH278724   3.380   3.279  13.123 -0.2905  0.3868  0.0353
19078TIP3    H178725   3.345   3.356  13.169  1.8160  1.3018  0.2319
19078TIP3    H278726   3.405   3.219  13.194  0.5279  0.6762 -0.0010
19079TIP3   OH278727   5.031   2.464   1.006  0.2245 -0.5603 -0.3510
19079TIP3    H178728   5.102   2.406   1.032  1.2783  0.4504 -0.8907
19079TIP3    H278729   5.070   2.524   0.943 -0.8297  0.7035  0.1285
19080TIP3   OH278730   2.588   4.779  16.539  0.2250  0.1847  0.3969
19080TIP3    H178731   2.612   4.861  16.496 -0.4357  1.3630  2.1606
19080TIP3    H278732   2.493   4.782  16.545  0.2682 -0.1676  1.4855
19081TIP3   OH278733   3.978   1.383   2.609 -0.5620  0.1514  0.3434
19081TIP3    H178734   3.986   1.344   2.696  0.0340 -0.5254 -0.0015
19081TIP3    H278735   4.042   1.454   2.610 -0.1605 -0.2011  0.2849
19082TIP3   OH278736   2.147   4.474  13.397  0.7431 -0.2991  0.5608
19082TIP3    H178737   2.212   4.531  13.356 -0.0730  1.0974  1.1098
19082TIP3    H278738   2.136   4.401  13.337  1.0548  0.6702 -0.7067
19083TIP3   OH278739   6.114   0.944   1.097 -0.4514  0.8379 -0.1676
19083TIP3    H178740   6.131   0.850   1.103  1.4339  1.0549 -1.1907
19083TIP3    H278741   6.022   0.950   1.073 -1.3823 -0.6234  2.5840
19084TIP3   OH278742   0.875   0.674  14.914  0.7091  0.0744  0.8790
19084TIP3    H178743   0.806   0.609  14.901  0.7633 -0.0579  1.2498
19084TIP3    H278744   0.875   0.725  14.832  0.5232 -0.2509  0.6738
19085TIP3   OH278745   4.268   1.939  12.328  0.5186  0.0935 -0.5859
19085TIP3    H178746   4.204   1.959  12.261 -2.9353  0.3268  2.4792
19085TIP3    H278747   4.326   2.015  12.330  0.9775 -0.0898 -3.4107
19086TIP3   OH278748   6.688   1.107  11.622 -0.1246  0.2601 -0.0967
19086TIP3    H178749   6.684   1.038  11.688  1.7545  0.3520  0.1882
19086TIP3    H278750   6.703   1.060  11.540  0.1059  0.2700 -0.0612
19087TIP3   OH278751   3.196   5.575  11.064 -0.1920 -0.2558 -0.1410
19087TIP3    H178752   3.232   5.618  10.986 -1.9915  1.4908 -0.0988
19087TIP3    H278753   3.151   5.498  11.029 -1.4479  0.8011 -0.9630
19088TIP3   OH278754   2.181   6.497   1.224  0.0010 -0.0685 -0.3737
19088TIP3    H178755   2.224   6.432   1.279  0.9746  1.4679  0.7557
19088TIP3    H278756   2.243   6.514   1.154  0.6850  1.1437  0.4963
19089TIP3   OH278757   6.706   0.269   4.130 -0.4130  0.2838  0.1966
19089TIP3    H178758   6.742   0.185   4.158  0.3491 -0.4898 -2.7354
19089TIP3    H278759   6.619   0.246   4.095 -0.2003  0.6911 -0.6143
19090TIP3   OH278760   2.907   4.423  12.935 -0.0443  0.1296  0.3212
19090TIP3    H178761   2.991   4.464  12.955 -0.3838 -0.2793  2.9434
19090TIP3    H278762   2.913   4.336  12.975 -1.7762  0.1866  0.7844
19091TIP3   OH278763   5.043   6.605  13.002 -0.1866  0.4036 -0.2152
19091TIP3    H178764   5.006   6.656  13.074 -0.8394 -0.7499  0.2964
19091TIP3    H278765   5.051   6.668  12.930 -0.0457  1.4475  0.6826
19092TIP3   OH278766   1.442   3.866  15.894  0.3925 -0.2943 -0.0372
19092TIP3    H178767   1.415   3.953  15.866  1.3462 -0.6355 -2.2507
19092TIP3    H278768   1.446   3.815  15.813  0.4252 -2.2443  1.1285
19093TIP3   OH278769   3.655   6.382  11.817 -0.4884 -0.3853  0.4485
19093TIP3    H178770   3.636   6.288  11.810 -1.7241 -0.0871 -0.7712
19093TIP3    H278771   3.597   6.422  11.752  1.3801  1.0424 -0.4342
19094TIP3   OH278772   5.202   1.921   4.532  0.1730 -0.1437  0.5513
19094TIP3    H178773   5.126   1.874   4.567 -0.1372  0.3565  0.5759
19094TIP3    H278774   5.277   1.868   4.556 -0.3505 -2.4202 -2.3618
19095TIP3   OH278775   2.172   0.799   2.136 -0.2435 -0.0382  0.0833
19095TIP3    H178776   2.177   0.752   2.053 -3.3660  0.1466 -0.3583
19095TIP3    H278777   2.148   0.889   2.111  0.9275  0.6054  1.1292
19096TIP3   OH278778   2.243   2.250   3.518 -0.8148  0.3101 -0.0380
19096TIP3    H178779   2.300   2.178   3.490 -0.0910  1.2664 -1.0962
19096TIP3    H278780   2.242   2.243   3.614 -0.1109 -0.6251 -0.0832
19097TIP3   OH278781   0.737   6.156  16.167  0.3319 -0.4415 -1.0275
19097TIP3    H178782   0.806   6.108  16.121  0.1797 -0.2716 -1.4413
19097TIP3    H278783   0.773   6.244  16.178  2.0119 -1.4201  2.7208
19098TIP3   OH278784   1.837   1.121   4.457  0.5587  0.4532  0.0147
19098TIP3    H178785   1.854   1.030   4.478 -1.2874 -0.0397 -0.4087
19098TIP3    H278786   1.923   1.161   4.447  1.3961 -1.0927  0.7929
19099TIP3   OH278787   5.426   3.803   1.651  0.7051 -0.0462 -0.0893
19099TIP3    H178788   5.513   3.787   1.612  0.6916 -1.1096  0.2752
19099TIP3    H278789   5.435   3.774   1.742  0.6504  2.1283  0.6633
19100TIP3   OH278790   1.717   3.091  14.585 -0.6529  0.2901 -0.1764
19100TIP3    H178791   1.751   3.084  14.496 -1.6881  1.7521 -0.7116
19100TIP3    H278792   1.645   3.027  14.589  0.4239 -0.9531  0.1632
19101TIP3   OH278793   2.085   1.738  13.551  0.4404 -0.8158  0.2949
19101TIP3    H178794   2.129   1.789  13.619 -0.1118 -1.0147  0.8066
19101TIP3    H278795   1.991   1.749  13.568  0.2984 -2.5877  0.8759
19102TIP3   OH278796   2.679   4.557   6.103  0.5096  0.4025 -0.6882
19102TIP3    H178797   2.734   4.479   6.095  0.4096  0.3489 -0.8637
19102TIP3    H278798   2.682   4.579   6.196 -1.0129 -0.9478 -0.2704
19103TIP3   OH278799   3.776   3.279  13.136  0.1218  0.1895 -1.0299
19103TIP3    H178800   3.804   3.203  13.186  1.6809  0.9427 -0.6951
19103TIP3    H278801   3.730   3.334  13.199 -0.6725 -0.2731 -1.1868
19104TIP3   OH278802   4.102   4.347   4.397  0.5066 -0.3251  0.2355
19104TIP3    H178803   4.061   4.427   4.364 -0.8285 -1.7428 -1.7798
19104TIP3    H278804   4.028   4.290   4.420  1.4233 -1.0928  1.4019
19105TIP3   OH278805   0.986   3.600  11.871 -0.0654 -0.2301 -0.2300
19105TIP3    H178806   1.026   3.658  11.805 -0.4367  1.2015  0.7624
19105TIP3    H278807   0.912   3.560  11.826 -0.4093  0.8541 -0.6581
19106TIP3   OH278808   1.839   5.762  15.428  0.2567 -0.2275  0.1390
19106TIP3    H178809   1.895   5.781  15.352  2.0806  0.3260  1.5693
19106TIP3    H278810   1.786   5.841  15.438 -0.7372 -0.6874 -1.1192
19107TIP3   OH278811   2.002   0.945  16.930  0.6387  0.1943 -0.0264
19107TIP3    H178812   1.944   0.966  16.857 -1.5572 -0.8813  1.2870
19107TIP3    H278813   1.983   0.853  16.950  0.7236  0.5958  2.2232
19108TIP3   OH278814   5.254   1.856   1.779 -0.0125  0.5065  0.2897
19108TIP3    H178815   5.234   1.778   1.829 -1.2418  0.2924 -0.4954
19108TIP3    H278816   5.343   1.880   1.806  1.0574 -2.0764 -0.6266
19109TIP3   OH278817   3.580   2.940   2.456  0.1655  0.0503 -0.7106
19109TIP3    H178818   3.625   3.023   2.469 -1.8473  1.0554  0.2619
19109TIP3    H278819   3.577   2.929   2.361 -0.7637  1.8435 -0.9327
19110TIP3   OH278820   2.049   4.862   3.845 -0.1747  0.1496 -0.0240
19110TIP3    H178821   2.122   4.844   3.787 -1.6904 -1.7888 -1.4539
19110TIP3    H278822   2.046   4.958   3.851  1.0151  0.3402 -1.8580
19111TIP3   OH278823   1.772   3.135   6.557 -0.3850 -0.2703 -0.0590
19111TIP3    H178824   1.753   3.126   6.650  0.0275 -0.3550  0.0151
19111TIP3    H278825   1.691   3.170   6.520 -0.6851 -0.6171  0.2657
19112TIP3   OH278826   5.944   3.041   4.547  0.1749 -0.2620 -0.1616
19112TIP3    H178827   5.896   2.962   4.571  1.7341 -1.0604  0.4347
19112TIP3    H278828   5.994   3.064   4.625  1.9425 -0.3561 -1.2037
19113TIP3   OH278829   3.580   4.958  13.207 -0.2386 -0.7798  0.2988
19113TIP3    H178830   3.580   4.940  13.113  0.0326  0.9590 -0.0716
19113TIP3    H278831   3.672   4.950  13.233 -0.2481 -0.8024  0.3254
19114TIP3   OH278832   5.423   0.999   0.304 -0.5517 -0.3559  0.0512
19114TIP3    H178833   5.401   0.939   0.233  1.3056 -1.7929  0.6274
19114TIP3    H278834   5.412   1.086   0.266  2.0640 -1.0364 -2.6590
19115TIP3   OH278835   6.062   5.794  11.246  0.5681  0.0100 -0.1895
19115TIP3    H178836   6.070   5.768  11.154  1.8418 -0.5357  0.0506
19115TIP3    H278837   6.041   5.713  11.293 -0.5986  0.3811 -0.0536
19116TIP3   OH278838   4.247   3.796  15.221  0.6514 -0.2177 -0.4143
19116TIP3    H178839   4.226   3.851  15.146  1.1793  1.3513  0.5275
19116TIP3    H278840   4.165   3.790  15.270  0.3019 -1.2596 -1.1171
19117TIP3   OH278841   5.575   1.468   1.513 -0.1689  0.2251 -0.2310
19117TIP3    H178842   5.513   1.441   1.445 -0.4951  1.6917 -0.5647
19117TIP3    H278843   5.534   1.545   1.553  1.1865  0.9107 -0.0957
19118TIP3   OH278844   0.663   5.649   4.363 -0.5285  0.0579  0.6269
19118TIP3    H178845   0.614   5.575   4.329  0.0028  0.1462 -0.3955
19118TIP3    H278846   0.737   5.658   4.303 -0.2878  1.0717  1.0476
19119TIP3   OH278847   0.960   4.277   2.544  0.0810 -0.4062  0.0559
19119TIP3    H178848   1.037   4.227   2.518 -0.2375 -0.7193 -0.3029
19119TIP3    H278849   0.943   4.336   2.471 -1.6177 -2.2226 -1.1640
19120TIP3   OH278850   6.016   1.355  15.569 -0.0707 -0.4658 -0.0214
19120TIP3    H178851   5.940   1.356  15.627  0.2461  3.4674  0.5583
19120TIP3    H278852   5.980   1.335  15.483 -1.4278 -0.7879  0.5939
19121TIP3   OH278853   2.404   0.738  16.929 -0.2364  0.5298 -0.6474
19121TIP3    H178854   2.437   0.796  16.860  1.8794 -1.0991 -1.0955
19121TIP3    H278855   2.427   0.783  17.010 -0.4131  1.2527 -0.9897
19122TIP3   OH278856   3.753   6.608  12.207  0.3070  0.1497 -0.0521
19122TIP3    H178857   3.733   6.532  12.151  0.4903  0.3483 -0.3956
19122TIP3    H278858   3.677   6.665  12.198  1.0211  0.9377 -1.4136
19123TIP3   OH278859   0.971   1.438   4.807 -0.2158  0.2139 -0.6863
19123TIP3    H178860   0.936   1.399   4.887  1.2850 -0.9108 -0.5471
19123TIP3    H278861   0.950   1.531   4.814  0.9174  0.3504  1.5751
19124TIP3   OH278862   3.402   3.805  12.764  0.2608  0.1950 -0.0040
19124TIP3    H178863   3.381   3.730  12.709  1.7115 -1.0793  1.0803
19124TIP3    H278864   3.361   3.784  12.849  0.9527  0.4700  0.4036
19125TIP3   OH278865   5.191   0.103   0.514  0.4053  0.3410  0.4778
19125TIP3    H178866   5.283   0.096   0.539 -0.0743 -0.9157  2.0417
19125TIP3    H278867   5.152   0.160   0.580 -0.1256  0.0836  0.3934
19126TIP3   OH278868   6.413   1.299  16.898  0.0725 -0.6491 -0.4909
19126TIP3    H178869   6.362   1.365  16.852  0.8303  0.5789  0.3740
19126TIP3    H278870   6.502   1.308  16.864  0.2630 -0.9514 -0.0899
19127TIP3   OH278871   0.511   1.767   0.787 -0.1530  0.2071  0.0098
19127TIP3    H178872   0.515   1.771   0.882  0.5819  0.5897 -0.0287
19127TIP3    H278873   0.521   1.858   0.758  0.2204  0.0246 -0.4488
19128TIP3   OH278874   1.805   0.297   1.922  0.7053  0.1404  0.0170
19128TIP3    H178875   1.792   0.217   1.972  2.9027  0.1390  0.6749
19128TIP3    H278876   1.897   0.320   1.936  0.7914  1.4084 -2.1828
19129TIP3   OH278877   0.821   1.825   3.907  0.3272 -0.0693 -0.2826
19129TIP3    H178878   0.875   1.873   3.970 -0.4579  0.0390  0.3216
19129TIP3    H278879   0.883   1.792   3.843  1.0964  0.1690  0.3237
19130TIP3   OH278880   1.317   6.830  10.566  0.2624 -0.3427 -0.5787
19130TIP3    H178881   1.406   6.810  10.538  0.8314  1.9485 -0.5970
19130TIP3    H278882   1.328   6.892  10.638 -1.3116  0.8743 -1.3222
19131TIP3   OH278883   2.762   5.622  15.657 -0.1849 -0.5340 -0.2424
19131TIP3    H178884   2.799   5.558  15.597  0.9522  0.0306 -0.1850
19131TIP3    H278885   2.679   5.648  15.618 -0.4180 -1.6591 -0.5199
19132TIP3   OH278886   3.406   5.455   4.391 -0.1016 -0.1775 -0.1946
19132TIP3    H178887   3.398   5.443   4.486  0.1638  0.9318 -0.0185
19132TIP3    H278888   3.369   5.542   4.375  0.9070  0.1308 -0.9500
19133TIP3   OH278889   1.746   4.896   5.784  0.4959 -0.1900 -0.6309
19133TIP3    H178890   1.791   4.954   5.845  3.2279 -0.8064 -1.9221
19133TIP3    H278891   1.747   4.811   5.828 -0.6174  0.0444 -0.1199
19134TIP3   OH278892   1.241   2.863  13.669 -0.7911 -0.4851  0.4592
19134TIP3    H178893   1.201   2.898  13.749  1.4703  2.3982  0.5059
19134TIP3    H278894   1.313   2.808  13.699 -0.8669 -0.6116  0.4079
19135TIP3   OH278895   2.196   5.874  12.021 -0.1721  0.0842 -0.1433
19135TIP3    H178896   2.171   5.786  12.052 -0.6379  0.9056  1.9744
19135TIP3    H278897   2.230   5.859  11.933 -0.5752 -2.1762  0.0127
19136TIP3   OH278898   2.338   4.676  12.616  0.0769  0.1835 -0.1812
19136TIP3    H178899   2.334   4.632  12.701  0.7186  0.0405 -0.2229
19136TIP3    H278900   2.430   4.672  12.591 -0.1433  0.0052 -0.9992
19137TIP3   OH278901   1.129   2.372  15.633  0.2698 -1.0048  0.4085
19137TIP3    H178902   1.041   2.408  15.618  0.3862 -1.3730 -1.4767
19137TIP3    H278903   1.156   2.408  15.717 -0.5082  1.5067 -0.3375
19138TIP3   OH278904   1.893   4.569  14.306 -0.1566 -0.7568 -0.3538
19138TIP3    H178905   1.807   4.549  14.268 -0.6406  1.0156 -0.2441
19138TIP3    H278906   1.949   4.585  14.230 -0.7924  1.4314 -0.4266
19139TIP3   OH278907   6.175   4.631   2.921 -0.2106 -0.1132  0.0301
19139TIP3    H178908   6.125   4.575   2.862  1.5160 -1.8684  0.0893
19139TIP3    H278909   6.120   4.640   2.999 -1.7294  0.7015 -1.0967
19140TIP3   OH278910   4.470   6.742  13.336  0.1430  1.1160  0.0058
19140TIP3    H178911   4.424   6.672  13.382 -0.8003  0.7823 -1.3640
19140TIP3    H278912   4.562   6.729  13.358 -0.1465  0.1821  0.7263
19141TIP3   OH278913   3.947   1.225  11.480 -0.1645 -0.2623 -0.5315
19141TIP3    H178914   3.959   1.287  11.552 -0.0352 -0.0279 -0.7565
19141TIP3    H278915   3.853   1.208  11.479  0.0813 -2.2370  1.3468
19142TIP3   OH278916   3.526   1.112   6.163 -0.4109  0.4998 -0.1625
19142TIP3    H178917   3.537   1.048   6.093 -0.3052  0.7157 -0.3458
19142TIP3    H278918   3.557   1.068   6.242 -0.4297  0.2929 -0.2716
19143TIP3   OH278919   5.634   1.691   4.813 -0.2333  0.1994 -0.6974
19143TIP3    H178920   5.618   1.601   4.784 -1.2175  0.6147 -1.5529
19143TIP3    H278921   5.636   1.687   4.908  3.5338 -1.2983 -0.6811
19144TIP3   OH278922   2.892   1.206   2.773  0.4729  0.1642 -0.1710
19144TIP3    H178923   2.867   1.244   2.689 -0.6825 -1.4567 -0.6053
19144TIP3    H278924   2.809   1.194   2.819  0.8748 -1.1064  0.2513
19145TIP3   OH278925   3.756   5.881   1.166  0.2353  0.6224 -0.7404
19145TIP3    H178926   3.821   5.831   1.214 -0.4789 -0.3434 -0.7559
19145TIP3    H278927   3.703   5.815   1.121 -1.1378  1.3502 -0.2419
19146TIP3   OH278928   5.310   4.366   6.182  0.2246  0.0468 -0.1458
19146TIP3    H178929   5.380   4.402   6.127  0.4131  1.2637  0.8368
19146TIP3    H278930   5.345   4.370   6.271 -0.2951 -1.3447  0.1557
19147TIP3   OH278931   6.427   4.777   0.693  0.2386  0.1411  0.1145
19147TIP3    H178932   6.342   4.759   0.735  0.7269  0.7068  1.3744
19147TIP3    H278933   6.443   4.870   0.709  1.0277  0.0760 -0.2506
19148TIP3   OH278934   5.295   1.520   0.929 -0.2264  0.1318  0.3433
19148TIP3    H178935   5.220   1.512   0.871 -0.4053  1.7773  0.2996
19148TIP3    H278936   5.353   1.582   0.885  1.0936 -0.9677  0.4602
19149TIP3   OH278937   5.227   5.450  13.646  0.2874 -0.0471  0.2039
19149TIP3    H178938   5.184   5.425  13.564 -0.7372 -0.0392  0.7201
19149TIP3    H278939   5.207   5.544  13.656  1.1950  0.1727  0.0021
19150TIP3   OH278940   3.532   5.818   5.878 -0.6988  0.1606 -0.1577
19150TIP3    H178941   3.551   5.801   5.970 -0.1948  0.4547 -0.2014
19150TIP3    H278942   3.458   5.880   5.879 -0.3017  0.6382  0.0667
19151TIP3   OH278943   4.018   4.762  14.460 -0.0076 -0.0047 -0.1951
19151TIP3    H178944   4.101   4.807  14.475 -0.0422  0.3206 -0.9471
19151TIP3    H278945   4.023   4.684  14.516  1.3828 -0.7155 -1.2591
19152TIP3   OH278946   0.265   6.441   2.844 -0.2833  0.0471 -0.5686
19152TIP3    H178947   0.342   6.492   2.818 -0.7641  0.6773 -0.7846
19152TIP3    H278948   0.219   6.424   2.762 -0.0587 -0.8807 -0.5198
19153TIP3   OH278949   4.803   4.511  13.702 -0.6984  0.6111 -0.4769
19153TIP3    H178950   4.718   4.470  13.720  0.1934 -1.2973 -0.3392
19153TIP3    H278951   4.867   4.449  13.737  0.7628  3.0343  1.4382
19154TIP3   OH278952   0.692   2.976   3.015  0.2696 -0.0872 -0.0915
19154TIP3    H178953   0.751   3.000   3.086  0.4835  0.6225 -0.4970
19154TIP3    H278954   0.738   3.003   2.935 -0.2688 -0.2270 -0.4539
19155TIP3   OH278955   5.241   2.444  16.678  0.3444  0.0530  0.1577
19155TIP3    H178956   5.299   2.492  16.737 -0.6689  0.2673  1.0280
19155TIP3    H278957   5.153   2.465  16.710 -0.2330  0.1482 -1.4366
19156TIP3   OH278958   4.026   4.639  14.793 -0.0111  0.1871  0.0613
19156TIP3    H178959   3.985   4.585  14.726 -0.0035 -0.1388  0.3194
19156TIP3    H278960   4.117   4.609  14.797  0.2051  0.7679 -0.3626
19157TIP3   OH278961   5.945   3.329  11.324  0.2821  0.0478  0.3339
19157TIP3    H178962   5.895   3.314  11.244  0.1009  2.3893 -0.0763
19157TIP3    H278963   5.881   3.365  11.385  0.8748  0.4239  0.7427
19158TIP3   OH278964   6.794   6.143  10.983 -0.2972 -0.5978  0.6278
19158TIP3    H178965   6.769   6.227  10.944  3.2780  0.0756 -0.6189
19158TIP3    H278966   6.780   6.079  10.914  1.0551 -0.2584  0.0068
19159TIP3   OH278967   6.052   2.705   2.615 -0.2103 -0.0401 -0.0026
19159TIP3    H178968   6.146   2.687   2.627 -0.6875 -1.9881  1.3076
19159TIP3    H278969   6.029   2.660   2.534 -0.5199 -1.9002  1.0696
19160TIP3   OH278970   4.507   3.781  15.918 -0.7014 -0.1315 -0.2598
19160TIP3    H178971   4.444   3.709  15.919 -0.0554 -0.7202  1.1168
19160TIP3    H278972   4.461   3.853  15.962 -1.1631  0.1433 -1.1742
19161TIP3   OH278973   2.546   5.964   1.648  0.1379 -0.3732 -0.1085
19161TIP3    H178974   2.564   6.056   1.668 -1.6300 -0.4152  2.0484
19161TIP3    H278975   2.527   5.963   1.554 -0.9443  1.6901  0.0418
19162TIP3   OH278976   4.938   3.508   6.027 -0.0561 -0.0707 -0.9373
19162TIP3    H178977   4.862   3.488   6.081  0.8303 -1.4462 -0.1336
19162TIP3    H278978   5.011   3.463   6.070  1.4912  2.2622 -0.9587
19163TIP3   OH278979   5.244   1.556   4.050  0.7661 -0.6125 -0.2044
19163TIP3    H178980   5.275   1.505   3.975 -0.5636 -0.7188 -0.7021
19163TIP3    H278981   5.317   1.554   4.111  2.0169 -0.2685 -1.6069
19164TIP3   OH278982   2.093   4.081   6.319  0.3095 -0.5151  0.0826
19164TIP3    H178983   2.072   3.997   6.279  0.2324 -0.5682  0.2309
19164TIP3    H278984   2.045   4.080   6.403  1.0993 -0.7414  0.5388
19165TIP3   OH278985   1.279   0.331   4.461 -0.3518  0.0213  0.1076
19165TIP3    H178986   1.254   0.314   4.371  0.3525  0.4063 -0.1735
19165TIP3    H278987   1.370   0.300   4.467 -1.3749 -3.0295  1.5863
19166TIP3   OH278988   2.741   2.014  16.462 -0.7352 -0.4635 -0.6091
19166TIP3    H178989   2.718   1.933  16.506 -0.9866 -1.1507 -1.9472
19166TIP3    H278990   2.782   1.987  16.380 -1.7679  0.7278 -1.5704
19167TIP3   OH278991   0.023   2.239  15.298 -0.3025 -0.8324  0.1258
19167TIP3    H178992  -0.037   2.176  15.339  0.0940 -0.5916  1.1085
19167TIP3    H278993   0.077   2.187  15.240  0.8561 -1.6533  1.8478
19168TIP3   OH278994   5.662   0.382  12.209 -0.6405  0.0040 -0.0695
19168TIP3    H178995   5.697   0.342  12.130  0.0033 -1.2189  0.7886
19168TIP3    H278996   5.583   0.426  12.181 -0.3635 -0.3078 -1.4103
19169TIP3   OH278997   0.062   1.756   0.980  0.3047 -0.0298 -0.2052
19169TIP3    H178998   0.149   1.722   0.957  0.9138 -0.0803  1.9709
19169TIP3    H278999   0.028   1.694   1.043 -0.7699  0.6977 -0.0446
19170TIP3   OH279000   2.818   1.354  15.233 -0.2473  0.1545  0.6282
19170TIP3    H179001   2.834   1.400  15.151 -0.3652 -0.4204  0.2770
19170TIP3    H279002   2.901   1.309  15.252 -0.5577 -0.6027  0.2419
19171TIP3   OH279003   2.633   0.917   5.743 -0.0964  0.1194  0.3566
19171TIP3    H179004   2.683   0.897   5.821  0.2509  1.2890  0.4588
19171TIP3    H279005   2.693   0.966   5.687 -0.6686  0.2443 -0.1717
19172TIP3   OH279006   1.989   2.757  10.960  0.1162  0.0372 -0.4100
19172TIP3    H179007   2.004   2.817  10.888  1.3944  0.5566  0.2625
19172TIP3    H279008   1.910   2.708  10.934 -0.6387  1.5977 -1.2143
19173TIP3   OH279009   3.565   3.741   0.740 -0.6353 -0.2475  0.1167
19173TIP3    H179010   3.602   3.830   0.736 -1.4716  0.1164  0.3198
19173TIP3    H279011   3.595   3.700   0.659 -1.2517  0.6333 -0.5817
19174TIP3   OH279012   1.040   6.647   2.680  0.2545  0.1693  0.1227
19174TIP3    H179013   0.959   6.653   2.732  0.4390 -0.4918  0.5012
19174TIP3    H279014   1.105   6.614   2.742  0.5008 -0.5524 -0.5091
19175TIP3   OH279015   2.204   1.190  16.299  0.2735  0.4921 -0.5045
19175TIP3    H179016   2.295   1.215  16.312  1.0750 -2.1460 -0.2902
19175TIP3    H279017   2.204   1.144  16.215 -0.3686 -1.3576  0.4473
19176TIP3   OH279018   1.389   2.950  12.233  0.0065 -0.2890 -0.2681
19176TIP3    H179019   1.333   2.906  12.169 -0.1922  0.6245 -0.7440
19176TIP3    H279020   1.464   2.979  12.182 -0.4969  1.0891 -0.2651
19177TIP3   OH279021   0.446   0.956  10.436  0.3376  0.0832  0.1852
19177TIP3    H179022   0.535   0.968  10.469  0.9930 -0.4408 -1.2856
19177TIP3    H279023   0.394   1.025  10.478  1.8604  1.6865 -0.4437
19178TIP3   OH279024   1.973   3.887   0.781  0.4206 -0.1267  0.2164
19178TIP3    H179025   1.900   3.944   0.758 -0.3536 -1.4133 -0.6242
19178TIP3    H279026   2.015   3.931   0.855 -0.9354  0.8692  0.4330
19179TIP3   OH279027   5.356   1.564   4.662  0.2105  0.2427 -0.1555
19179TIP3    H179028   5.263   1.569   4.637  0.4814 -0.3907 -1.3606
19179TIP3    H279029   5.403   1.603   4.588  0.9183  0.4065  0.3753
19180TIP3   OH279030   5.962   6.612  12.500  0.4123 -0.5727  0.1745
19180TIP3    H179031   5.875   6.583  12.527 -0.5067 -0.5471 -2.5204
19180TIP3    H279032   5.962   6.706  12.514 -0.0486 -0.5511  0.0336
19181TIP3   OH279033   0.042   0.144   5.566  0.2195  0.2248 -0.0752
19181TIP3    H179034   0.130   0.149   5.606 -0.0267  2.6285  0.3170
19181TIP3    H279035  -0.017   0.140   5.641 -0.0597 -1.1984 -0.3405
19182TIP3   OH279036   4.028   1.772   5.046 -0.0333  0.4445 -0.6064
19182TIP3    H179037   3.963   1.736   5.105  2.3864 -0.7922  1.4906
19182TIP3    H279038   3.987   1.851   5.011 -2.3273  0.1665  1.2127
19183TIP3   OH279039   1.145   5.152   5.480  0.0650  0.6111  0.3777
19183TIP3    H179040   1.070   5.112   5.525 -0.9047  1.7016 -0.1925
19183TIP3    H279041   1.115   5.162   5.389  1.1783  0.4193 -0.0286
19184TIP3   OH279042   5.628   2.108   5.628 -0.3847  0.0509  0.5554
19184TIP3    H179043   5.601   2.126   5.718  0.2249 -2.3713  1.2868
19184TIP3    H279044   5.708   2.057   5.636 -0.1853 -0.0462 -1.3915
19185TIP3   OH279045   2.886   3.987  15.363  0.1879 -0.2471  0.4434
19185TIP3    H179046   2.862   3.980  15.271  2.1990  1.0802 -0.2407
19185TIP3    H279047   2.838   3.915  15.405  0.6540 -2.0871 -1.9288
19186TIP3   OH279048   5.610   6.018  17.042  0.2924 -0.2658  0.2293
19186TIP3    H179049   5.610   5.951  17.111 -2.4425  1.6304  2.3108
19186TIP3    H279050   5.525   6.009  16.999  1.0139  0.1184 -1.3708
19187TIP3   OH279051   2.946   2.896  11.880 -0.4428 -0.3055  0.2215
19187TIP3    H179052   2.895   2.827  11.924 -0.5918 -0.5101 -0.2652
19187TIP3    H279053   2.987   2.851  11.806  1.4710 -0.4435  1.2952
19188TIP3   OH279054   3.327   0.711   2.871 -0.0881 -0.6894  0.3039
19188TIP3    H179055   3.379   0.713   2.791 -2.3614  1.6127 -1.2818
19188TIP3    H279056   3.348   0.793   2.916 -3.6506  1.4771 -1.5021
19189TIP3   OH279057   3.604   2.448  12.593 -0.2820 -1.0213  0.0176
19189TIP3    H179058   3.688   2.402  12.592  1.8945  2.5356 -0.9875
19189TIP3    H279059   3.602   2.492  12.678 -0.9391 -0.8289 -0.0923
19190TIP3   OH279060   3.764   5.483  13.878  0.3092 -0.0198 -0.4444
19190TIP3    H179061   3.714   5.548  13.828 -0.6089 -0.0619  0.4054
19190TIP3    H279062   3.730   5.490  13.967 -0.8846 -2.7066 -0.6103
19191TIP3   OH279063   3.883   2.994   6.420 -0.5268 -0.3947 -0.4089
19191TIP3    H179064   3.913   3.076   6.379 -3.9283  0.4044 -1.6003
19191TIP3    H279065   3.912   2.926   6.359  2.5681 -0.2444  0.7219
19192TIP3   OH279066   4.141   4.977   6.563 -0.2979 -0.2217  0.5310
19192TIP3    H179067   4.173   5.061   6.597  1.5196 -0.0873 -1.3234
19192TIP3    H279068   4.061   4.999   6.516  0.7333  0.7340 -0.8789
19193TIP3   OH279069   5.693   6.713  10.942  0.3692  0.0681 -0.2440
19193TIP3    H179070   5.612   6.663  10.942  0.4223 -0.0198 -0.6592
19193TIP3    H279071   5.674   6.790  10.995 -0.2191  0.4152 -0.9411
19194TIP3   OH279072   6.523   4.300  12.549  0.7509 -0.3597  0.0071
19194TIP3    H179073   6.472   4.239  12.496  1.2439 -0.9936  0.2472
19194TIP3    H279074   6.459   4.364  12.580  0.6773  0.9377 -2.5636
19195TIP3   OH279075   5.893   3.307   1.852 -0.1721 -0.2743  0.3282
19195TIP3    H179076   5.966   3.308   1.790 -1.5718  1.3984 -1.4235
19195TIP3    H279077   5.815   3.297   1.797 -1.4916  1.4086  1.7626
19196TIP3   OH279078   2.877   4.118  11.867 -0.3905 -0.2748  0.6270
19196TIP3    H179079   2.832   4.198  11.893 -1.1376 -0.6859  0.6111
19196TIP3    H279080   2.969   4.134  11.889 -0.5871  0.4560  0.9330
19197TIP3   OH279081   5.871   5.793   4.239 -0.0203  0.2111 -0.2346
19197TIP3    H179082   5.916   5.876   4.228  1.3235 -0.5508 -0.7729
19197TIP3    H279083   5.931   5.739   4.291 -1.2678 -0.1342  0.9158
19198TIP3   OH279084   1.589   3.820   5.989 -0.5690 -0.1309  0.3053
19198TIP3    H179085   1.554   3.791   6.073 -0.1344  0.7453  0.8008
19198TIP3    H279086   1.676   3.856   6.010  0.4478 -1.7823 -0.8179
19199TIP3   OH279087   0.949   3.576   3.443 -0.3215  0.1081 -0.2105
19199TIP3    H179088   1.006   3.538   3.376  0.5512  1.4179 -0.2618
19199TIP3    H279089   0.939   3.507   3.509  0.3263 -0.5687 -0.8104
19200TIP3   OH279090   4.389   6.466   2.187  0.2792  0.3141 -0.6795
19200TIP3    H179091   4.402   6.465   2.282  0.8930  0.2194 -0.7609
19200TIP3    H279092   4.466   6.512   2.153 -0.2640  0.9543 -1.0864
19201TIP3   OH279093   4.848   5.749   4.023  0.3169 -0.2607  0.5326
19201TIP3    H179094   4.830   5.656   4.006  0.2614 -0.2125  0.3223
19201TIP3    H279095   4.783   5.796   3.970  0.4901 -0.0992  0.4614
19202TIP3   OH279096   1.018   6.642  16.840 -0.1295 -0.2914 -0.9911
19202TIP3    H179097   1.036   6.685  16.756 -2.7055  1.1713 -0.8974
19202TIP3    H279098   1.017   6.713  16.904 -0.8726 -1.0033 -0.1862
19203TIP3   OH279099   1.567   4.299  14.874  0.0020 -0.0879 -0.3468
19203TIP3    H179100   1.496   4.252  14.829  0.4660 -2.0848  0.8675
19203TIP3    H279101   1.548   4.289  14.967  1.1858  0.4561 -0.0226
19204TIP3   OH279102   5.789   0.577   1.104 -0.1546 -0.2039  0.2754
19204TIP3    H179103   5.869   0.608   1.062 -0.7169 -0.4993 -1.0857
19204TIP3    H279104   5.818   0.542   1.188  1.8622 -3.9642 -1.6949
19205TIP3   OH279105   0.988   3.747   2.988  0.7642  0.4006  0.3919
19205TIP3    H179106   1.045   3.700   2.927  0.0063  0.5823 -0.4873
19205TIP3    H279107   0.925   3.681   3.016  0.4544  0.5811  0.1270
19206TIP3   OH279108   2.191   3.633  13.297 -0.3047  0.2621  0.3034
19206TIP3    H179109   2.213   3.571  13.367 -1.8795 -0.3828  0.2527
19206TIP3    H279110   2.108   3.601  13.262 -0.8613  2.0853 -0.1079
19207TIP3   OH279111   0.202   5.633  11.895 -0.0176 -0.1194 -0.2449
19207TIP3    H179112   0.221   5.585  11.976 -0.8866  2.1502  1.4034
19207TIP3    H279113   0.287   5.645  11.853  0.8659  1.0780  1.7843
19208TIP3   OH279114   6.592   0.004   1.593  0.1528 -0.5277  0.2235
19208TIP3    H179115   6.509  -0.021   1.551  0.1804 -1.1937  0.5428
19208TIP3    H279116   6.569   0.081   1.646 -1.0943 -2.5588  2.8953
19209TIP3   OH279117   0.178   1.035   3.838  0.0842 -0.2766 -0.0601
19209TIP3    H179118   0.243   1.091   3.881 -0.2784 -0.2258  0.4270
19209TIP3    H279119   0.229   0.981   3.778  0.5756 -0.2441  0.3234
19210TIP3   OH279120   3.915   6.429  13.462 -0.2633 -0.6309 -0.4647
19210TIP3    H179121   3.868   6.494  13.410  1.7951  2.8773  1.5764
19210TIP3    H279122   3.994   6.411  13.412 -0.2601 -0.5901 -0.4742
19211TIP3   OH279123   5.913   4.607  12.837 -0.5206  0.1275  0.2001
19211TIP3    H179124   6.006   4.600  12.858 -0.7100  0.0311  1.0286
19211TIP3    H279125   5.868   4.570  12.913 -1.2232 -0.5582 -0.5215
19212TIP3   OH279126   4.263   1.393   3.014 -0.0609 -0.2751  0.2104
19212TIP3    H179127   4.342   1.434   2.979  0.9319 -2.7124 -0.5996
19212TIP3    H279128   4.285   1.368   3.104 -0.2175 -0.1903  0.2741
19213TIP3   OH279129   6.752   0.704  17.123 -0.1795 -0.2798 -0.1435
19213TIP3    H179130   6.809   0.681  17.197  2.2917  1.0066 -1.5077
19213TIP3    H279131   6.744   0.623  17.073  0.9779 -0.3769 -0.2047
19214TIP3   OH279132   6.406   0.799   3.503  0.3006 -0.2966  0.1386
19214TIP3    H179133   6.482   0.817   3.448 -0.0963  1.0118 -0.0188
19214TIP3    H279134   6.443   0.771   3.587  0.9697  0.4482  0.1050
19215TIP3   OH279135   6.490   2.730  15.519 -0.1892  0.2841  0.2894
19215TIP3    H179136   6.396   2.737  15.538  0.2340  0.5912  2.6194
19215TIP3    H279137   6.513   2.641  15.544  0.2282  0.3747  0.2417
19216TIP3   OH279138   3.903   5.546   3.331  0.1832 -0.6592 -0.3186
19216TIP3    H179139   3.945   5.460   3.320 -0.6657 -1.3426  1.3763
19216TIP3    H279140   3.935   5.577   3.416  0.2913  0.6069 -0.8066
19217TIP3   OH279141   1.064   3.227   0.894 -0.2462 -0.3993 -0.0799
19217TIP3    H179142   1.001   3.230   0.966 -0.4708  2.6273 -0.2784
19217TIP3    H279143   1.018   3.268   0.820  0.9194 -0.9585 -1.1524
19218TIP3   OH279144   2.199   4.286   1.803 -0.1014 -0.0012  0.4579
19218TIP3    H179145   2.208   4.287   1.899  1.5736 -1.4845  0.3707
19218TIP3    H279146   2.106   4.273   1.788 -0.7850  2.5647  1.8107
19219TIP3   OH279147   4.135   2.573   4.658 -0.5794  0.1008 -0.2119
19219TIP3    H179148   4.113   2.484   4.632 -3.4683  1.2629 -2.2057
19219TIP3    H279149   4.091   2.585   4.742  0.7334 -0.6020  0.6253
19220TIP3   OH279150   1.460   1.562  14.731  0.1567  0.2271 -0.4481
19220TIP3    H179151   1.401   1.637  14.722 -1.8978 -0.8126  2.7605
19220TIP3    H279152   1.527   1.592  14.792  1.0042  0.2645 -1.3594
19221TIP3   OH279153   4.378   5.056  16.867 -0.3060 -0.3432  0.0391
19221TIP3    H179154   4.302   4.997  16.867 -1.0162  0.5365  0.3025
19221TIP3    H279155   4.358   5.121  16.935 -1.0749  2.0631 -2.3056
19222TIP3   OH279156   0.775   3.935  12.225 -0.4023 -0.3339  0.2449
19222TIP3    H179157   0.716   4.004  12.255 -2.1767 -1.3944 -0.6402
19222TIP3    H279158   0.863   3.974  12.232 -1.1452  1.1906  1.8791
19223TIP3   OH279159   4.801   1.534   5.235  0.1702 -0.0803 -0.0505
19223TIP3    H179160   4.791   1.628   5.249  0.4463 -0.0468 -0.0735
19223TIP3    H279161   4.832   1.500   5.319  0.4429 -0.0920 -0.1543
19224TIP3   OH279162   2.546   5.315   6.508  0.4871 -0.0224  0.2854
19224TIP3    H179163   2.451   5.312   6.493  0.5496 -1.8776  0.0861
19224TIP3    H279164   2.555   5.354   6.595 -0.3790  1.3006 -0.1833
19225TIP3   OH279165   3.477   2.631  10.378 -0.5305 -0.1595 -0.1140
19225TIP3    H179166   3.445   2.593  10.297  1.2080 -0.2769 -0.7838
19225TIP3    H279167   3.455   2.566  10.445 -1.7409 -0.1808 -0.5023
19226TIP3   OH279168   0.127   5.812  11.481 -0.1299  0.4035  0.1979
19226TIP3    H179169   0.051   5.869  11.464  0.0184  0.2242 -1.1748
19226TIP3    H279170   0.187   5.831  11.409  0.1668 -1.0806  0.0318
19227TIP3   OH279171   2.550   6.454  15.969  0.2813 -0.9095 -0.0990
19227TIP3    H179172   2.512   6.535  16.003  0.1651 -1.1894  0.4603
19227TIP3    H279173   2.641   6.457  15.998  0.3351 -0.8745 -0.2721
19228TIP3   OH279174   1.913   4.037  14.841  0.1769  0.0199 -0.4015
19228TIP3    H179175   1.837   4.008  14.791 -0.5755  0.4105  0.4884
19228TIP3    H279176   1.908   3.988  14.923  1.0195 -0.1208 -0.4216
19229TIP3   OH279177   1.102   5.868   4.374  0.1910 -0.0873 -0.3385
19229TIP3    H179178   1.101   5.961   4.352 -0.3545  0.2305  0.9639
19229TIP3    H279179   1.042   5.860   4.448 -1.4031 -1.8051 -1.7006
19230TIP3   OH279180   1.034   2.061   4.605  0.4477  0.6872 -0.5773
19230TIP3    H179181   1.119   2.058   4.562  1.3054 -2.4011  1.0326
19230TIP3    H279182   1.037   2.139   4.660  2.2408  0.6279 -0.5561
19231TIP3   OH279183   2.911   0.738   4.601 -0.0952  0.5327 -0.2663
19231TIP3    H179184   2.847   0.779   4.660 -0.1054 -1.1894  1.0191
19231TIP3    H279185   2.874   0.652   4.582  0.9653  0.2286 -1.0323
19232TIP3   OH279186   4.198   6.465   3.989 -0.8337 -0.3541 -0.1960
19232TIP3    H179187   4.114   6.458   3.943 -1.2286  1.8105  0.0848
19232TIP3    H279188   4.212   6.377   4.025 -1.0206 -1.8847 -3.4498
19233TIP3   OH279189   2.340   4.739   2.475 -0.5745  0.1688  0.1336
19233TIP3    H179190   2.311   4.675   2.410  0.5833 -0.4570  0.1998
19233TIP3    H279191   2.355   4.687   2.554  0.3286  0.5071  0.2008
19234TIP3   OH279192   5.835   5.963  13.486  0.1079 -0.0390  0.5845
19234TIP3    H179193   5.885   5.988  13.408 -1.5512  2.5220  0.2150
19234TIP3    H279194   5.747   5.946  13.453 -0.5450  0.8005  1.8166
19235TIP3   OH279195   0.997   1.919  14.955  0.1071  0.0382  0.5473
19235TIP3    H179196   1.057   1.845  14.961  2.2726  1.4854 -1.3084
19235TIP3    H279197   0.910   1.880  14.961  1.1536 -2.5256  0.4951
19236TIP3   OH279198   3.279   5.620   3.921 -0.1098 -0.2452  0.3296
19236TIP3    H179199   3.272   5.524   3.924  0.0951 -0.3010 -0.6275
19236TIP3    H279200   3.267   5.642   3.829  1.3327  0.5159  0.2928
19237TIP3   OH279201   3.968   1.771   3.673 -0.2292 -0.0891  0.0782
19237TIP3    H179202   3.903   1.761   3.604 -0.4947  0.6607  0.2195
19237TIP3    H279203   3.940   1.709   3.741  0.6866 -1.7108 -0.9363
19238TIP3   OH279204   1.718   3.378  16.770 -0.6700  0.7329  0.1391
19238TIP3    H179205   1.680   3.317  16.707 -1.6866  1.1639  0.3123
19238TIP3    H279206   1.811   3.379  16.750 -0.2983 -2.1449  1.1777
19239TIP3   OH279207   1.273   4.226   2.580  0.0912  0.4765  0.0351
19239TIP3    H179208   1.263   4.160   2.649  2.4809  1.1501  1.1540
19239TIP3    H279209   1.301   4.305   2.627  0.8913  1.2199 -1.6202
19240TIP3   OH279210   4.190   4.104   4.193 -0.1097 -0.6693  0.1342
19240TIP3    H179211   4.259   4.090   4.128  0.2033 -1.2036  0.5826
19240TIP3    H279212   4.235   4.107   4.277 -0.7579 -2.2331  0.5637
19241TIP3   OH279213   6.500   2.995   5.169 -0.0798  0.0833  0.4324
19241TIP3    H179214   6.571   3.017   5.109 -1.1358 -0.7490 -1.2151
19241TIP3    H279215   6.428   3.053   5.144 -0.1917  0.5340  1.7089
19242TIP3   OH279216   3.943   3.455   1.032  0.5419  0.4318 -0.3219
19242TIP3    H179217   3.930   3.368   1.070 -2.5641  1.0867  0.3282
19242TIP3    H279218   3.972   3.437   0.942 -1.4258 -1.3601 -0.6702
19243TIP3   OH279219   3.552   0.539  10.971  1.4425  0.1394 -0.1134
19243TIP3    H179220   3.513   0.520  10.886  0.5804 -2.5558  0.7801
19243TIP3    H279221   3.646   0.548  10.952  1.2172  0.0223 -1.4139
19244TIP3   OH279222   3.869   5.690  13.079  0.1878  0.3599  0.8034
19244TIP3    H179223   3.839   5.777  13.107 -0.6616  0.4529 -0.3447
19244TIP3    H279224   3.815   5.629  13.130 -0.1862  0.5160  0.5950
19245TIP3   OH279225   6.048   1.167  14.674  0.6541 -1.0950  0.0255
19245TIP3    H179226   6.079   1.245  14.627 -1.3423 -1.2555 -1.7067
19245TIP3    H279227   6.027   1.199  14.761  0.7163  0.1205 -0.3762
19246TIP3   OH279228   2.533   1.469   6.353  0.5704 -0.8289  0.5660
19246TIP3    H179229   2.448   1.432   6.377 -0.9230  2.3722  0.6585
19246TIP3    H279230   2.551   1.535   6.420  1.9807  0.1605 -0.7217
19247TIP3   OH279231   6.066   1.467  12.902  0.5485  0.5603 -0.3819
19247TIP3    H179232   5.993   1.413  12.870  0.2591  0.5596  0.2611
19247TIP3    H279233   6.036   1.557  12.891  1.0452  0.6162 -1.4846
19248TIP3   OH279234   0.962   5.897   2.599 -0.3295  0.0657 -0.0727
19248TIP3    H179235   0.896   5.953   2.641 -0.1965 -0.4362  0.8165
19248TIP3    H279236   1.044   5.946   2.609 -0.0306 -0.7090  1.6069
19249TIP3   OH279237   0.492   6.571  16.134  0.6997 -0.0601  0.3690
19249TIP3    H179238   0.482   6.583  16.229 -0.1323 -1.3631  0.4787
19249TIP3    H279239   0.443   6.644  16.095 -0.6851 -0.6333  0.9642
19250TIP3   OH279240   0.291   2.359   4.121 -0.0251  0.6143 -0.6587
19250TIP3    H179241   0.243   2.283   4.153 -1.0407  1.4637 -0.0992
19250TIP3    H279242   0.363   2.371   4.183  0.0324  0.2196 -0.6479
19251TIP3   OH279243   3.661   1.823  13.171  0.8919 -0.2424 -0.6715
19251TIP3    H179244   3.725   1.752  13.177  1.0562 -0.0186  0.5972
19251TIP3    H279245   3.602   1.797  13.101  1.1529 -1.4647 -0.4589
19252TIP3   OH279246   2.097   5.056   5.089 -0.3277  0.2726  0.0156
19252TIP3    H179247   2.152   4.981   5.113 -0.6838 -0.5403 -1.5835
19252TIP3    H279248   2.124   5.125   5.150  3.5355  0.4128 -1.5318
19253TIP3   OH279249   5.664   2.217   1.823  0.6746  0.2007  0.1534
19253TIP3    H179250   5.685   2.125   1.808 -1.2104 -0.4624  1.2846
19253TIP3    H279251   5.700   2.235   1.910  0.0999  0.2061  0.3943
19254TIP3   OH279252   5.061   3.682   5.551  0.6646  0.0224 -0.1208
19254TIP3    H179253   5.014   3.673   5.468  1.3901 -1.1055 -0.4332
19254TIP3    H279254   5.028   3.611   5.605  1.2260 -0.1140  0.0448
19255TIP3   OH279255   5.731   5.729  16.312  0.1323 -0.1344 -0.0725
19255TIP3    H179256   5.730   5.764  16.401  0.7233 -2.7653  1.0760
19255TIP3    H279257   5.824   5.724  16.289  0.0927 -1.0518 -0.0982
19256TIP3   OH279258   6.255   3.821  12.544  0.2358  0.0508 -0.3137
19256TIP3    H179259   6.235   3.761  12.472  0.3468 -0.1013 -0.2180
19256TIP3    H279260   6.190   3.891  12.536  0.5912  0.3214 -0.8943
19257TIP3   OH279261   2.071   2.556   2.217 -0.3619  0.4295  0.3162
19257TIP3    H179262   1.981   2.547   2.249 -0.5711 -1.9237 -0.7926
19257TIP3    H279263   2.071   2.638   2.168 -1.9817  0.3358  0.1107
19258TIP3   OH279264   2.826   1.119  14.867  0.6981  0.2134 -0.3677
19258TIP3    H179265   2.851   1.206  14.897  1.1850 -0.0205 -0.0813
19258TIP3    H279266   2.732   1.114  14.885  0.6993  0.6168 -0.2279
19259TIP3   OH279267   2.412   5.170  16.255 -0.1364  0.1595  0.2305
19259TIP3    H179268   2.471   5.245  16.266 -0.6429  0.7570 -1.0362
19259TIP3    H279269   2.467   5.094  16.277  0.9766  0.7421 -0.4337
19260TIP3   OH279270   6.607   6.193  16.031 -0.6341  0.0745  0.0128
19260TIP3    H179271   6.550   6.262  15.997  0.3300  1.8683  1.7900
19260TIP3    H279272   6.638   6.146  15.954 -2.2526  0.8725 -1.1681
19261TIP3   OH279273   4.506   5.746  15.998  0.3854  0.1458  0.5708
19261TIP3    H179274   4.512   5.691  16.076  0.0210 -1.2672 -0.3621
19261TIP3    H279275   4.412   5.762  15.986  0.4351  0.3326  0.4169
19262TIP3   OH279276   5.635   3.619   5.672  0.3260  0.2726  0.5477
19262TIP3    H179277   5.690   3.548   5.639  0.3684  0.9755 -0.9426
19262TIP3    H279278   5.581   3.644   5.598 -0.9536  0.6306  1.5596
19263TIP3   OH279279   5.936   3.924  15.136 -0.6035  0.1149 -0.5022
19263TIP3    H179280   5.844   3.911  15.157 -0.2724  1.2111  2.0378
19263TIP3    H279281   5.960   4.005  15.181  1.8542 -0.7063 -0.1460
19264TIP3   OH279282   1.904   4.194  12.711  0.4386  0.8812 -0.4855
19264TIP3    H179283   1.854   4.120  12.677  2.0219 -0.9847  0.9884
19264TIP3    H279284   1.853   4.226  12.785  0.3694  0.4047 -0.3249
19265TIP3   OH279285   4.896   5.066   0.562 -0.5705  0.4115  0.2378
19265TIP3    H179286   4.882   5.157   0.538 -1.3037  0.2119 -0.1093
19265TIP3    H279287   4.849   5.056   0.645  0.6393  0.6911  0.9800
19266TIP3   OH279288   0.940   5.595  15.949  0.1552  0.2957 -0.1224
19266TIP3    H179289   0.913   5.667  15.892 -0.9039 -0.6288 -0.8343
19266TIP3    H279290   0.870   5.530  15.940  0.1731 -0.0761  1.8991
19267TIP3   OH279291   3.527   5.412  16.339  0.0249  0.3062  0.1046
19267TIP3    H179292   3.566   5.499  16.351 -1.9333  1.1584  0.6339
19267TIP3    H279293   3.567   5.359  16.408  0.6345  0.9804  0.2904
19268TIP3   OH279294   3.651   4.211   0.463  0.2209 -0.3936  0.2618
19268TIP3    H179295   3.652   4.198   0.368  1.6439 -3.5869  0.5740
19268TIP3    H279296   3.715   4.280   0.478  2.1286 -1.7783 -1.0077
19269TIP3   OH279297   0.847   1.765  12.130 -0.2547  0.3675  0.1544
19269TIP3    H179298   0.841   1.860  12.141 -0.0341  0.5426 -1.1094
19269TIP3    H279299   0.774   1.743  12.072  1.9317  0.3802 -2.8531
19270TIP3   OH279300   4.070   2.781  13.261  0.0386 -0.0210 -0.5295
19270TIP3    H179301   4.113   2.725  13.196  1.1175  1.1489 -0.8688
19270TIP3    H279302   4.117   2.764  13.342 -1.0110 -1.1394 -0.1257
19271TIP3   OH279303   2.156   3.326   2.247  0.3051 -0.1304 -0.0982
19271TIP3    H179304   2.208   3.247   2.258  0.6097 -0.0291 -0.7471
19271TIP3    H279305   2.123   3.321   2.157  0.3167  0.4676 -0.1411
19272TIP3   OH279306   3.283   1.256  15.022 -0.2504  0.4167 -0.0430
19272TIP3    H179307   3.287   1.199  14.946  0.3425 -0.5277  0.6613
19272TIP3    H279308   3.206   1.226  15.071 -0.5326  0.9036 -0.1933
19273TIP3   OH279309   2.820   3.390  12.404  0.1777 -0.2681 -0.0128
19273TIP3    H179310   2.768   3.470  12.406 -0.3112 -0.5499 -0.9121
19273TIP3    H279311   2.894   3.408  12.462 -1.8766 -0.5510  2.9219
19274TIP3   OH279312   1.201   5.902  11.795 -0.7984 -0.2660 -0.0163
19274TIP3    H179313   1.250   5.901  11.877  0.1460 -0.8231 -0.5710
19274TIP3    H279314   1.132   5.967  11.809  1.4596  2.2751 -0.0147
19275TIP3   OH279315   6.032   6.064  16.097 -0.0169 -0.2775  0.2287
19275TIP3    H179316   6.021   6.076  16.191  0.6477  0.4524  0.2172
19275TIP3    H279317   5.955   6.013  16.071 -0.7497  0.3982  0.9948
19276TIP3   OH279318   2.904   0.608   4.901  0.1527  0.0028 -0.0349
19276TIP3    H179319   2.965   0.554   4.951  0.5802 -0.4365 -1.0095
19276TIP3    H279320   2.855   0.546   4.848 -1.0271  0.3723  0.5900
19277TIP3   OH279321   1.289   3.990   1.051  0.1255  0.5498  0.7928
19277TIP3    H179322   1.356   3.950   1.107  0.2201  1.2473  1.1905
19277TIP3    H279323   1.317   3.969   0.962 -0.8983 -1.9745  0.9848
19278TIP3   OH279324   3.857   4.779  12.723  0.6381 -0.0243  0.4195
19278TIP3    H179325   3.933   4.762  12.667  1.2982 -0.9025  1.5507
19278TIP3    H279326   3.892   4.829  12.797 -0.1981  0.9770  0.1637
19279TIP3   OH279327   4.433   4.833  11.842  0.1561  0.4612 -0.2918
19279TIP3    H179328   4.524   4.851  11.864  0.2544 -0.1058 -0.2394
19279TIP3    H279329   4.389   4.828  11.927  0.3078 -0.5052 -0.2682
19280TIP3   OH279330   5.764   2.245  12.354  0.7893 -0.0282  0.0772
19280TIP3    H179331   5.693   2.290  12.399  0.8941  0.5559 -0.3288
19280TIP3    H279332   5.831   2.231  12.420 -0.1445 -1.6096  0.7577
19281TIP3   OH279333   3.985   5.862   2.132 -0.0079  0.3803 -0.5458
19281TIP3    H179334   3.969   5.901   2.046  0.9911 -0.3172 -1.0583
19281TIP3    H279335   4.056   5.913   2.169  0.9692 -0.6101 -1.0133
19282TIP3   OH279336   4.609   5.679  15.752  0.3484 -0.3182  0.3919
19282TIP3    H179337   4.697   5.654  15.780  0.1293 -0.5770  0.8501
19282TIP3    H279338   4.566   5.712  15.831 -0.6621 -2.1210  0.6441
19283TIP3   OH279339   6.437   3.638   4.878  0.1965  0.3079 -0.5241
19283TIP3    H179340   6.476   3.594   4.802  1.2295  0.0119  0.1633
19283TIP3    H279341   6.344   3.645   4.856  0.0081 -2.1037 -0.7314
19284TIP3   OH279342   3.201   3.104   5.990  0.1603 -0.5787 -0.2417
19284TIP3    H179343   3.195   3.195   5.960  2.9454  0.1674  1.1071
19284TIP3    H279344   3.148   3.055   5.928 -0.6624  1.8235 -1.5956
19285TIP3   OH279345   2.935   5.672  13.811  0.2649 -0.1218 -0.2496
19285TIP3    H179346   2.983   5.590  13.813 -1.6659 -1.3106 -0.3539
19285TIP3    H279347   2.966   5.720  13.888  2.5828 -0.1788 -1.0580
19286TIP3   OH279348   5.672   3.019   0.229 -0.3742 -0.0507  0.9583
19286TIP3    H179349   5.689   3.075   0.154  0.2929  0.6757  1.6460
19286TIP3    H279350   5.703   2.933   0.202 -1.2802 -0.0938 -0.0494
19287TIP3   OH279351   4.652   4.676   5.267  0.3800 -0.0324 -0.0901
19287TIP3    H179352   4.640   4.610   5.335  0.7176  0.9597  0.9590
19287TIP3    H279353   4.632   4.630   5.185  0.7257 -1.4586  0.5941
19288TIP3   OH279354   0.730   5.730  16.184  0.5107  0.2412  0.5856
19288TIP3    H179355   0.810   5.781  16.171  0.8695 -0.2487  0.8568
19288TIP3    H279356   0.695   5.720  16.095 -1.3201  3.6958  0.7390
19289TIP3   OH279357   5.099   4.064  12.877  0.3946 -0.3944 -0.5165
19289TIP3    H179358   5.005   4.064  12.890  0.4484  0.9717  0.0167
19289TIP3    H279359   5.135   4.076  12.965  1.0685 -0.7594 -0.7328
19290TIP3   OH279360   0.891   6.784   5.720 -0.1527 -0.2990  0.1788
19290TIP3    H179361   0.818   6.734   5.756 -1.7792  1.0743 -1.0055
19290TIP3    H279362   0.901   6.858   5.781 -1.9103  1.2070 -1.2308
19291TIP3   OH279363   5.788   2.326   2.721  0.7299  0.1620 -0.4901
19291TIP3    H179364   5.798   2.418   2.747  0.4513 -0.1698  0.9023
19291TIP3    H279365   5.875   2.300   2.691  0.2859  1.5030 -3.1725
19292TIP3   OH279366   0.799   6.543   1.978 -0.1597  0.4517  0.1096
19292TIP3    H179367   0.869   6.603   1.953 -0.7487  1.1956  0.2053
19292TIP3    H279368   0.742   6.538   1.901  0.1010 -0.3147 -0.0424
19293TIP3   OH279369   1.705   0.090   2.900  0.2418  0.4765  0.2653
19293TIP3    H179370   1.738   0.136   2.823  0.0673  0.9597  0.4763
19293TIP3    H279371   1.713   0.153   2.971 -2.7941  1.2962  0.0062
19294TIP3   OH279372   5.309   2.566  15.176  0.2788  0.5137  0.0139
19294TIP3    H179373   5.386   2.538  15.224  0.9113  0.6852 -0.8874
19294TIP3    H279374   5.315   2.662  15.174 -0.2852  0.5667  0.4685
19295TIP3   OH279375   3.059   2.161   1.808 -0.2932  0.3069  0.5435
19295TIP3    H179376   2.974   2.181   1.771  0.1259 -1.1717 -1.3873
19295TIP3    H279377   3.110   2.241   1.795 -1.6264  1.6416  2.8039
19296TIP3   OH279378   3.646   3.525   0.537 -0.1133 -0.0835  0.5260
19296TIP3    H179379   3.643   3.469   0.459 -0.3756  0.7524 -0.0758
19296TIP3    H279380   3.739   3.544   0.548  0.0492 -1.1229  1.1038
19297TIP3   OH279381   6.430   1.241   4.297 -0.3904  1.0559  0.6572
19297TIP3    H179382   6.521   1.263   4.318 -0.0333 -0.5212  0.8521
19297TIP3    H279383   6.378   1.292   4.359  0.4897 -0.2755  2.5692
19298TIP3   OH279384   1.116   3.716  15.654  0.3271  0.3212  0.0720
19298TIP3    H179385   1.094   3.743  15.565 -0.4677  0.9639  0.4547
19298TIP3    H279386   1.037   3.672  15.686  0.1178  1.2912  0.9331
19299TIP3   OH279387   4.795   3.793  16.598  0.1000  0.5696  0.0277
19299TIP3    H179388   4.849   3.872  16.605  0.0654  0.6072 -0.1304
19299TIP3    H279389   4.811   3.760  16.510  0.4733  0.1408  0.2509
19300TIP3   OH279390   0.419   3.315   0.419 -0.6621 -0.1020 -0.2041
19300TIP3    H179391   0.393   3.374   0.348 -0.3348  0.8393  0.4364
19300TIP3    H279392   0.490   3.361   0.463 -1.3662 -0.3119  1.2066
19301TIP3   OH279393   6.036   5.787   5.624  0.0039 -0.0576  0.2704
19301TIP3    H179394   5.956   5.738   5.643 -0.3428  0.3731 -0.0423
19301TIP3    H279395   6.091   5.726   5.575 -0.5555 -0.0395 -0.3973
19302TIP3   OH279396   5.215   6.813   3.218  0.1744  0.0090 -0.2431
19302TIP3    H179397   5.122   6.827   3.239  0.3402  1.8087 -0.5620
19302TIP3    H279398   5.226   6.848   3.130  0.7262 -2.2306 -1.1338
19303TIP3   OH279399   2.416   2.440  11.247  0.2561  0.4007  0.1425
19303TIP3    H179400   2.405   2.402  11.160 -0.8391  0.3454  0.2966
19303TIP3    H279401   2.366   2.521  11.245  1.9738  1.5171  0.0572
19304TIP3   OH279402   3.261   4.235  14.349 -0.0711  0.0717 -0.1151
19304TIP3    H179403   3.354   4.246  14.366 -0.1105 -0.3557  0.4209
19304TIP3    H279404   3.234   4.318  14.310  0.1802  0.8848  1.3473
19305TIP3   OH279405   6.218   0.084  10.828  0.0095 -0.4136  0.3864
19305TIP3    H179406   6.178   0.011  10.781 -1.6303  1.1785 -0.8730
19305TIP3    H279407   6.261   0.136  10.761  0.6566  0.0878  1.1654
19306TIP3   OH279408   4.646   1.087   3.422  0.3496  0.0741 -0.2308
19306TIP3    H179409   4.658   1.161   3.361 -0.1889  0.2897 -0.0762
19306TIP3    H279410   4.691   1.114   3.502  1.8825 -0.5980 -0.8217
19307TIP3   OH279411   0.533   2.502   5.081 -0.3747 -0.4196  0.0719
19307TIP3    H179412   0.477   2.577   5.098 -0.3679  0.3154 -2.7000
19307TIP3    H279413   0.606   2.512   5.142  0.1258  2.4131 -0.8585
19308TIP3   OH279414   3.636   3.606  16.323  0.1609  0.4515  0.1099
19308TIP3    H179415   3.572   3.619  16.394 -0.8907  0.5919 -0.8365
19308TIP3    H279416   3.679   3.524  16.345 -1.7645 -0.7261 -0.2310
19309TIP3   OH279417   5.735   6.278  15.061 -0.1390  0.5148  0.2060
19309TIP3    H179418   5.754   6.354  15.006  0.3241  0.1832 -0.1002
19309TIP3    H279419   5.667   6.231  15.013  0.1008  0.3467  0.0307
19310TIP3   OH279420   2.750   2.472  16.206  0.6886 -0.3914 -0.1794
19310TIP3    H179421   2.807   2.419  16.263  0.7929 -1.1632 -0.9707
19310TIP3    H279422   2.788   2.559  16.209 -0.2764  0.0298  2.2485
19311TIP3   OH279423   1.877   4.932   1.010  0.1039 -0.0337 -0.0822
19311TIP3    H179424   1.806   4.986   0.976 -1.6453 -1.7934  0.5719
19311TIP3    H279425   1.911   4.982   1.085 -1.1048  0.4113  0.1914
19312TIP3   OH279426   4.804   6.556  16.377 -0.0336  0.0935  0.2553
19312TIP3    H179427   4.820   6.487  16.441  0.2949 -0.3701 -0.3199
19312TIP3    H279428   4.890   6.590  16.355  0.0573 -1.0829 -1.3834
19313TIP3   OH279429   1.078   3.349   6.014 -0.0754  0.4900  0.4589
19313TIP3    H179430   1.131   3.269   6.008 -0.3367  0.3015  0.6255
19313TIP3    H279431   1.114   3.396   6.088  0.7652  1.0404 -0.2892
19314TIP3   OH279432   2.337   2.754  15.949 -0.5066 -0.1260 -0.0288
19314TIP3    H179433   2.415   2.703  15.971 -0.7118 -0.8165 -0.8506
19314TIP3    H279434   2.266   2.710  15.995 -0.5076  0.1764  0.2698
19315TIP3   OH279435   6.418   1.437  14.170  0.5658  0.4900  0.7671
19315TIP3    H179436   6.360   1.422  14.096  3.0500 -0.6715 -1.0875
19315TIP3    H279437   6.400   1.366  14.230 -0.1745  0.3688  0.4120
19316TIP3   OH279438   1.023   3.342   5.466 -0.0005  0.2796 -0.0496
19316TIP3    H179439   0.958   3.368   5.531  0.7095  2.1273 -0.0262
19316TIP3    H279440   0.990   3.377   5.383 -0.6103 -1.5615 -0.6356
19317TIP3   OH279441   3.036   2.996  12.312 -0.0562 -0.0225 -0.1286
19317TIP3    H179442   3.125   3.021  12.288  1.7641 -1.6524  4.0970
19317TIP3    H279443   3.022   2.912  12.268  0.2293  0.4715 -1.1990
19318TIP3   OH279444   6.023   3.159  14.062 -0.3819  0.0472 -0.8168
19318TIP3    H179445   6.053   3.077  14.021  1.4480  0.7496 -0.9781
19318TIP3    H279446   6.009   3.218  13.988  0.9177  0.6794 -0.5865
19319TIP3   OH279447   1.561   0.823   6.008  0.0270  0.8051  0.2888
19319TIP3    H179448   1.583   0.752   5.949 -1.1036  1.1513 -0.5888
19319TIP3    H279449   1.613   0.897   5.977 -0.0054  0.7847  0.1852
19320TIP3   OH279450   0.176   3.925  16.856 -0.1325  0.2216 -0.3671
19320TIP3    H179451   0.096   3.873  16.853  1.4924 -2.4233 -0.5426
19320TIP3    H279452   0.219   3.898  16.938  1.5623 -0.0370 -1.2888
19321TIP3   OH279453   3.985   2.078  14.529  0.2748  0.1216 -1.0299
19321TIP3    H179454   3.953   2.029  14.453  0.4970 -2.2076  0.2716
19321TIP3    H279455   4.051   2.021  14.568  0.0463  1.1462  1.0002
19322TIP3   OH279456   2.316   5.723   0.250 -0.0853 -0.0671 -0.1496
19322TIP3    H179457   2.275   5.803   0.283 -2.3656 -0.9175 -0.7141
19322TIP3    H279458   2.257   5.653   0.278 -0.3897 -1.1366 -3.0917
19323TIP3   OH279459   2.750   3.898  11.800  0.0272 -0.2983  0.3194
19323TIP3    H179460   2.818   3.840  11.835  0.1273 -0.3258  0.0819
19323TIP3    H279461   2.777   3.986  11.826  1.0713 -0.1218 -1.2250
19324TIP3   OH279462   4.707   1.245   4.271  0.2864  0.5511 -0.2585
19324TIP3    H179463   4.772   1.246   4.201  1.9929 -0.2304  1.2531
19324TIP3    H279464   4.750   1.288   4.345 -0.8607 -0.1257  0.8484
19325TIP3   OH279465   5.972   1.800   5.129 -0.1367  0.1735 -0.6536
19325TIP3    H179466   5.915   1.877   5.119  0.6772  0.6750 -1.5269
19325TIP3    H279467   5.972   1.783   5.224 -0.7578  0.9168 -0.5101
19326TIP3   OH279468   4.618   0.123   2.106 -0.3155  0.0874  0.3680
19326TIP3    H179469   4.548   0.149   2.165 -1.1197 -0.4214 -0.3384
19326TIP3    H279470   4.574   0.099   2.025  0.5387 -1.7081  0.3875
19327TIP3   OH279471   3.228   6.363  15.867  0.7741 -0.2002  0.7813
19327TIP3    H179472   3.246   6.325  15.953 -1.4791  2.2109  2.4610
19327TIP3    H279473   3.210   6.287  15.811  2.1199 -1.8318  2.4246
19328TIP3   OH279474   3.617   1.272   0.547 -0.2656 -0.0039 -0.0968
19328TIP3    H179475   3.582   1.270   0.636 -2.1407  1.7465 -0.7046
19328TIP3    H279476   3.676   1.348   0.545 -1.6748  1.1311 -0.7571
19329TIP3   OH279477   1.949   3.726  11.031 -0.4402 -0.1731  0.3367
19329TIP3    H179478   1.863   3.689  11.052 -0.8624 -0.7599 -2.1164
19329TIP3    H279479   1.964   3.701  10.940  1.9132  0.7711  0.3959
19330TIP3   OH279480   1.846   0.881   1.225  0.2526 -0.3165  0.1498
19330TIP3    H179481   1.936   0.912   1.212  0.2281  1.5270  3.1738
19330TIP3    H279482   1.791   0.950   1.187  0.2115  0.8599  2.1754
19331TIP3   OH279483   5.189   3.972   6.081 -0.3793  0.3440 -0.0701
19331TIP3    H179484   5.167   3.994   6.171  0.1453  0.3956  0.0466
19331TIP3    H279485   5.223   3.883   6.085  1.7539  1.1152  0.1271
19332TIP3   OH279486   2.003   6.538  13.852 -0.1061 -0.0373 -0.1639
19332TIP3    H179487   2.053   6.563  13.929  0.0468 -1.4158  0.2179
19332TIP3    H279488   1.988   6.444  13.863  0.9578 -0.5157 -2.3964
19333TIP3   OH279489   4.679   3.595   3.376 -0.2979 -0.7792  0.7792
19333TIP3    H179490   4.608   3.551   3.328 -3.1962  1.2201  2.8613
19333TIP3    H279491   4.635   3.638   3.449  2.5807  3.5548  0.2992
19334TIP3   OH279492   6.144   6.048  11.034 -0.0523 -0.3653 -0.3051
19334TIP3    H179493   6.173   5.957  11.035 -2.5865 -1.2850 -1.3493
19334TIP3    H279494   6.156   6.076  10.944  0.5346  0.2972 -0.0305
19335TIP3   OH279495   3.732   4.561  12.434 -0.1010 -0.3656  0.3045
19335TIP3    H179496   3.699   4.647  12.462  3.0275  0.6470  1.3437
19335TIP3    H279497   3.777   4.580  12.351 -0.4377 -1.2597 -0.0853
19336TIP3   OH279498   6.801   1.452   6.316 -0.3727  0.0249  0.0038
19336TIP3    H179499   6.742   1.476   6.388 -1.4948 -1.3214 -0.4074
19336TIP3    H279500   6.814   1.357   6.326 -0.8316 -0.2663 -1.7117
19337TIP3   OH279501   2.030   6.078   4.650 -0.3736  0.0118  0.4192
19337TIP3    H179502   2.115   6.042   4.624 -1.3977 -1.2423 -1.3498
19337TIP3    H279503   2.038   6.090   4.745  1.4996 -0.8326  0.4131
19338TIP3   OH279504   4.689   3.333   4.358  0.2289 -0.0611 -0.5407
19338TIP3    H179505   4.749   3.267   4.393  3.2633  1.5806 -2.2713
19338TIP3    H279506   4.682   3.399   4.427 -0.3122 -0.6398 -0.0242
19339TIP3   OH279507   4.476   5.708   2.204  0.0353  0.0662  0.1954
19339TIP3    H179508   4.462   5.753   2.287 -1.4446  1.5852 -0.7877
19339TIP3    H279509   4.400   5.651   2.194  0.5568 -0.6378  0.1970
19340TIP3   OH279510   0.573   1.512  15.172 -0.0364  0.0206  0.3344
19340TIP3    H179511   0.508   1.526  15.103 -0.1279 -0.3077  0.3528
19340TIP3    H279512   0.522   1.507  15.252  0.1213  1.0617  0.5218
19341TIP3   OH279513   4.019   2.713   4.333  0.1130 -0.0429  0.1053
19341TIP3    H179514   4.048   2.769   4.261  2.0551 -0.3960  0.5614
19341TIP3    H279515   4.032   2.624   4.301 -1.0245 -0.2371  0.1402
19342TIP3   OH279516   6.313   1.616  17.158  0.5566 -0.1500 -0.4821
19342TIP3    H179517   6.343   1.707  17.157  0.0489  0.0683 -3.0696
19342TIP3    H279518   6.295   1.598  17.250 -0.6356  2.8234 -0.0052
19343TIP3   OH279519   2.901   2.678   4.286  0.9088 -0.5966 -0.2375
19343TIP3    H179520   2.807   2.690   4.303  1.1808  0.4685  0.6280
19343TIP3    H279521   2.935   2.767   4.277  1.4147 -0.9948 -3.2189
19344TIP3   OH279522   0.785   5.427  11.736 -0.8961  0.0461 -0.3672
19344TIP3    H179523   0.832   5.347  11.714 -0.2163 -0.0548  1.3126
19344TIP3    H279524   0.853   5.493  11.747 -0.9964 -0.1577  2.3412
19345TIP3   OH279525   3.016   4.400  14.496 -0.3778 -0.2030 -0.3567
19345TIP3    H179526   3.077   4.441  14.435  0.0432  1.5578  1.1732
19345TIP3    H279527   2.929   4.417  14.459 -0.0595 -1.6851 -1.9189
19346TIP3   OH279528   5.290   2.670  14.839  0.0888 -0.2606 -0.2266
19346TIP3    H179529   5.270   2.704  14.926  0.9862 -0.5824  0.1090
19346TIP3    H279530   5.307   2.749  14.786 -1.5100 -0.0016 -0.4029
19347TIP3   OH279531   0.211   2.589   4.448  0.3006  0.1702  0.4567
19347TIP3    H179532   0.168   2.505   4.461 -1.1925  0.8467  0.0526
19347TIP3    H279533   0.223   2.595   4.353  1.4400 -0.0616  0.5690
19348TIP3   OH279534   3.304   1.258  14.724  0.1525 -0.7457  0.1024
19348TIP3    H179535   3.285   1.192  14.657  0.6696 -1.0723  0.2767
19348TIP3    H279536   3.399   1.260  14.730  0.3618  1.9631 -1.8690
19349TIP3   OH279537   5.736   6.124  14.017  0.2175  0.0917 -0.0621
19349TIP3    H179538   5.773   6.202  13.976  1.8650 -1.1443 -1.0392
19349TIP3    H279539   5.670   6.093  13.955  0.7020 -0.1934 -0.4350
19350TIP3   OH279540   6.188   3.783  13.962  0.0913 -0.0715 -0.3043
19350TIP3    H179541   6.249   3.842  14.007  0.4066 -0.5465 -0.1026
19350TIP3    H279542   6.215   3.786  13.870  0.9015 -0.8388 -0.1088
19351TIP3   OH279543   6.222   4.879   5.217 -0.0791  0.2265  0.0708
19351TIP3    H179544   6.284   4.891   5.145 -1.7606 -1.1093 -1.6999
19351TIP3    H279545   6.262   4.812   5.272  0.3426 -0.1847 -0.7235
19352TIP3   OH279546   1.483   5.176   2.693 -0.0076 -0.2065  0.0148
19352TIP3    H179547   1.556   5.123   2.725  0.2341 -0.1388 -0.4099
19352TIP3    H279548   1.525   5.255   2.658 -0.2128 -0.4718 -0.8603
19353TIP3   OH279549   3.964   0.101   0.969  0.3191  0.2608  0.3379
19353TIP3    H179550   3.933   0.011   0.976 -0.4369  0.4409 -0.4581
19353TIP3    H279551   3.995   0.123   1.056 -1.5093 -0.0448  1.1167
19354TIP3   OH279552   1.324   6.634  15.267 -0.2653  0.3973 -0.5911
19354TIP3    H179553   1.385   6.654  15.338 -0.3495  1.4448 -0.7897
19354TIP3    H279554   1.308   6.540  15.274 -0.1483  0.4583  0.6692
19355TIP3   OH279555   1.061   6.344   4.164 -0.4291 -0.1024 -0.4864
19355TIP3    H179556   1.048   6.390   4.081  0.4076 -0.6221 -0.9197
19355TIP3    H279557   1.043   6.410   4.231 -2.6984 -0.0922 -1.0261
19356TIP3   OH279558   4.058   2.066   0.023 -0.0015  0.1134  0.4882
19356TIP3    H179559   4.150   2.086   0.006  0.2677 -1.2763  0.1733
19356TIP3    H279560   4.052   1.971   0.013 -1.5979  0.2440 -0.0727
19357TIP3   OH279561   5.763   0.031  15.854  0.0172  0.6579  0.8529
19357TIP3    H179562   5.858   0.039  15.852  0.1939 -1.1320 -0.1816
19357TIP3    H279563   5.742   0.022  15.946  1.0482 -0.6070  0.9955
19358TIP3   OH279564   6.218   0.939  17.109 -0.2276 -0.2098  0.1864
19358TIP3    H179565   6.194   0.869  17.049 -1.8450 -1.5062  2.2367
19358TIP3    H279566   6.313   0.946  17.100 -0.4334  0.1212 -2.9290
19359TIP3   OH279567   5.325   4.830   0.177  0.0606  0.3683 -0.1245
19359TIP3    H179568   5.303   4.803   0.266 -0.2403  1.8159  0.2727
19359TIP3    H279569   5.248   4.809   0.125  0.2504 -0.5123 -0.0583
19360TIP3   OH279570   1.746   5.900  17.155  0.7944 -0.3570 -0.0041
19360TIP3    H179571   1.774   5.916  17.065 -1.7022 -1.0585 -0.9861
19360TIP3    H279572   1.762   5.983  17.200 -0.0119  0.7798 -1.7006
19361TIP3   OH279573   1.004   4.092  11.843  0.1071  0.0868  0.3576
19361TIP3    H179574   1.056   4.019  11.808  1.3378  1.5445 -1.0019
19361TIP3    H279575   0.923   4.051  11.872  0.1584 -1.6720 -1.6927
19362TIP3   OH279576   1.368   1.278  15.754  0.3153  0.4550  0.2429
19362TIP3    H179577   1.376   1.182  15.760  1.9697  0.4296 -1.4392
19362TIP3    H279578   1.442   1.311  15.805  1.1881  0.7474 -1.1790
19363TIP3   OH279579   6.285   2.098   1.679 -0.2922 -0.2607  0.4698
19363TIP3    H179580   6.371   2.128   1.650  0.0080  0.3249  1.8967
19363TIP3    H279581   6.293   2.003   1.683  0.1516 -0.2381  0.1789
19364TIP3   OH279582   5.161   5.113  13.683 -0.2117  0.1419  0.0653
19364TIP3    H179583   5.120   5.198  13.671 -1.3164 -0.4604 -0.5797
19364TIP3    H279584   5.188   5.086  13.595  1.2937  0.3665  0.4238
19365TIP3   OH279585   4.369   1.802  13.530  0.5683  0.5525  0.7215
19365TIP3    H179586   4.303   1.852  13.483 -0.2411 -1.6290 -0.6019
19365TIP3    H279587   4.359   1.829  13.622 -1.8805  0.5840  0.4945
19366TIP3   OH279588   5.512   2.813   0.372  0.2663  0.1706  0.8014
19366TIP3    H179589   5.510   2.849   0.460  0.1105  0.2222  0.7761
19366TIP3    H279590   5.569   2.872   0.323 -0.3527  0.6420  0.6444
19367TIP3   OH279591   0.192   2.063  10.981 -0.0767  0.1328  0.1777
19367TIP3    H179592   0.189   2.158  10.968  3.1664  0.4445  0.8170
19367TIP3    H279593   0.275   2.048  11.027 -0.1197 -3.0955 -0.5604
19368TIP3   OH279594   3.218   0.471  13.796  0.5761  0.1971 -0.3806
19368TIP3    H179595   3.170   0.518  13.864  1.9328  1.5815 -0.3210
19368TIP3    H279596   3.179   0.501  13.714 -0.2685 -0.5704 -0.2767
19369TIP3   OH279597   1.008   6.243  15.486 -0.2069 -0.3035 -0.1004
19369TIP3    H179598   0.983   6.205  15.402  3.2634  1.6819 -2.2718
19369TIP3    H279599   0.929   6.287  15.517 -1.2539  0.1611 -3.1051
19370TIP3   OH279600   1.898   6.109  11.117 -0.0107  0.2861 -0.6762
19370TIP3    H179601   1.897   6.030  11.064  3.2118 -1.7656  1.9367
19370TIP3    H279602   1.966   6.164  11.077  0.9064 -0.3180  0.0046
19371TIP3   OH279603   0.071   6.471   4.495  0.7457 -0.1900 -0.2560
19371TIP3    H179604   0.014   6.528   4.546  1.4154  0.3288 -0.0746
19371TIP3    H279605   0.041   6.480   4.405  0.3399 -0.1725 -0.1198
19372TIP3   OH279606   4.849   3.213  12.638  0.3496 -0.3933 -0.2610
19372TIP3    H179607   4.802   3.189  12.718 -2.7024 -1.5145 -2.2064
19372TIP3    H279608   4.805   3.293  12.608  0.9680 -0.3845 -1.1810
19373TIP3   OH279609   0.154   3.258   1.821 -0.3515 -0.5821 -0.1218
19373TIP3    H179610   0.180   3.199   1.891  0.6369  1.5367  1.3965
19373TIP3    H279611   0.062   3.276   1.838 -0.1636 -0.2219  0.5386
19374TIP3   OH279612   5.462   1.150  15.482 -0.4393  0.1800  0.2871
19374TIP3    H179613   5.511   1.127  15.561 -0.7545 -1.1902  0.1043
19374TIP3    H279614   5.373   1.165  15.513 -0.3644  0.5463  0.3226
19375TIP3   OH279615   5.621   4.491  15.855 -0.0558  0.6025  0.1698
19375TIP3    H179616   5.701   4.543  15.847 -0.5862  1.5722  0.9043
19375TIP3    H279617   5.580   4.523  15.935 -1.0188 -0.1055 -0.0242
19376TIP3   OH279618   1.799   4.226   6.103  0.1174 -0.1178 -0.0098
19376TIP3    H179619   1.835   4.315   6.104  0.3982 -0.2166 -0.7680
19376TIP3    H279620   1.779   4.209   6.011  1.1835 -1.2751 -0.0597
19377TIP3   OH279621   6.389   5.228  17.093  0.1680  0.2536  0.3239
19377TIP3    H179622   6.339   5.161  17.046 -1.6636  1.2290  0.7945
19377TIP3    H279623   6.434   5.277  17.024  0.2684 -0.4443 -0.1257
19378TIP3   OH279624   3.590   4.884  15.757 -0.1723  0.5272  0.1805
19378TIP3    H179625   3.510   4.834  15.741 -1.4391  0.9015  4.1933
19378TIP3    H279626   3.572   4.971  15.722 -1.7040  0.6592  1.1912
19379TIP3   OH279627   4.357   0.929   2.405 -0.0327 -0.2824  0.9759
19379TIP3    H179628   4.364   0.990   2.332  0.7359  0.4367  1.6336
19379TIP3    H279629   4.380   0.844   2.367 -1.8342 -0.3384 -0.1160
19380TIP3   OH279630   6.517   3.607   3.396  0.0229 -0.0426 -0.1392
19380TIP3    H179631   6.515   3.531   3.338  1.0155  0.0883 -0.3481
19380TIP3    H279632   6.449   3.589   3.461  0.0953 -0.9970 -0.3219
19381TIP3   OH279633   0.451   4.292   0.791 -0.1531  0.3223  0.3777
19381TIP3    H179634   0.518   4.284   0.723 -0.2262 -0.0611  0.3499
19381TIP3    H279635   0.393   4.218   0.777  0.1124 -0.0467  1.1775
19382TIP3   OH279636   4.216   0.312   0.359 -0.5940  0.0068 -0.6152
19382TIP3    H179637   4.202   0.305   0.453  2.5311 -0.2630 -0.0806
19382TIP3    H279638   4.201   0.224   0.326  1.2374 -0.6377  0.1579
19383TIP3   OH279639   6.635   1.829  13.141  0.1141 -0.3268  0.6643
19383TIP3    H179640   6.703   1.775  13.180  1.6896  0.6540 -0.6110
19383TIP3    H279641   6.679   1.876  13.070 -1.7265  0.8879  0.2574
19384TIP3   OH279642   0.628   6.115   0.464  0.1538  0.7463  0.4468
19384TIP3    H179643   0.630   6.046   0.398 -0.6249  1.2247 -0.1088
19384TIP3    H279644   0.687   6.182   0.430  0.8100  0.4166  0.9218
19385TIP3   OH279645   0.709   0.874   2.960 -0.1300 -0.0082 -0.0028
19385TIP3    H179646   0.733   0.853   2.870  0.7229  0.1873  0.1758
19385TIP3    H279647   0.703   0.789   3.004  1.9514  0.0020  0.3744
19386TIP3   OH279648   1.605   0.539  16.423  0.0876 -0.5569 -0.1925
19386TIP3    H179649   1.615   0.628  16.389  3.5292  0.0550  1.8809
19386TIP3    H279650   1.675   0.490  16.379  1.7698 -0.7816  2.5128
19387TIP3   OH279651   4.317   0.302  14.185  0.3078 -0.2901 -0.2328
19387TIP3    H179652   4.407   0.301  14.219  0.2204  0.9127  0.0951
19387TIP3    H279653   4.263   0.312  14.263 -0.1566 -1.5527 -0.3811
19388TIP3   OH279654   4.400   4.579  13.151  0.2857  0.2095 -0.4942
19388TIP3    H179655   4.491   4.591  13.126  0.7516 -1.3784  0.2716
19388TIP3    H279656   4.402   4.506  13.213 -1.3517  0.9967  0.5507
19389TIP3   OH279657   5.923   4.852  14.762 -0.5464  0.4336 -0.1529
19389TIP3    H179658   5.987   4.902  14.813 -1.9051 -0.7758  2.9801
19389TIP3    H279659   5.877   4.918  14.710 -0.5547  2.1136  1.8823
19390TIP3   OH279660   6.300   6.113   0.873 -0.5852 -1.0747 -0.5241
19390TIP3    H179661   6.213   6.107   0.913  0.0876 -1.2019  0.9755
19390TIP3    H279662   6.355   6.055   0.926  0.9453  0.7652  0.0055
19391TIP3   OH279663   1.536   1.200  11.472  0.6467  0.1492  0.3912
19391TIP3    H179664   1.571   1.289  11.478 -0.8065  0.8506 -0.8244
19391TIP3    H279665   1.502   1.182  11.560 -0.6404  1.5197  0.2170
19392TIP3   OH279666   2.948   3.288  10.354 -0.7062  0.1379  0.0159
19392TIP3    H179667   2.912   3.199  10.362  0.2944 -0.3112 -0.2945
19392TIP3    H279668   3.042   3.277  10.367 -0.3000  0.8533 -1.9256
19393TIP3   OH279669   3.917   0.925  14.139  0.6281 -0.1119 -0.2957
19393TIP3    H179670   4.001   0.966  14.122  1.1903 -0.1917  1.9987
19393TIP3    H279671   3.854   0.978  14.089  1.8408  0.8211 -0.8895
19394TIP3   OH279672   4.506   0.439  13.487 -0.0619  0.2009  0.8146
19394TIP3    H179673   4.475   0.454  13.397  0.7210 -0.1694  0.4660
19394TIP3    H279674   4.513   0.526  13.526  0.3452  0.4262  0.2507
19395TIP3   OH279675   5.786   5.903  11.434  0.6092 -0.3247 -0.4609
19395TIP3    H179676   5.854   5.869  11.375  1.0129  1.1678 -0.9084
19395TIP3    H279677   5.705   5.861  11.403  0.9548 -0.2669 -1.5031
19396TIP3   OH279678   3.738   1.396  16.859 -0.4390 -0.3565  0.1282
19396TIP3    H179679   3.780   1.459  16.800 -2.4220  0.6031 -0.3179
19396TIP3    H279680   3.664   1.443  16.896 -1.0939 -1.9607  0.9628
19397TIP3   OH279681   6.570   4.212   2.025  0.4042  0.0312 -0.1709
19397TIP3    H179682   6.626   4.161   1.966  1.5798  1.2085 -0.1192
19397TIP3    H279683   6.537   4.283   1.970  0.6156  0.4990  0.2963
19398TIP3   OH279684   5.770   0.019  13.896  0.1761 -0.1364  0.2168
19398TIP3    H179685   5.690   0.002  13.846  1.2344 -0.5580 -1.4062
19398TIP3    H279686   5.802  -0.068  13.920  0.5343 -0.0075  0.2090
19399TIP3   OH279687   3.848   0.422  15.192 -0.1704  0.2395  0.0769
19399TIP3    H179688   3.753   0.415  15.186 -0.2379  1.8825 -1.8397
19399TIP3    H279689   3.873   0.478  15.119  2.3092 -0.2595  0.4331
19400TIP3   OH279690   5.554   0.080  16.889  0.4274  0.9001  0.2794
19400TIP3    H179691   5.526   0.169  16.911 -0.1793  0.6015  0.7315
19400TIP3    H279692   5.525   0.026  16.963 -3.4673 -0.5110 -1.9754
19401TIP3   OH279693   1.203   6.350  15.036  0.1631  0.4081 -0.4279
19401TIP3    H179694   1.250   6.272  15.007  1.9270  1.5940 -0.8964
19401TIP3    H279695   1.189   6.336  15.129 -2.3104 -1.8037 -1.0129
19402TIP3   OH279696   1.364   5.174   5.719 -0.2314  0.2622 -0.4817
19402TIP3    H179697   1.383   5.160   5.626  0.5237  1.1675 -0.4892
19402TIP3    H279698   1.269   5.165   5.726 -0.2900  0.1156 -1.3266
19403TIP3   OH279699   2.687   2.456   2.573  0.8784 -0.4311  0.1547
19403TIP3    H179700   2.621   2.524   2.557  1.8799  0.3449 -0.8160
19403TIP3    H279701   2.648   2.401   2.641  0.1279  1.2370  1.1360
19404TIP3   OH279702   4.984   5.880   3.074  0.3827 -0.6307 -0.1991
19404TIP3    H179703   5.056   5.893   3.137 -0.5068  4.0958  0.2382
19404TIP3    H279704   4.905   5.882   3.128 -0.2617 -3.1428 -0.9478
19405TIP3   OH279705   5.129   5.348  17.085 -0.9547 -0.3187  0.0249
19405TIP3    H179706   5.140   5.254  17.099 -1.1382  0.0194  3.0522
19405TIP3    H279707   5.051   5.355  17.030 -0.4575 -1.9227 -0.9487
19406TIP3   OH279708   3.724   1.256  14.452 -0.0942  0.5050 -0.3926
19406TIP3    H179709   3.720   1.162  14.434  0.3941  0.9000 -3.0693
19406TIP3    H279710   3.754   1.263  14.542  0.1919 -1.9003 -0.2460
19407TIP3   OH279711   4.984   3.783   2.206  0.3595  0.0233 -0.6149
19407TIP3    H179712   4.987   3.846   2.134 -0.5846 -1.0176 -1.6116
19407TIP3    H279713   5.074   3.779   2.239  0.7732  0.6345 -1.6299
19408TIP3   OH279714   2.788   3.011   1.090  0.8709  0.8308  0.3621
19408TIP3    H179715   2.799   3.078   1.023  0.2391  0.4506 -0.1315
19408TIP3    H279716   2.697   3.018   1.117  0.7666  0.1042  0.2248
19409TIP3   OH279717   6.165   6.398  11.404 -0.4407  0.1925 -0.0942
19409TIP3    H179718   6.143   6.323  11.458 -0.0343 -0.1739 -0.4344
19409TIP3    H279719   6.171   6.363  11.315 -0.4588  0.6662 -0.2875
19410TIP3   OH279720   1.101   5.385  14.679  0.3453 -0.4413 -0.4322
19410TIP3    H179721   1.155   5.321  14.632  0.3772 -1.7969  1.3501
19410TIP3    H279722   1.161   5.458  14.697  0.2716  0.2183 -2.6107
19411TIP3   OH279723   4.323   1.436   4.309  0.7312 -0.3638 -0.1306
19411TIP3    H179724   4.396   1.432   4.248  2.3159  0.4505  1.5911
19411TIP3    H279725   4.335   1.361   4.367  0.5463  0.1026  0.5298
19412TIP3   OH279726   6.578   5.398   0.979  0.2887 -0.0674  0.2386
19412TIP3    H179727   6.527   5.317   0.989  0.6524 -0.6176 -1.7986
19412TIP3    H279728   6.527   5.451   0.918  0.6771  0.7087  0.5799
19413TIP3   OH279729   2.703   6.209  16.791  0.3403  0.9284 -0.4095
19413TIP3    H179730   2.695   6.222  16.696  1.0438 -0.0083 -0.6106
19413TIP3    H279731   2.696   6.114  16.803  3.2954  0.6774  0.1064
19414TIP3   OH279732   1.485   1.934  15.873  0.2894  0.3984  0.4364
19414TIP3    H179733   1.518   2.011  15.919  1.5084  1.0581 -1.4423
19414TIP3    H279734   1.551   1.915  15.807 -0.8231 -1.2318 -0.2760
19415TIP3   OH279735   2.063   2.026   3.919  0.0102  0.1595 -0.1223
19415TIP3    H179736   2.099   1.940   3.938  1.2849  0.3788 -1.3682
19415TIP3    H279737   2.020   2.016   3.834  1.7268  1.1076 -1.1814
19416TIP3   OH279738   2.571   5.911  16.231  0.0773  0.6000  0.1015
19416TIP3    H179739   2.532   5.851  16.167  0.0743  1.2506 -0.5295
19416TIP3    H279740   2.621   5.972  16.177 -1.4357  2.3033  0.5431
19417TIP3   OH279741   5.238   0.012  14.126  0.2414 -0.5245  0.1840
19417TIP3    H179742   5.242   0.070  14.049  1.4540  0.0677  0.6802
19417TIP3    H279743   5.231  -0.076  14.088  1.2856 -0.2815 -0.6363
19418TIP3   OH279744   6.606   0.753  16.187  0.7096 -0.1361 -0.1233
19418TIP3    H179745   6.655   0.706  16.119  0.9134  1.9967 -1.5568
19418TIP3    H279746   6.670   0.813  16.225 -0.4127  1.8437 -1.1866
19419TIP3   OH279747   0.811   1.487  13.792 -0.1340  0.0835  0.3832
19419TIP3    H179748   0.848   1.444  13.715  1.7945  0.7284  0.8763
19419TIP3    H279749   0.743   1.544  13.758  0.9867  0.6940 -0.9283
19420TIP3   OH279750   2.619   0.846  12.961 -0.0744  0.3675  0.4833
19420TIP3    H179751   2.656   0.894  12.887  0.1305  0.2348  0.4987
19420TIP3    H279752   2.548   0.794  12.923  0.8399 -0.6794  0.1361
19421TIP3   OH279753   3.405   1.990   2.137  0.2262 -0.5537 -0.3210
19421TIP3    H179754   3.459   2.020   2.063 -0.6746  1.9658 -0.0489
19421TIP3    H279755   3.387   2.070   2.187 -2.8215 -1.4522  0.2076
19422TIP3   OH279756   0.129   3.574  12.801 -0.2873 -0.4836  0.4164
19422TIP3    H179757   0.088   3.641  12.747 -0.9875 -2.3667 -1.5031
19422TIP3    H279758   0.173   3.623  12.871 -0.5142  1.9562 -1.0572
19423TIP3   OH279759   4.711   5.464  10.367 -0.1881 -0.2162 -0.0988
19423TIP3    H179760   4.655   5.387  10.361 -0.4616 -0.2217  1.9348
19423TIP3    H279761   4.797   5.430  10.392 -0.5705  0.1635  1.8929
19424TIP3   OH279762   5.317   4.588   0.835  0.4205 -0.1116 -0.7603
19424TIP3    H179763   5.258   4.655   0.869  1.6457  1.4732 -1.5911
19424TIP3    H279764   5.330   4.528   0.909  0.0599  1.1183  0.3524
19425TIP3   OH279765   0.520   0.432  12.191 -0.0649 -0.3061  0.2899
19425TIP3    H179766   0.612   0.445  12.213  0.0110 -0.1473 -0.1104
19425TIP3    H279767   0.521   0.408  12.099 -0.3826 -0.8668  0.4323
19426TIP3   OH279768   6.418   3.063  15.995  0.0607  0.0973  0.0433
19426TIP3    H179769   6.409   2.979  16.040 -1.3087 -0.2352 -0.8083
19426TIP3    H279770   6.377   3.126  16.053  0.9312  0.1711  0.6011
19427TIP3   OH279771   5.321   1.964   1.173  0.4360  0.0875  0.5893
19427TIP3    H179772   5.246   1.921   1.215  1.1182  0.1890  1.9709
19427TIP3    H279773   5.398   1.924   1.214  1.1019  1.8540  1.1826
19428TIP3   OH279774   4.258   6.705   2.093 -0.0883 -0.0841  0.0986
19428TIP3    H179775   4.298   6.632   2.139 -0.3093 -0.0435  0.3582
19428TIP3    H279776   4.172   6.714   2.133 -0.0695  0.3047  0.0554
19429TIP3   OH279777   2.542   2.985  13.263  0.1125  0.0275 -0.3556
19429TIP3    H179778   2.503   2.902  13.291  0.6645 -0.2616 -0.4167
19429TIP3    H279779   2.636   2.966  13.258  0.3292  0.8722  0.3478
19430TIP3   OH279780   4.257   4.610   0.908 -0.3811  0.0069 -0.0685
19430TIP3    H179781   4.216   4.655   0.982 -0.4105 -1.3246  0.7519
19430TIP3    H279782   4.343   4.653   0.899 -0.3033  0.0752  0.8507
19431TIP3   OH279783   3.426   5.770  13.209  0.1617  0.2438  0.3912
19431TIP3    H179784   3.486   5.762  13.135 -1.2771  1.0317 -0.9284
19431TIP3    H279785   3.482   5.788  13.284  1.9484 -3.2132  0.1051
19432TIP3   OH279786   3.007   2.038   4.483  0.0015 -0.6771 -0.2829
19432TIP3    H179787   2.918   2.067   4.463 -0.0773  0.1939  1.1729
19432TIP3    H279788   3.053   2.118   4.509  0.8831 -1.2932  0.1025
19433TIP3   OH279789   1.769   2.634   5.005 -0.2004  0.3172 -0.0177
19433TIP3    H179790   1.718   2.667   5.079  1.1847 -2.0864  2.1857
19433TIP3    H279791   1.844   2.694   5.001  0.1498 -0.0021  1.1472
19434TIP3   OH279792   6.326   2.670  11.951 -0.1245  0.0961 -0.3554
19434TIP3    H179793   6.289   2.615  11.882 -0.8611  1.0898 -0.7909
19434TIP3    H279794   6.304   2.760  11.924 -0.0667  0.5327  0.9644
19435TIP3   OH279795   4.234   2.509   0.331 -0.4012  0.6947  0.3350
19435TIP3    H179796   4.228   2.560   0.412 -1.1277  0.8714  0.1777
19435TIP3    H279797   4.162   2.446   0.337  0.2336 -0.0435  0.3356
19436TIP3   OH279798   4.434   0.713   2.234 -0.0825 -0.1011  0.4082
19436TIP3    H179799   4.473   0.646   2.290  1.4877  1.1774  0.9084
19436TIP3    H279800   4.406   0.665   2.156 -0.2899 -1.5417  1.3312
19437TIP3   OH279801   1.326   2.582   2.851 -0.3154 -0.1790 -0.5965
19437TIP3    H179802   1.267   2.519   2.892 -0.1998 -0.1025 -0.3089
19437TIP3    H279803   1.319   2.661   2.905  0.7534 -0.4723  0.0055
19438TIP3   OH279804   0.052   0.272  13.891  0.2559 -0.2430  0.3080
19438TIP3    H179805   0.110   0.316  13.829  2.6395 -0.2116  2.4166
19438TIP3    H279806  -0.005   0.341  13.924 -2.0358 -0.4859 -2.6776
19439TIP3   OH279807   1.100   4.594  16.003 -0.2922 -0.1470  0.1385
19439TIP3    H179808   1.073   4.599  15.911  0.7887 -0.6623 -0.2313
19439TIP3    H279809   1.187   4.635  16.005  0.2824 -1.3262  0.6491
19440TIP3   OH279810   4.674   3.004  15.986  0.1676 -0.1750 -0.6333
19440TIP3    H179811   4.735   2.966  16.049 -0.7196  0.0113  0.3604
19440TIP3    H279812   4.720   2.998  15.902  2.2212  1.3684  0.2824
19441TIP3   OH279813   6.088   4.262  16.338 -0.3140 -0.2310 -0.1253
19441TIP3    H179814   6.097   4.178  16.293 -1.2224 -0.0412 -0.7122
19441TIP3    H279815   5.997   4.288  16.320  0.3617  1.5634 -1.1932
19442TIP3   OH279816   3.198   2.211  13.301 -0.4331 -0.3113  0.0339
19442TIP3    H179817   3.255   2.251  13.366  0.0979 -0.4697 -0.3206
19442TIP3    H279818   3.222   2.118  13.301 -1.3643 -0.5607  0.5574
19443TIP3   OH279819   3.155   6.370   6.752  0.1397  0.0141  0.1627
19443TIP3    H179820   3.060   6.382   6.756 -0.3636 -3.1041  0.1387
19443TIP3    H279821   3.175   6.376   6.658 -0.9659 -4.0027 -0.5309
19444TIP3   OH279822   0.576   5.125   2.370  0.2230 -0.1578 -0.2143
19444TIP3    H179823   0.546   5.201   2.418  2.2468  1.5804 -1.4936
19444TIP3    H279824   0.597   5.060   2.437 -3.8218 -0.6575  0.8174
19445TIP3   OH279825   4.347   3.740   2.171  0.1086 -0.2190 -0.4556
19445TIP3    H179826   4.362   3.828   2.135 -0.3509 -0.1146 -0.3993
19445TIP3    H279827   4.423   3.690   2.143 -1.2409 -0.7749 -3.5851
19446TIP3   OH279828   1.292   2.180  14.560  0.3834  0.4724 -0.0345
19446TIP3    H179829   1.221   2.119  14.541  1.5801 -0.8332 -0.4895
19446TIP3    H279830   1.297   2.236  14.483  1.6057 -1.2409 -1.2972
19447TIP3   OH279831   2.801   5.855  10.697  0.2866  0.0482  0.2268
19447TIP3    H179832   2.868   5.815  10.753  0.4715 -1.1902 -0.8343
19447TIP3    H279833   2.840   5.937  10.667  0.8686 -0.1146  0.5146
19448TIP3   OH279834   0.199   1.825   5.170  0.6880 -0.4271  0.3752
19448TIP3    H179835   0.263   1.758   5.148 -0.8509 -2.1348  0.8866
19448TIP3    H279836   0.119   1.777   5.191 -0.2647  1.5154  1.5510
19449TIP3   OH279837   1.184   2.102   3.064 -0.1949  0.2288  0.0072
19449TIP3    H179838   1.094   2.134   3.073 -0.5594 -1.1747  1.7643
19449TIP3    H279839   1.238   2.175   3.094 -0.8055  0.6207  0.1759
19450TIP3   OH279840   1.478   3.804   1.178  0.6333  0.0181 -0.4813
19450TIP3    H179841   1.514   3.776   1.263 -0.5291  1.2672  0.4703
19450TIP3    H279842   1.516   3.743   1.115 -0.4198 -2.5736  1.2254
19451TIP3   OH279843   4.388   6.455   5.345 -0.3457  0.2776  0.0398
19451TIP3    H179844   4.452   6.523   5.323  0.5134 -0.3951  0.4130
19451TIP3    H279845   4.323   6.500   5.398 -0.3804  1.0532 -0.6299
19452TIP3   OH279846   3.034   2.925   5.844  0.4301  0.1540 -0.2192
19452TIP3    H179847   2.959   2.911   5.903  0.7456  0.2552  0.2129
19452TIP3    H279848   3.072   2.838   5.833  1.0562  0.3092  0.6599
19453TIP3   OH279849   1.852   3.634  16.535 -0.1598 -0.1607 -0.5026
19453TIP3    H179850   1.897   3.574  16.595  0.8049  0.7110 -0.3246
19453TIP3    H279851   1.922   3.676  16.486 -0.8540  0.3882 -1.0422
19454TIP3   OH279852   0.424   1.600   1.941  0.3374 -0.4484  0.8242
19454TIP3    H179853   0.422   1.584   1.847 -0.1502 -2.1371  1.1025
19454TIP3    H279854   0.479   1.530   1.977  0.9688  0.4836  1.7584
19455TIP3   OH279855   6.110   5.104  14.265  0.2285  0.6594  0.9847
19455TIP3    H179856   6.034   5.103  14.324  0.4108 -1.5232  1.2803
19455TIP3    H279857   6.079   5.061  14.185  0.6453  1.4781  0.3723
19456TIP3   OH279858   3.060   5.525   4.154 -0.4570  0.2170 -0.1817
19456TIP3    H179859   3.046   5.436   4.120  3.3113 -0.9563  0.8455
19456TIP3    H279860   3.127   5.562   4.097 -0.6096  1.7084  0.5560
19457TIP3   OH279861   5.239   1.388   2.939 -0.3868  0.5726  0.0873
19457TIP3    H179862   5.296   1.448   2.890  0.3714 -0.3425 -0.1839
19457TIP3    H279863   5.219   1.435   3.020  2.3245  0.2268  1.0896
19458TIP3   OH279864   3.382   3.054   3.928  0.2391 -0.3046 -0.6362
19458TIP3    H179865   3.367   3.045   3.834  1.3086 -1.0683 -0.7515
19458TIP3    H279866   3.365   3.147   3.946  1.3288  0.1530 -1.8266
19459TIP3   OH279867   3.711   1.680  15.729  0.2849  0.1448  0.2605
19459TIP3    H179868   3.652   1.607  15.745 -0.6946  0.8688  0.0362
19459TIP3    H279869   3.787   1.662  15.784 -0.4137 -0.4846  1.0389
19460TIP3   OH279870   2.481   4.437  11.224  0.5704 -0.4053  0.2671
19460TIP3    H179871   2.419   4.386  11.276 -1.2677  0.8065 -0.6405
19460TIP3    H279872   2.434   4.458  11.144  2.2150  0.4848 -0.5166
19461TIP3   OH279873   0.983   5.477  16.695 -0.7611 -0.2071  0.0431
19461TIP3    H179874   0.956   5.431  16.775  1.3139 -2.0792 -0.2271
19461TIP3    H279875   1.066   5.519  16.718  0.0620 -1.0874 -1.1906
19462TIP3   OH279876   0.413   5.271   2.151  0.5229 -0.8248 -0.3076
19462TIP3    H179877   0.450   5.359   2.161  1.6958 -1.2791 -0.3861
19462TIP3    H279878   0.421   5.232   2.238 -1.5926 -0.3005  0.1692
19463TIP3   OH279879   4.824   2.166  10.513 -0.0355 -0.2426  0.4090
19463TIP3    H179880   4.766   2.243  10.510 -0.2281 -0.4081 -0.5533
19463TIP3    H279881   4.764   2.091  10.516  0.0894 -0.4333 -1.0161
19464TIP3   OH279882   1.262   2.974  16.001  0.2013 -0.2662 -0.3911
19464TIP3    H179883   1.221   3.050  16.042 -0.9098 -0.9147 -0.2619
19464TIP3    H279884   1.262   2.994  15.907  1.2318  0.4995 -0.2455
19465TIP3   OH279885   3.660   6.567  11.363  0.0739  0.2572  0.7290
19465TIP3    H179886   3.576   6.575  11.408 -0.9607  0.7585 -1.1838
19465TIP3    H279887   3.637   6.548  11.273  2.0062  0.9672  0.0339
19466TIP3   OH279888   2.730   5.720   4.712  0.0723 -0.1157  0.3124
19466TIP3    H179889   2.719   5.628   4.690 -2.3404  0.2352 -0.2937
19466TIP3    H279890   2.815   5.725   4.755  0.2881 -2.5947  0.3077
19467TIP3   OH279891   2.801   5.173   6.393 -0.1708 -0.1067 -0.0938
19467TIP3    H179892   2.851   5.143   6.469  1.4124 -0.1112 -1.0834
19467TIP3    H279893   2.729   5.224   6.430  0.9876  0.5399  1.4027
19468TIP3   OH279894   2.485   0.460  14.269 -0.2757  0.1359  0.0194
19468TIP3    H179895   2.393   0.441  14.252 -0.0821 -0.8662  0.0285
19468TIP3    H279896   2.486   0.553  14.294 -1.1214  0.4704 -1.1052
19469TIP3   OH279897   2.682   4.401  13.543  0.0327  0.5603  1.0009
19469TIP3    H179898   2.598   4.422  13.583  0.2820  1.4002  1.0986
19469TIP3    H279899   2.697   4.309  13.566 -1.0652  0.2602  0.5897
19470TIP3   OH279900   0.814   6.816  11.795  0.0953 -0.3983  0.2446
19470TIP3    H179901   0.760   6.744  11.828 -0.0643 -0.3244  0.1471
19470TIP3    H279902   0.754   6.867  11.739  0.2400 -0.2618  0.2145
19471TIP3   OH279903   0.280   4.689  11.632  0.3758 -0.6770  0.0793
19471TIP3    H179904   0.200   4.639  11.619 -1.5377  1.7735  1.5979
19471TIP3    H279905   0.300   4.677  11.725  1.7243 -1.1194 -0.2446
19472TIP3   OH279906   3.548   5.887  12.596 -0.2855 -0.8098  0.3827
19472TIP3    H179907   3.572   5.855  12.509 -0.3359 -2.3192  0.8930
19472TIP3    H279908   3.618   5.855  12.654  0.2370  0.9548  0.7892
19473TIP3   OH279909   3.687   4.220  13.098  0.1777  0.1604  0.3808
19473TIP3    H179910   3.598   4.207  13.066  0.2208  0.7591 -0.0049
19473TIP3    H279911   3.734   4.256  13.024  0.5978  0.3897  0.7521
19474TIP3   OH279912   1.253   5.035   1.655 -0.1679  0.1108 -0.4421
19474TIP3    H179913   1.263   5.030   1.560  0.9505  1.5156 -0.4358
19474TIP3    H279914   1.315   4.971   1.689 -0.4032 -0.2303 -0.6458
19475TIP3   OH279915   2.944   3.393   4.563 -0.1672  0.7442 -0.1654
19475TIP3    H179916   3.006   3.463   4.540  0.6386 -0.1822 -0.8733
19475TIP3    H279917   2.992   3.312   4.546 -1.9329 -0.0290 -1.7593
19476TIP3   OH279918   2.813   3.057   4.710  0.3844  0.2728 -0.7585
19476TIP3    H179919   2.864   3.061   4.790  0.3804 -1.5550 -0.6400
19476TIP3    H279920   2.737   3.113   4.727 -0.3048 -1.1396  1.0396
19477TIP3   OH279921   5.038   3.292  13.010  0.2370  0.1574  0.3475
19477TIP3    H179922   4.954   3.290  13.056 -0.5287  1.2901 -0.9195
19477TIP3    H279923   5.017   3.324  12.923  1.9055 -0.2015 -0.2324
19478TIP3   OH279924   3.728   2.792   4.921 -0.2146 -0.1396  0.1713
19478TIP3    H179925   3.677   2.863   4.884 -0.4012  0.7921  2.0949
19478TIP3    H279926   3.663   2.729   4.952 -0.4471  1.6490  3.8231
19479TIP3   OH279927   1.223   0.411   0.037 -0.2988  0.3683 -0.0189
19479TIP3    H179928   1.142   0.457   0.059 -1.4124 -1.2305 -0.6571
19479TIP3    H279929   1.240   0.354   0.113 -0.4065 -0.1500 -0.3835
19480TIP3   OH279930   0.073   6.335  16.658  0.0435 -0.1872  0.1202
19480TIP3    H179931   0.164   6.342  16.687 -0.2463 -1.5795  1.4752
19480TIP3    H279932   0.071   6.255  16.605 -0.5359 -0.5942  0.7399
19481TIP3   OH279933   1.533   1.037   5.770 -0.0061 -0.4310 -0.1048
19481TIP3    H179934   1.462   1.031   5.705 -0.9936 -0.4555  0.9460
19481TIP3    H279935   1.602   0.981   5.735 -1.3513 -2.1809 -0.1044
19482TIP3   OH279936   4.324   3.588  15.028 -0.1485 -0.3050 -0.4269
19482TIP3    H179937   4.264   3.630  15.091 -0.7181  0.7893 -1.6575
19482TIP3    H279938   4.407   3.634  15.040 -0.1606 -0.3293 -0.2404
19483TIP3   OH279939   6.215   4.646  13.520  0.1015  0.2507  0.6098
19483TIP3    H179940   6.278   4.674  13.587 -0.9230 -0.4458  1.9184
19483TIP3    H279941   6.256   4.569  13.480  1.3104  1.4303 -0.5271
19484TIP3   OH279942   4.399   5.498  12.942 -0.4407  0.7902  0.5214
19484TIP3    H179943   4.414   5.592  12.953  3.4700  0.3620  0.3911
19484TIP3    H279944   4.451   5.457  13.011  0.5541 -1.3085 -1.3410
19485TIP3   OH279945   3.961   2.077  16.240  0.2859  0.5579  0.3329
19485TIP3    H179946   3.882   2.049  16.194  1.6577  0.1125 -1.8982
19485TIP3    H279947   3.932   2.150  16.295 -1.6852  0.3381 -0.3382
19486TIP3   OH279948   2.800   4.643  15.479 -0.1730  0.0638 -0.3351
19486TIP3    H179949   2.726   4.654  15.420 -1.7289 -0.7060  1.3776
19486TIP3    H279950   2.851   4.571  15.441 -0.1042  0.7824 -1.6692
19487TIP3   OH279951   4.587   4.592   1.317 -1.0265 -0.2741 -0.0749
19487TIP3    H179952   4.604   4.519   1.257 -0.2655 -0.6000  0.5245
19487TIP3    H279953   4.551   4.550   1.395  2.1858 -0.4090  1.4671
19488TIP3   OH279954   1.836   2.420   6.092  0.2039  0.2393 -0.3049
19488TIP3    H179955   1.747   2.412   6.128  0.5812 -4.3837  0.2134
19488TIP3    H279956   1.822   2.440   5.999 -1.3767  0.3812 -0.0649
19489TIP3   OH279957   3.610   6.340   4.765 -0.2115 -0.5473  0.0697
19489TIP3    H179958   3.638   6.431   4.760  0.8960 -0.8958 -0.3623
19489TIP3    H279959   3.604   6.311   4.674 -0.3983 -0.9593  0.2072
19490TIP3   OH279960   0.176   1.364  13.744 -0.7327 -0.4563 -0.1472
19490TIP3    H179961   0.143   1.349  13.655  1.5949 -0.7579 -1.0252
19490TIP3    H279962   0.235   1.439  13.735 -0.4403 -0.5070  1.1381
19491TIP3   OH279963   4.062   1.722   4.330  0.4203 -0.6458  0.0410
19491TIP3    H179964   3.974   1.683   4.326  0.4256 -0.6329 -0.2360
19491TIP3    H279965   4.057   1.797   4.270  0.6188 -0.6418  0.0307
19492TIP3   OH279966   1.293   1.794  10.937  0.2920  0.9418 -0.2077
19492TIP3    H179967   1.379   1.757  10.918 -0.1106 -0.0532 -0.1583
19492TIP3    H279968   1.255   1.811  10.851  0.5511  1.4324 -0.2296
19493TIP3   OH279969   5.446   1.344  10.802 -0.0745 -0.2053  0.1760
19493TIP3    H179970   5.533   1.336  10.764 -0.4092  0.1991 -0.7219
19493TIP3    H279971   5.412   1.254  10.804  0.8408 -0.5390  1.7503
19494TIP3   OH279972   2.972   6.789   3.950 -0.2809  0.0605 -0.1510
19494TIP3    H179973   2.906   6.751   3.893  0.1644 -0.7616 -0.1337
19494TIP3    H279974   2.941   6.770   4.039 -0.4627  0.4550 -0.1265
19495TIP3   OH279975   6.195   4.045  10.928 -0.2430 -0.0811  0.1889
19495TIP3    H179976   6.235   4.098  10.859 -0.7878 -0.3458 -0.3380
19495TIP3    H279977   6.102   4.069  10.926 -0.3958 -0.6498  0.3172
19496TIP3   OH279978   0.989   2.484  11.979 -0.6911  0.1899  0.3977
19496TIP3    H179979   1.047   2.453  12.049 -1.6902 -1.5142  0.5196
19496TIP3    H279980   0.903   2.492  12.020 -1.3734 -1.2035 -0.6715
19497TIP3   OH279981   4.272   5.494   2.167 -0.4670  0.2909  0.0720
19497TIP3    H179982   4.335   5.423   2.158  1.1222  1.7436 -0.8517
19497TIP3    H279983   4.194   5.452   2.203  1.1104 -1.5201  1.6161
19498TIP3   OH279984   1.792   6.344   3.044 -0.5923  0.0924 -0.0611
19498TIP3    H179985   1.700   6.331   3.022 -0.6780 -0.2091  0.4588
19498TIP3    H279986   1.817   6.264   3.090  0.8982 -1.4470 -3.2351
19499TIP3   OH279987   1.134   1.248  15.051 -0.2006 -0.1889 -0.7462
19499TIP3    H179988   1.193   1.186  15.094  0.0628 -0.4562 -1.4815
19499TIP3    H279989   1.189   1.293  14.987 -0.7222 -0.2005 -1.2078
19500TIP3   OH279990   4.815   4.216   3.988  0.1849 -0.2696  0.6700
19500TIP3    H179991   4.794   4.173   4.070 -1.4588 -0.4269  0.2012
19500TIP3    H279992   4.877   4.157   3.945 -2.0972 -2.3351 -0.0114
19501TIP3   OH279993   3.821   1.135   1.200  0.1350  0.0920 -0.4759
19501TIP3    H179994   3.824   1.230   1.207 -1.1916  0.0551  1.5545
19501TIP3    H279995   3.729   1.115   1.185 -0.2432 -0.9323  2.4566
19502TIP3   OH279996   3.171   2.792  12.484  0.5469  0.1077  0.8708
19502TIP3    H179997   3.156   2.712  12.534  1.0986 -0.2044  0.5449
19502TIP3    H279998   3.101   2.851  12.512 -1.2035 -1.2311 -0.4414
19503TIP3   OH279999   1.251   2.148   3.638  0.1145 -0.2957  0.8084
19503TIP3    H180000   1.323   2.160   3.700  0.2203 -0.8382  0.8036
19503TIP3    H280001   1.291   2.161   3.552 -0.0782  0.6657  0.8540
19504TIP3   OH280002   4.131   2.330   1.858  0.0530 -0.5527  0.4145
19504TIP3    H180003   4.205   2.359   1.910  0.9017 -0.6469 -0.7144
19504TIP3    H280004   4.070   2.404   1.859  0.6995 -0.0151  0.3382
19505TIP3   OH280005   6.520   2.025  12.288 -0.3526  0.1457  0.4099
19505TIP3    H180006   6.614   2.009  12.275 -0.7011 -1.1324 -0.8236
19505TIP3    H280007   6.484   1.939  12.310 -1.2444  0.6139  0.8126
19506TIP3   OH280008   1.513   3.865  15.371  0.6349 -0.2466 -0.1036
19506TIP3    H180009   1.556   3.950  15.380 -0.4305  0.1977  1.0243
19506TIP3    H280010   1.499   3.835  15.461  0.3787 -1.3108 -0.4737
19507TIP3   OH280011   1.211   5.098  16.748 -0.3262  0.8974  0.9456
19507TIP3    H180012   1.152   5.138  16.813  0.4957 -1.0513  3.0184
19507TIP3    H280013   1.266   5.039  16.799  1.0665  0.0091 -1.4375
19508TIP3   OH280014   2.178   5.632   4.098 -0.0991  0.2677 -0.1829
19508TIP3    H180015   2.170   5.718   4.140  0.3822 -0.4227  1.4035
19508TIP3    H280016   2.088   5.607   4.078 -0.2029  1.4095 -1.2904
19509TIP3   OH280017   0.228   4.747  13.046  0.1566  0.0709  0.3089
19509TIP3    H180018   0.304   4.693  13.069 -0.7834 -1.8734 -0.9132
19509TIP3    H280019   0.265   4.834  13.030  2.0132 -0.6217  0.5565
19510TIP3   OH280020   5.095   1.039   4.458  0.1487 -0.1533 -0.3004
19510TIP3    H180021   5.179   1.012   4.495 -1.0886 -0.7872  2.2584
19510TIP3    H280022   5.056   0.958   4.426 -0.8109 -0.4480  1.4889
19511TIP3   OH280023   1.069   0.971  16.827  0.2869 -0.1561  0.2026
19511TIP3    H180024   1.005   0.901  16.833  0.0797 -0.0806 -0.8917
19511TIP3    H280025   1.142   0.942  16.882 -0.4441 -0.4905  1.0263
19512TIP3   OH280026   0.089   6.395  14.832  0.2988  0.1784  0.3816
19512TIP3    H180027   0.067   6.413  14.923 -0.9057 -0.9425  0.3359
19512TIP3    H280028   0.023   6.442  14.781 -1.2532 -1.9941  0.2142
19513TIP3   OH280029   6.818   0.913  12.462  0.2590  0.0603  0.3528
19513TIP3    H180030   6.906   0.934  12.432 -0.4584 -0.9287 -2.9208
19513TIP3    H280031   6.760   0.946  12.393 -1.6744 -2.0639  0.8074
19514TIP3   OH280032   3.732   6.244   5.593  0.1028  0.3314  1.0245
19514TIP3    H180033   3.640   6.240   5.568  0.4585 -0.2503 -0.2734
19514TIP3    H280034   3.758   6.152   5.604  1.2493  0.2528 -1.5617
19515TIP3   OH280035   3.485   3.503   3.932 -0.0111 -0.2701  0.5135
19515TIP3    H180036   3.544   3.469   3.999  0.0317 -0.9555  0.1321
19515TIP3    H280037   3.541   3.517   3.855 -0.0246  0.6844  0.6623
19516TIP3   OH280038   2.970   4.504   2.276 -0.6696  0.1517 -0.3283
19516TIP3    H180039   2.968   4.427   2.218  0.1632  0.5700 -0.9441
19516TIP3    H280040   2.966   4.468   2.364  0.4294 -0.6612 -0.5877
19517TIP3   OH280041   5.034   4.123  14.793 -0.2053  0.5249  0.3198
19517TIP3    H180042   4.955   4.161  14.832 -0.9196  0.6374 -1.1950
19517TIP3    H280043   5.006   4.039  14.757  0.5932  0.1200  0.6075
19518TIP3   OH280044   6.358   4.965   3.093 -0.1683  0.1281 -0.6196
19518TIP3    H180045   6.431   4.934   3.146 -0.9031 -0.0298  0.3383
19518TIP3    H280046   6.280   4.931   3.138 -0.8423  0.6125 -1.3986
19519TIP3   OH280047   5.903   2.325   5.053  0.4612  0.0245  0.0395
19519TIP3    H180048   5.837   2.311   4.985  1.0092 -1.5736 -0.1869
19519TIP3    H280049   5.861   2.386   5.115 -0.4032  0.7309 -1.1970
19520TIP3   OH280050   4.518   6.635   4.750  0.4560  0.7748  0.2137
19520TIP3    H180051   4.542   6.583   4.827 -1.1755 -1.3668 -0.6275
19520TIP3    H280052   4.570   6.597   4.679 -1.4684 -0.4920 -0.6030
19521TIP3   OH280053   0.375   2.989   6.030  0.1485 -0.3765 -0.5252
19521TIP3    H180054   0.361   3.009   5.937 -1.4699 -0.5659 -0.3587
19521TIP3    H280055   0.288   2.965   6.062 -0.0910  3.0810  1.9000
19522TIP3   OH280056   1.799   2.428   5.784 -0.3796 -0.9982 -0.0643
19522TIP3    H180057   1.715   2.401   5.820 -0.4387 -0.7578 -0.0154
19522TIP3    H280058   1.851   2.348   5.780  0.3443 -0.7266  2.4620
19523TIP3   OH280059   1.800   6.390   6.371 -0.2036 -0.0205  0.4000
19523TIP3    H180060   1.838   6.458   6.427  1.4213 -1.4083  1.0524
19523TIP3    H280061   1.713   6.375   6.409  0.1541  0.3529  1.4152
19524TIP3   OH280062   5.046   5.223  12.846 -0.0326  0.4550 -0.2048
19524TIP3    H180063   4.956   5.191  12.839 -0.2535  1.3727 -2.2587
19524TIP3    H280064   5.036   5.312  12.880  0.2886 -0.0930  1.4374
19525TIP3   OH280065   4.182   0.051  14.449  0.2101  0.1760  0.1981
19525TIP3    H180066   4.234   0.009  14.380 -1.6905 -1.3286 -0.4100
19525TIP3    H280067   4.150  -0.022  14.502  1.4849  1.2897  2.6476
19526TIP3   OH280068   0.163   4.354   4.971 -0.4310  0.0068 -0.2811
19526TIP3    H180069   0.083   4.366   4.920 -0.9568  0.5015  0.6276
19526TIP3    H280070   0.232   4.386   4.914 -1.0029  0.5293 -0.7048
19527TIP3   OH280071   4.886   6.775  17.002  0.1069 -0.2940  0.8575
19527TIP3    H180072   4.902   6.772  17.097 -1.8065 -2.3483  1.2008
19527TIP3    H280073   4.821   6.844  16.992  2.0062  1.5953  0.6343
19528TIP3   OH280074   4.362   1.441  16.585  0.0863  0.0117 -0.2825
19528TIP3    H180075   4.433   1.505  16.589  0.1682  0.0925 -2.1761
19528TIP3    H280076   4.349   1.414  16.676  2.4340  0.1064  0.1533
19529TIP3   OH280077   6.738   3.645  13.995  0.3126 -0.1023  0.3557
19529TIP3    H180078   6.821   3.664  14.039  0.6915  0.4691 -0.5727
19529TIP3    H280079   6.761   3.585  13.924 -0.0022  0.3532 -0.1401
19530TIP3   OH280080   3.183   2.458  14.252  0.2155 -0.0450 -0.3249
19530TIP3    H180081   3.231   2.533  14.289  3.5784 -0.4742 -3.2322
19530TIP3    H280082   3.139   2.494  14.175 -1.2489 -0.4003  0.3237
19531TIP3   OH280083   2.735   2.075  15.547  0.0210  0.2506  0.1726
19531TIP3    H180084   2.641   2.075  15.568 -0.3436 -0.0166 -1.3350
19531TIP3    H280085   2.762   1.985  15.564 -0.9483 -0.8043 -3.0265
19532TIP3   OH280086   4.818   5.203  12.239 -0.5518 -0.2884 -0.5062
19532TIP3    H180087   4.803   5.259  12.315  1.1113  0.7161 -0.8634
19532TIP3    H280088   4.777   5.250  12.166 -2.6915 -1.5470 -0.2065
19533TIP3   OH280089   2.123   0.382  11.223 -0.1652  1.0194  0.2100
19533TIP3    H180090   2.065   0.398  11.149 -0.0555 -2.1820 -0.7204
19533TIP3    H280091   2.145   0.289  11.217  4.6885  1.8307  0.7470
19534TIP3   OH280092   1.056   5.645  15.067 -0.7318  0.0253 -0.0688
19534TIP3    H180093   1.048   5.737  15.043 -1.7920  0.3065  1.2761
19534TIP3    H280094   0.969   5.608  15.051 -1.0282 -0.1346  1.7455
19535TIP3   OH280095   6.143   2.503  12.702 -0.0312 -0.2141  0.2662
19535TIP3    H180096   6.159   2.423  12.652  1.0016  0.0575  0.1411
19535TIP3    H280097   6.222   2.556  12.688 -0.8749  1.0047  0.0054
19536TIP3   OH280098   2.678   6.578  12.557  0.7182 -0.1356 -0.3040
19536TIP3    H180099   2.656   6.652  12.500  0.6374  0.1380  0.0740
19536TIP3    H280100   2.717   6.513  12.499 -1.1469 -0.6787 -1.0088
19537TIP3   OH280101   3.644   2.898  17.006 -0.3513  0.1921 -0.8323
19537TIP3    H180102   3.600   2.861  16.929 -0.7031 -0.4664 -0.3192
19537TIP3    H280103   3.577   2.952  17.048 -0.7720 -0.9964  0.0816
19538TIP3   OH280104   1.611   5.019   5.401 -0.0720 -0.1662  0.0824
19538TIP3    H180105   1.680   5.075   5.365 -0.6220  1.8297  1.9780
19538TIP3    H280106   1.535   5.076   5.410 -0.5800 -1.0914  2.3354
19539TIP3   OH280107   0.932   1.849  15.286  0.1058  0.3723  0.0195
19539TIP3    H180108   0.887   1.769  15.259 -0.0144 -0.0058  1.2705
19539TIP3    H280109   1.025   1.828  15.280  0.0720  0.0138  0.6671
19540TIP3   OH280110   4.456   1.869  12.006 -0.0441 -0.0499 -0.2743
19540TIP3    H180111   4.477   1.957  11.972  0.6276 -0.4496 -0.9392
19540TIP3    H280112   4.513   1.859  12.083  2.3500 -1.1103 -2.0447
19541TIP3   OH280113   3.336   6.474   1.170 -0.4197  0.1951 -0.0212
19541TIP3    H180114   3.325   6.560   1.128 -0.2746 -0.0535 -0.5645
19541TIP3    H280115   3.332   6.494   1.264  4.3398  1.5567  0.1684
19542TIP3   OH280116   0.856   3.080   3.193 -0.4550 -0.7485  0.2997
19542TIP3    H180117   0.852   3.112   3.283 -1.4305  1.0795 -0.3320
19542TIP3    H280118   0.942   3.107   3.162 -0.8066  0.2630  0.1553
19543TIP3   OH280119   3.808   6.691  10.631  0.2877  0.7369 -0.0787
19543TIP3    H180120   3.762   6.732  10.705 -0.6425  0.8615 -0.7104
19543TIP3    H280121   3.756   6.715  10.555  2.3740  2.4137 -1.0843
19544TIP3   OH280122   3.343   6.719  14.196  0.5502 -0.0780 -0.2904
19544TIP3    H180123   3.428   6.681  14.175 -0.1693 -0.4394 -2.8957
19544TIP3    H280124   3.282   6.645  14.193 -0.0925  0.4314 -0.0069
19545TIP3   OH280125   5.861   1.469  15.304 -0.0223 -0.3657  0.4286
19545TIP3    H180126   5.903   1.551  15.330 -0.3252 -0.8130  2.4395
19545TIP3    H280127   5.771   1.494  15.282  0.0656 -0.0707  0.3943
19546TIP3   OH280128   6.530   2.708  13.834 -0.0759 -0.2779  0.3015
19546TIP3    H180129   6.495   2.665  13.756 -0.8067  1.7547 -0.5593
19546TIP3    H280130   6.581   2.781  13.800  2.4939 -1.3112  1.6546
19547TIP3   OH280131   2.293   2.049  15.940 -0.1580 -0.3229  0.4247
19547TIP3    H180132   2.205   2.032  15.973 -0.5875 -2.2506 -1.5365
19547TIP3    H280133   2.350   2.020  16.011 -1.0164  1.1335  1.8002
19548TIP3   OH280134   2.442   3.581   2.238 -0.6165 -0.1551  1.0706
19548TIP3    H180135   2.433   3.570   2.333  0.1500 -0.5308  1.1066
19548TIP3    H280136   2.533   3.557   2.220 -0.8074 -0.2578  0.2170
19549TIP3   OH280137   5.925   5.392   3.790 -0.1325  0.0890 -0.3740
19549TIP3    H180138   6.005   5.442   3.773 -0.0336  0.3054  0.6398
19549TIP3    H280139   5.856   5.457   3.795  0.2082  0.3565  2.3354
19550TIP3   OH280140   6.163   1.706   5.723  0.3838  0.3823 -0.3770
19550TIP3    H180141   6.218   1.631   5.700  0.6531  0.6560 -0.6373
19550TIP3    H280142   6.164   1.709   5.818  1.6032  0.9482 -0.3832
19551TIP3   OH280143   2.609   4.703  12.568 -0.5564 -0.2360 -0.0833
19551TIP3    H180144   2.616   4.687  12.663 -0.3794 -0.1774 -0.0852
19551TIP3    H280145   2.684   4.759  12.548 -1.0732  0.4638 -0.1076
19552TIP3   OH280146   4.817   0.310  12.975  0.1070  0.0314 -0.3084
19552TIP3    H180147   4.781   0.395  12.951 -1.3020 -0.5562 -0.3805
19552TIP3    H280148   4.887   0.330  13.037 -1.4077  1.1932  1.1375
19553TIP3   OH280149   3.991   5.069   5.918  0.0627 -0.0407 -0.0982
19553TIP3    H180150   3.994   5.085   5.824 -3.1283  1.4713 -0.0753
19553TIP3    H280151   3.943   4.986   5.927  1.2959 -0.7543  0.2369
19554TIP3   OH280152   5.772   5.846  11.040  0.4114  0.3331  0.0132
19554TIP3    H180153   5.824   5.902  10.982 -1.1105  0.9034 -0.8550
19554TIP3    H280154   5.820   5.763  11.042  0.7104  0.4292 -1.7688
19555TIP3   OH280155   0.220   5.731  14.800 -0.0258 -0.7043 -0.2365
19555TIP3    H180156   0.137   5.769  14.830  0.2194 -1.1168  1.0274
19555TIP3    H280157   0.216   5.737  14.704 -0.8037  0.7558 -0.1398
19556TIP3   OH280158   3.219   2.446   5.688 -0.2936 -0.5879 -0.5181
19556TIP3    H180159   3.298   2.486   5.725 -1.1286  0.0523  0.6297
19556TIP3    H280160   3.246   2.414   5.602  1.0389  0.2391 -0.4274
19557TIP3   OH280161   1.259   2.637  12.650  0.0861  0.1215  0.0713
19557TIP3    H180162   1.297   2.685  12.576 -1.4389  0.4609 -0.5379
19557TIP3    H280163   1.239   2.550  12.615  2.6398 -0.9775  1.1142
19558TIP3   OH280164   6.216   0.804   0.465 -0.0825  0.3487  0.1985
19558TIP3    H180165   6.125   0.830   0.454  0.1315  1.3000  0.5570
19558TIP3    H280166   6.265   0.886   0.463  0.8049 -0.1675 -0.2853
19559TIP3   OH280167   5.595   6.328   0.869  0.6918  0.7868  0.4725
19559TIP3    H180168   5.526   6.394   0.874  0.6752  0.6829  2.1855
19559TIP3    H280169   5.615   6.321   0.776  0.8335  3.3322  0.2510
19560TIP3   OH280170   5.275   2.203   2.308  0.2721  0.6534  0.1257
19560TIP3    H180171   5.232   2.125   2.343 -0.6453  0.7737 -0.6808
19560TIP3    H280172   5.334   2.170   2.240 -1.6739  0.7530 -1.7294
19561TIP3   OH280173   1.988   5.308   1.853  0.7872  0.2799  0.0102
19561TIP3    H180174   1.893   5.300   1.844  0.7091 -0.0614  0.9804
19561TIP3    H280175   2.023   5.269   1.774  0.1459 -1.1369  0.3929
19562TIP3   OH280176   3.659   1.836  15.335  0.7021 -0.2593  0.2719
19562TIP3    H180177   3.596   1.854  15.266  2.3236  0.9922 -0.9679
19562TIP3    H280178   3.634   1.894  15.407 -0.0693 -0.4200  0.1389
19563TIP3   OH280179   4.582   4.472  15.644 -0.0370  0.4407 -0.2752
19563TIP3    H180180   4.579   4.408  15.573  1.1008  0.1770 -0.0995
19563TIP3    H280181   4.667   4.515  15.634  0.0278  0.5758  0.7673
19564TIP3   OH280182   5.416   4.226  14.320  0.3253 -0.1568  0.0519
19564TIP3    H180183   5.469   4.162  14.273 -0.0445 -1.6950  1.6118
19564TIP3    H280184   5.326   4.210  14.289  0.1979 -0.6067  0.6224
19565TIP3   OH280185   4.108   1.578  11.586  0.2569 -0.3528 -0.3023
19565TIP3    H180186   4.076   1.525  11.659 -1.4807 -0.4723 -1.1111
19565TIP3    H280187   4.167   1.521  11.538  2.1608  0.0027  1.4569
19566TIP3   OH280188   6.201   0.342   0.799  0.3375 -0.0306 -0.1059
19566TIP3    H180189   6.112   0.372   0.779  0.4786  2.2719  2.2698
19566TIP3    H280190   6.255   0.376   0.727 -0.1971  1.6797  0.2726
19567TIP3   OH280191   2.725   0.899   4.732  0.4418 -0.1714  0.6101
19567TIP3    H180192   2.640   0.856   4.721  0.5507 -0.4691  0.9332
19567TIP3    H280193   2.719   0.942   4.817 -0.3600  2.0400 -0.4586
19568TIP3   OH280194   3.981   3.972  13.585  0.3936 -0.1348  0.2651
19568TIP3    H180195   3.940   4.053  13.614 -1.0743 -0.7161 -0.1081
19568TIP3    H280196   4.041   3.999  13.515  0.0830  0.6522  0.3012
19569TIP3   OH280197   1.229   0.426  11.274 -0.0311  0.6691  0.3043
19569TIP3    H180198   1.247   0.445  11.182  1.0850  0.3982  0.4602
19569TIP3    H280199   1.270   0.498  11.322  0.2346  0.3001  0.6388
19570TIP3   OH280200   6.116   0.304  12.922  0.5806  0.4189  0.1674
19570TIP3    H180201   6.186   0.363  12.895 -0.9168  1.5401 -1.5640
19570TIP3    H280202   6.160   0.228  12.959  2.7206  0.7557 -1.5346
19571TIP3   OH280203   1.682   2.145   4.628  0.2235 -0.3784 -0.0908
19571TIP3    H180204   1.719   2.207   4.565  0.2557 -0.9286 -0.6346
19571TIP3    H280205   1.736   2.154   4.706 -1.6390  2.4884  1.0321
19572TIP3   OH280206   0.216   4.105   5.081  0.2544 -0.0173  0.0038
19572TIP3    H180207   0.224   4.173   5.014 -1.7211 -0.4527 -0.7294
19572TIP3    H280208   0.122   4.102   5.101  0.2059 -2.7956 -0.2869
19573TIP3   OH280209   4.437   3.000   4.826 -0.1085  0.0108  0.1080
19573TIP3    H180210   4.442   2.964   4.915  0.2896 -0.0855  0.0493
19573TIP3    H280211   4.374   3.072   4.832 -1.2326 -0.9538  0.1423
19574TIP3   OH280212   2.257   3.747   5.785  0.4050  0.2189  0.0371
19574TIP3    H180213   2.263   3.689   5.710 -0.9184 -0.0385  0.1139
19574TIP3    H280214   2.348   3.764   5.810  0.8142 -1.1361 -0.4944
19575TIP3   OH280215   2.140   1.858   2.149  1.0630 -0.1343  0.0619
19575TIP3    H180216   2.078   1.915   2.196  1.1776  2.0088 -2.1933
19575TIP3    H280217   2.201   1.828   2.217 -1.3287 -0.8880  2.0462
19576TIP3   OH280218   2.765   6.050  14.005  0.1414  0.2137  0.2384
19576TIP3    H180219   2.791   6.073  14.095 -0.1116 -0.1633  0.4097
19576TIP3    H280220   2.670   6.060  14.005 -0.5856 -4.3904  1.4305
19577TIP3   OH280221   5.828   2.717   0.276  0.4417 -0.3495  0.2422
19577TIP3    H180222   5.766   2.697   0.346 -0.6791  1.4502 -0.1684
19577TIP3    H280223   5.870   2.633   0.256 -1.9506 -1.6664  0.4301
19578TIP3   OH280224   5.228   4.283   2.986 -0.5173 -0.1356 -0.0742
19578TIP3    H180225   5.135   4.292   2.969 -0.1411  1.4318 -1.4814
19578TIP3    H280226   5.271   4.311   2.905  1.1791 -1.0154  0.4710
19579TIP3   OH280227   3.164   6.295   6.148 -0.1412  0.2523 -0.6082
19579TIP3    H180228   3.256   6.267   6.155 -0.6228 -1.0054  1.4325
19579TIP3    H280229   3.128   6.281   6.235 -2.0855  1.5214 -1.1505
19580TIP3   OH280230   2.835   2.772   5.504  0.2783  0.3759  0.5877
19580TIP3    H180231   2.832   2.853   5.555 -0.2079  2.6230 -2.7174
19580TIP3    H280232   2.921   2.734   5.525  0.2769  1.3530  2.6742
19581TIP3   OH280233   2.648   5.706   1.480 -0.1597 -0.0952  0.4219
19581TIP3    H180234   2.668   5.799   1.479  0.0946 -0.0684  2.6297
19581TIP3    H280235   2.721   5.666   1.529 -0.2515 -1.4716 -0.4903
19582TIP3   OH280236   3.848   5.582   5.173  0.0940 -0.3291  0.1056
19582TIP3    H180237   3.793   5.625   5.108 -0.1160  1.3595  1.3190
19582TIP3    H280238   3.934   5.620   5.161  0.7390 -1.9729 -0.8867
19583TIP3   OH280239   1.192   6.250   3.266  0.0664  0.0643 -0.0295
19583TIP3    H180240   1.255   6.191   3.225  1.1181  0.8785  0.3791
19583TIP3    H280241   1.235   6.335   3.268 -0.6578  0.4406  1.1266
19584TIP3   OH280242   1.860   5.718   0.226  0.3589 -0.3732 -0.1130
19584TIP3    H180243   1.940   5.753   0.188  0.9503 -1.6534 -0.0966
19584TIP3    H280244   1.885   5.690   0.313 -0.2990 -0.1148  0.1681
19585TIP3   OH280245   2.173   3.718  11.203 -0.3984  0.7940 -0.1681
19585TIP3    H180246   2.098   3.714  11.143 -1.0296  2.8807  0.3986
19585TIP3    H280247   2.249   3.728  11.146 -0.3832 -2.0538 -0.7884
19586TIP3   OH280248   4.539   5.002   3.860  0.1345 -0.8246  0.1100
19586TIP3    H180249   4.518   5.032   3.948 -1.3486 -2.9017  0.5523
19586TIP3    H280250   4.560   4.909   3.871  0.9385 -0.8786 -1.5882
19587TIP3   OH280251   0.670   3.644  14.001 -0.4698 -0.0664  0.1069
19587TIP3    H180252   0.592   3.617  14.048 -1.2623 -1.0972 -1.7121
19587TIP3    H280253   0.716   3.563  13.982  1.5576  0.5682  1.8728
19588TIP3   OH280254   1.915   6.142   5.826  0.2873  0.4564 -0.4967
19588TIP3    H180255   1.851   6.142   5.897  0.4165 -0.6979 -0.3655
19588TIP3    H280256   1.983   6.203   5.854  0.2970  0.0713  0.3279
19589TIP3   OH280257   3.796   6.772  11.255  0.0506 -0.1985  0.0543
19589TIP3    H180258   3.770   6.763  11.163  0.5000  1.2897 -0.2387
19589TIP3    H280259   3.762   6.692  11.297  0.0888 -1.0491 -1.4457
19590TIP3   OH280260   3.111   4.130   3.092 -0.4061 -0.7151 -0.1076
19590TIP3    H180261   3.042   4.123   3.159 -0.4995 -2.5384 -0.3354
19590TIP3    H280262   3.065   4.121   3.009 -0.1088 -0.0536 -0.3431
19591TIP3   OH280263   0.881   3.882   0.985 -0.0300  0.3546 -0.1720
19591TIP3    H180264   0.975   3.867   0.986 -0.2627 -1.2917  1.6064
19591TIP3    H280265   0.858   3.885   0.892  1.4113 -1.7222 -0.6475
19592TIP3   OH280266   2.402   4.464  13.683  0.0446  0.0940  0.4195
19592TIP3    H180267   2.437   4.545  13.720 -0.8979  0.0414  1.4646
19592TIP3    H280268   2.355   4.492  13.604 -0.6956  0.6475  1.0429
19593TIP3   OH280269   5.398   1.341   1.878 -0.1812  0.0457 -0.7543
19593TIP3    H180270   5.336   1.409   1.851  0.1742  1.1100  0.9638
19593TIP3    H280271   5.478   1.389   1.900  0.4421 -1.0472 -0.5665
19594TIP3   OH280272   0.237   0.054  11.655  0.6130 -0.3671 -0.0317
19594TIP3    H180273   0.267  -0.031  11.688  0.1368 -1.5236 -2.3113
19594TIP3    H280274   0.167   0.079  11.715  0.6311 -1.6904  0.5884
19595TIP3   OH280275   0.320   1.904  11.601 -0.1174  0.6309  0.3168
19595TIP3    H180276   0.318   1.907  11.505 -1.6677  1.5561  0.3515
19595TIP3    H280277   0.413   1.894  11.622  0.3348  1.1854 -1.2642
19596TIP3   OH280278   6.816   4.136   5.408  0.6127  0.5490 -0.3273
19596TIP3    H180279   6.807   4.064   5.346  1.2618 -0.4863  0.7383
19596TIP3    H280280   6.882   4.194   5.369 -0.1846  0.7905 -1.3690
19597TIP3   OH280281   6.048   3.744  13.433  0.0496 -0.1176  0.1042
19597TIP3    H180282   5.990   3.751  13.509 -0.2598  0.8126 -0.2073
19597TIP3    H280283   6.045   3.651  13.409  1.2803 -0.7289  2.0995
19598TIP3   OH280284   5.948   3.078   5.402  0.4859  0.5383  0.5463
19598TIP3    H180285   5.988   3.155   5.442  0.6172  1.0954 -0.6126
19598TIP3    H280286   5.882   3.049   5.465 -0.1697  2.1121  0.6230
19599TIP3   OH280287   0.098   2.464  12.618  0.1605  0.0862  0.4743
19599TIP3    H180288   0.152   2.537  12.587  0.1984  0.0603  0.4792
19599TIP3    H280289   0.015   2.474  12.572  0.2495 -0.0072  0.2935
19600TIP3   OH280290   6.102   4.809  16.752  0.7991 -0.4911  0.0190
19600TIP3    H180291   6.072   4.846  16.669 -1.9487 -1.3961  0.5329
19600TIP3    H280292   6.093   4.881  16.815  0.7876 -0.4522 -0.0268
19601TIP3   OH280293   5.082   3.885  16.969  0.0339  0.0515 -0.8497
19601TIP3    H180294   5.059   3.836  16.890 -0.9773  0.4480 -0.8157
19601TIP3    H280295   5.091   3.818  17.037  0.0232 -0.2055 -1.0985
19602TIP3   OH280296   2.287   5.975   2.024 -0.2923 -0.4452  0.4577
19602TIP3    H180297   2.349   5.984   2.096  2.3086  0.0584 -1.6973
19602TIP3    H280298   2.330   5.917   1.962 -0.9637  1.6031 -2.1213
19603TIP3   OH280299   4.882   0.568  12.593 -0.0547  0.1479  0.2745
19603TIP3    H180300   4.927   0.485  12.574 -0.1252  0.0349  0.5971
19603TIP3    H280301   4.796   0.542  12.624 -0.8203  0.3896 -1.5306
19604TIP3   OH280302   6.379   5.782   2.569  0.0916 -0.3727  0.1191
19604TIP3    H180303   6.413   5.694   2.587 -0.5671 -0.5520  0.5112
19604TIP3    H280304   6.284   5.773   2.575  0.0427  0.5201  0.8756
19605TIP3   OH280305   4.598   4.799   2.934  0.7700  0.7137 -0.2756
19605TIP3    H180306   4.577   4.889   2.959 -0.0912  0.0856  1.4678
19605TIP3    H280307   4.674   4.807   2.876  0.2895  2.5859 -0.7201
19606TIP3   OH280308   0.698   4.636  16.854 -0.7834  0.3510 -0.3895
19606TIP3    H180309   0.681   4.543  16.839  1.2543 -0.2240  0.5200
19606TIP3    H280310   0.644   4.681  16.789 -3.0444 -1.3482  0.1694
19607TIP3   OH280311   0.049   4.999  15.665 -0.2029 -0.4565  0.4563
19607TIP3    H180312   0.088   4.975  15.748  1.7311  1.5924  0.2112
19607TIP3    H280313   0.121   4.997  15.602 -0.7925  1.7026 -0.3848
19608TIP3   OH280314   1.631   1.062   3.493  0.1231  0.6383 -0.2496
19608TIP3    H180315   1.574   1.000   3.540  0.5139  0.6178  0.2119
19608TIP3    H280316   1.602   1.057   3.402 -0.4506  0.4485 -0.0641
19609TIP3   OH280317   1.962   4.361   3.944  0.4256  0.2195 -0.2421
19609TIP3    H180318   1.893   4.405   3.994 -0.6957 -0.3665 -1.2003
19609TIP3    H280319   1.946   4.387   3.853  0.2284 -1.4710 -0.7254
19610TIP3   OH280320   1.094   4.095   4.747  0.1945 -0.7462 -0.2326
19610TIP3    H180321   1.172   4.087   4.803 -0.3194  1.0833  0.8314
19610TIP3    H280322   1.022   4.105   4.809 -0.3888  1.3683 -1.1714
19611TIP3   OH280323   1.256   1.972   0.195 -0.3445 -0.2841  0.0399
19611TIP3    H180324   1.221   2.039   0.254  0.5691  0.7589 -0.5716
19611TIP3    H280325   1.226   1.889   0.233 -0.2935  0.3923  1.6311
19612TIP3   OH280326   6.645   5.086  10.934 -0.2137 -0.7181 -0.2893
19612TIP3    H180327   6.672   5.137  10.858 -0.7082 -1.7164 -1.1699
19612TIP3    H280328   6.615   5.003  10.897 -2.5454 -0.4294  0.7777
19613TIP3   OH280329   1.535   0.659   2.134 -0.2220  0.3071  0.3245
19613TIP3    H180330   1.545   0.566   2.112  2.7795  0.3845  0.9276
19613TIP3    H280331   1.523   0.703   2.050 -2.2877 -0.6121  0.0766
19614TIP3   OH280332   5.586   5.931  13.287  0.2363  0.1291 -0.4658
19614TIP3    H180333   5.510   5.990  13.289 -1.4020 -1.7970 -1.5741
19614TIP3    H280334   5.651   5.977  13.235 -0.0806  1.9112  0.6463
19615TIP3   OH280335   4.246   0.748  16.300 -0.3933 -0.1230  0.5876
19615TIP3    H180336   4.241   0.811  16.372 -2.9862 -0.9014  1.2153
19615TIP3    H280337   4.194   0.673  16.331  1.6838 -2.1607 -0.5469
19616TIP3   OH280338   0.577   5.113   5.562 -0.1912  0.4958 -0.0868
19616TIP3    H180339   0.632   5.099   5.485 -1.2554  2.6969 -1.3375
19616TIP3    H280340   0.493   5.143   5.527 -0.5057  2.2114  1.9134
19617TIP3   OH280341   2.510   0.178   4.287  0.1521  0.6860 -0.1433
19617TIP3    H180342   2.419   0.206   4.286  0.7390  2.7207 -0.6365
19617TIP3    H280343   2.520   0.132   4.371 -1.3767  0.1394 -0.2314
19618TIP3   OH280344   1.351   6.517   2.527 -0.2335  0.0245 -0.4082
19618TIP3    H180345   1.268   6.526   2.480 -0.3230  0.1144 -0.2326
19618TIP3    H280346   1.418   6.527   2.459 -0.3529  0.8131 -0.4172
19619TIP3   OH280347   5.050   3.433  15.641  0.4028  0.1108 -0.7662
19619TIP3    H180348   5.097   3.418  15.724 -2.5174  0.2965  1.0595
19619TIP3    H280349   5.067   3.525  15.621 -1.9789  1.3026  1.9292
19620TIP3   OH280350   4.064   0.776  13.863 -0.0273 -0.3241  0.2728
19620TIP3    H180351   4.068   0.868  13.887  1.3680 -0.6900  1.6488
19620TIP3    H280352   3.971   0.756  13.859 -0.3457  0.8216  1.3343
19621TIP3   OH280353   0.768   3.760   5.116 -0.3002  0.2799 -0.9560
19621TIP3    H180354   0.773   3.854   5.100 -0.6082  0.1564 -1.8028
19621TIP3    H280355   0.852   3.726   5.084  0.1119  0.3457  0.0079
19622TIP3   OH280356   0.766   2.438  13.214  0.0652  0.4803 -0.1526
19622TIP3    H180357   0.836   2.443  13.279  0.3865  0.3876 -0.4882
19622TIP3    H280358   0.744   2.529  13.196  0.7317  0.5400 -0.7145
19623TIP3   OH280359   6.811   0.592  12.424 -0.0489  0.1254  0.0974
19623TIP3    H180360   6.895   0.631  12.449  0.1591 -0.0834 -0.2693
19623TIP3    H280361   6.766   0.662  12.375  0.2037  0.0091 -0.3090
19624TIP3   OH280362   5.768   6.171  14.496  0.0634  0.0647  0.3505
19624TIP3    H180363   5.786   6.124  14.415 -2.7457  0.3348 -0.5523
19624TIP3    H280364   5.804   6.258  14.482  0.5676 -0.2235 -0.1539
19625TIP3   OH280365   1.347   4.925  14.511  0.0066  0.2884 -0.2879
19625TIP3    H180366   1.428   4.960  14.547  0.4549  0.1538 -1.1541
19625TIP3    H280367   1.335   4.842  14.557  1.3095 -0.5525 -1.3864
19626TIP3   OH280368   4.554   1.396  17.052 -0.1089  0.1931 -0.2854
19626TIP3    H180369   4.527   1.433  16.968  1.9471  0.4494 -0.8895
19626TIP3    H280370   4.571   1.473  17.108 -0.1674  0.0551 -0.0777
19627TIP3   OH280371   2.803   1.927  16.136 -0.2833 -0.5766 -0.0861
19627TIP3    H180372   2.874   1.974  16.178 -0.1059 -0.7225 -0.2235
19627TIP3    H280373   2.818   1.835  16.157  0.4819 -0.7879 -1.4451
19628TIP3   OH280374   0.093   5.145   0.098  0.0159 -0.2017  0.1852
19628TIP3    H180375  -0.000   5.124   0.089 -0.1194  0.9400 -1.6578
19628TIP3    H280376   0.129   5.129   0.010  0.7197  3.0946 -0.2490
19629TIP3   OH280377   6.316   2.310  15.325 -0.0940 -0.9001 -0.3599
19629TIP3    H180378   6.312   2.280  15.235  1.6623 -0.1947 -0.7215
19629TIP3    H280379   6.352   2.399  15.319 -0.6762 -0.5405  0.9813
19630TIP3   OH280380   6.255   5.112  13.215 -0.1074 -0.0264  0.2292
19630TIP3    H180381   6.199   5.186  13.239 -1.3925 -1.4775  1.9607
19630TIP3    H280382   6.241   5.048  13.284  0.0332 -2.4051 -1.8197
19631TIP3   OH280383   3.374   3.061   1.703 -0.9467  0.1540  0.1694
19631TIP3    H180384   3.429   2.983   1.695  0.5260  1.0442  1.1483
19631TIP3    H280385   3.316   3.057   1.627  0.4919 -0.8120 -0.9375
19632TIP3   OH280386   1.839   4.045   0.197 -0.7621  0.4413 -0.3570
19632TIP3    H180387   1.847   4.140   0.185 -1.0522  0.8772  2.3018
19632TIP3    H280388   1.810   4.035   0.288 -0.0414 -2.2389 -0.3536
19633TIP3   OH280389   4.761   0.499  11.581  0.4093  0.3037  0.3932
19633TIP3    H180390   4.802   0.424  11.623 -1.3931 -0.9642 -0.0011
19633TIP3    H280391   4.688   0.522  11.638  0.1898  0.9711 -0.1338
19634TIP3   OH280392   0.309   3.583  16.372 -0.0382  0.3463  0.6285
19634TIP3    H180393   0.236   3.643  16.389 -0.8613 -0.2694 -0.5853
19634TIP3    H280394   0.267   3.503  16.340  1.1408 -0.2842  0.6140
19635TIP3   OH280395   0.908   5.066   4.541  0.1985  0.0376  0.2217
19635TIP3    H180396   0.992   5.107   4.520  0.9734 -0.1456  2.6535
19635TIP3    H280397   0.925   4.972   4.529 -0.0275  0.0755 -0.4186
19636TIP3   OH280398   3.834   4.440   0.428 -0.1660 -0.1469 -0.2025
19636TIP3    H180399   3.875   4.483   0.352 -1.0884  1.3500  0.1161
19636TIP3    H280400   3.908   4.413   0.482  0.5356 -1.5847 -1.7679
19637TIP3   OH280401   2.921   6.447  17.040  0.2926  0.8870 -0.2754
19637TIP3    H180402   2.840   6.396  17.052  1.1824 -0.9636 -1.5813
19637TIP3    H280403   2.922   6.467  16.946  0.6054  2.2630  0.0069
19638TIP3   OH280404   4.285   4.774   2.537 -0.1684  0.2737  0.5182
19638TIP3    H180405   4.249   4.730   2.459 -0.7028 -0.1060  0.9654
19638TIP3    H280406   4.328   4.704   2.586  0.3999  0.5625  0.4404
19639TIP3   OH280407   1.920   4.644  11.009 -0.0633  0.1433 -0.1800
19639TIP3    H180408   1.900   4.558  10.972  0.5275 -0.0152 -0.1433
19639TIP3    H280409   1.945   4.698  10.934  1.1547 -0.1839 -0.0407
19640TIP3   OH280410   3.183   0.104   3.864  0.4099 -0.1534  0.1227
19640TIP3    H180411   3.247   0.038   3.838  0.1562 -0.0096 -0.9175
19640TIP3    H280412   3.112   0.054   3.904  0.1611 -0.5362 -0.7797
19641TIP3   OH280413   5.201   0.014  16.876 -0.1379 -0.2060 -0.4905
19641TIP3    H180414   5.146  -0.049  16.923  0.3854 -0.8734 -0.7462
19641TIP3    H280415   5.280  -0.035  16.854 -0.0241  0.3296 -1.3425
19642TIP3   OH280416   6.795   2.735  13.444  0.3708 -0.2438  0.1525
19642TIP3    H180417   6.848   2.785  13.506  0.4297  1.4488 -1.1792
19642TIP3    H280418   6.722   2.702  13.497  1.0599  0.0879  1.3637
19643TIP3   OH280419   6.463   6.255   0.398  0.1379 -0.2917 -0.0180
19643TIP3    H180420   6.511   6.325   0.444  0.1104 -0.3020  0.0256
19643TIP3    H280421   6.434   6.196   0.468  0.1650 -0.3493 -0.0554
19644TIP3   OH280422   2.258   1.464   3.645  0.1355 -0.1954  0.2116
19644TIP3    H180423   2.219   1.515   3.574 -1.1336 -2.2664 -0.6614
19644TIP3    H280424   2.353   1.470   3.629 -0.1107 -0.3848 -1.5057
19645TIP3   OH280425   2.567   6.752  14.281  0.0686 -0.2545 -0.2101
19645TIP3    H180426   2.548   6.726  14.371 -0.0859 -1.5636 -0.6068
19645TIP3    H280427   2.602   6.674  14.240  1.0683  0.6029 -1.0343
19646TIP3   OH280428   3.110   5.743   1.078  0.0804  0.4324 -0.0619
19646TIP3    H180429   3.176   5.808   1.055 -1.1010  1.3625 -0.9857
19646TIP3    H280430   3.087   5.701   0.995 -0.8104  0.4622  0.1548
19647TIP3   OH280431   6.068   1.548  14.964  0.0936 -0.0268 -0.3651
19647TIP3    H180432   6.158   1.563  14.934  0.4384 -1.8480 -0.3340
19647TIP3    H280433   6.077   1.526  15.057 -0.1086 -2.2346 -0.8024
19648TIP3   OH280434   1.577   5.261  12.879  0.6249 -0.6675  0.1618
19648TIP3    H180435   1.491   5.272  12.919  1.3107 -0.7918  1.7457
19648TIP3    H280436   1.590   5.340  12.827 -0.7098 -0.9509 -0.6236
19649TIP3   OH280437   6.330   4.819   2.423  0.2918 -0.0785  0.1917
19649TIP3    H180438   6.316   4.838   2.516  2.6905  1.0083  0.3980
19649TIP3    H280439   6.292   4.732   2.412 -0.0843 -0.2342  2.1779
19650TIP3   OH280440   6.048   5.972  12.123 -0.2281  0.4303  0.5825
19650TIP3    H180441   6.125   6.011  12.165  1.5800 -0.2912 -1.8433
19650TIP3    H280442   6.042   6.016  12.039 -2.3549  0.2420  0.5821
19651TIP3   OH280443   2.126   0.349   2.055 -0.1768 -0.1341  0.6048
19651TIP3    H180444   2.066   0.418   2.027  0.4392 -0.3796 -1.5178
19651TIP3    H280445   2.156   0.377   2.141 -2.4955  0.5106  1.2719
19652TIP3   OH280446   1.817   3.801  12.668  0.8256 -0.1155  0.2559
19652TIP3    H180447   1.762   3.732  12.707 -1.3183 -0.9685 -3.7330
19652TIP3    H280448   1.782   3.882  12.704 -2.9079 -0.6700 -1.6643
19653TIP3   OH280449   3.590   5.664  11.206  0.5251 -0.1666  0.0871
19653TIP3    H180450   3.549   5.648  11.291 -0.1844 -2.0684 -0.5719
19653TIP3    H280451   3.678   5.629  11.215  0.1240 -1.2856 -0.2555
19654TIP3   OH280452   0.029   0.671   2.384  0.2219 -0.4550 -0.3621
19654TIP3    H180453   0.108   0.713   2.417  1.5797 -1.2128 -2.3830
19654TIP3    H280454  -0.021   0.648   2.462  2.1207 -0.1730  1.0100
19655TIP3   OH280455   5.060   0.468  13.794 -0.3914 -0.3655  0.4239
19655TIP3    H180456   5.009   0.539  13.832 -1.4607 -0.6494 -0.4380
19655TIP3    H280457   5.124   0.511  13.738 -0.8499 -0.0617  0.1252
19656TIP3   OH280458   2.275   3.591  16.250 -0.5077 -0.0105  0.0509
19656TIP3    H180459   2.225   3.565  16.173 -0.6042  1.4859 -0.4067
19656TIP3    H280460   2.219   3.654  16.296  1.2022  2.3511 -0.9094
19657TIP3   OH280461   5.019   6.743   4.762  0.4286  0.2377 -0.2081
19657TIP3    H180462   4.965   6.816   4.731  0.6753  1.2345  1.5282
19657TIP3    H280463   4.959   6.669   4.769 -0.3318  0.8664  0.0303
19658TIP3   OH280464   4.084   1.331   5.763  0.0314  0.1648  0.0976
19658TIP3    H180465   4.083   1.277   5.684 -1.7700  0.9046 -0.4250
19658TIP3    H280466   4.176   1.330   5.791  0.0075 -3.8830  0.6592
19659TIP3   OH280467   6.081   0.826   6.401  0.3057 -0.4842  0.0375
19659TIP3    H180468   6.003   0.770   6.400 -0.1903  0.1916  0.3249
19659TIP3    H280469   6.116   0.817   6.490  0.4307 -0.6150 -0.0245
19660TIP3   OH280470   5.851   6.214   4.586 -0.0410  0.0753 -1.0298
19660TIP3    H180471   5.762   6.180   4.592 -0.0441 -0.1619 -2.2182
19660TIP3    H280472   5.857   6.279   4.656 -0.7420 -0.7837 -0.1443
19661TIP3   OH280473   6.174   4.805   1.549  0.0404  0.3301  0.7767
19661TIP3    H180474   6.104   4.839   1.493  1.8643 -0.3896 -2.1935
19661TIP3    H280475   6.254   4.826   1.501  1.7190 -0.9016  2.8860
19662TIP3   OH280476   2.143   2.054   3.009 -0.1633 -0.7237  0.3460
19662TIP3    H180477   2.231   2.017   3.010 -0.4590 -1.4478  1.5210
19662TIP3    H280478   2.086   1.979   2.995 -0.7147 -0.5947  1.7788
19663TIP3   OH280479   5.582   5.841  15.872 -0.1107 -0.1159 -0.2095
19663TIP3    H180480   5.559   5.934  15.874  0.8063  0.1173  2.0315
19663TIP3    H280481   5.499   5.797  15.850 -0.7643  1.1451 -0.4023
19664TIP3   OH280482   3.082   1.999  12.049 -0.5349 -0.1515  0.4064
19664TIP3    H180483   3.113   1.939  11.981 -0.3997  1.1519 -0.7342
19664TIP3    H280484   3.157   2.013  12.106 -0.0369  0.2909 -0.3466
19665TIP3   OH280485   3.008   4.994   2.577 -0.0027 -0.2389 -0.1945
19665TIP3    H180486   2.915   4.975   2.563 -0.0205 -1.2178  1.0862
19665TIP3    H280487   3.023   5.076   2.529 -2.3231  1.7738  2.2125
19666TIP3   OH280488   1.088   2.066   1.285  0.7980  0.2000 -0.0609
19666TIP3    H180489   1.117   1.977   1.268  0.6905  0.2541 -0.5183
19666TIP3    H280490   0.998   2.069   1.255  0.8570  0.5136 -0.2107
19667TIP3   OH280491   3.111   6.532   6.028 -0.1904  0.2149 -0.1902
19667TIP3    H180492   3.125   6.438   6.043  0.7803  0.5317  1.0033
19667TIP3    H280493   3.137   6.574   6.110  0.6082  1.6394 -1.1192
19668TIP3   OH280494   6.506   6.802  11.574  0.8250  0.7262  0.2757
19668TIP3    H180495   6.529   6.748  11.650 -1.1461 -2.9131 -1.4212
19668TIP3    H280496   6.567   6.776  11.506  0.3770  1.2868 -0.3555
19669TIP3   OH280497   1.338   1.796  17.054  0.2064 -0.3473 -0.2136
19669TIP3    H180498   1.391   1.862  17.100  1.4073 -1.1602 -0.3937
19669TIP3    H280499   1.255   1.840  17.038  1.2113  1.4138 -0.9837
19670TIP3   OH280500   0.292   2.591  11.062 -0.1993 -0.4767 -0.3646
19670TIP3    H180501   0.363   2.655  11.067  1.0779 -1.7992 -0.7887
19670TIP3    H280502   0.245   2.613  10.982  0.4472 -0.2679 -0.6977
19671TIP3   OH280503   0.344   1.819   4.793  0.2106  0.4171 -0.5877
19671TIP3    H180504   0.420   1.871   4.819  1.8329 -1.4298 -1.4070
19671TIP3    H280505   0.307   1.788   4.875  1.7967 -0.6071 -0.2318
19672TIP3   OH280506   0.224   5.348  17.028 -0.2151 -0.1622 -0.2763
19672TIP3    H180507   0.242   5.408  16.955 -0.0180  1.3759  0.9582
19672TIP3    H280508   0.129   5.349  17.037 -0.1693  0.6664  0.2585
19673TIP3   OH280509   6.217   1.242   4.599  0.3939  0.3044 -0.1672
19673TIP3    H180510   6.215   1.335   4.623  2.0342  0.1608  0.6222
19673TIP3    H280511   6.159   1.236   4.523 -1.7091  1.5243  1.2150
19674TIP3   OH280512   5.491   3.761   0.061  0.0949  0.0816  0.2253
19674TIP3    H180513   5.499   3.669   0.085 -0.8233 -0.3618 -1.0550
19674TIP3    H280514   5.582   3.791   0.052  0.4585 -0.1153  2.5783
19675TIP3   OH280515   0.398   1.218   3.866 -0.0989  0.0550  0.4399
19675TIP3    H180516   0.475   1.236   3.919 -0.7992  1.1922  1.1212
19675TIP3    H280517   0.355   1.303   3.857  0.0839 -0.0308 -2.1454
19676TIP3   OH280518   3.188   6.660  16.297  0.3875 -0.6605 -0.2353
19676TIP3    H180519   3.243   6.583  16.313  0.1381 -0.3053  2.8755
19676TIP3    H280520   3.099   6.627  16.296  0.3686 -0.6053 -0.3855
19677TIP3   OH280521   3.966   1.869  14.854  0.5304  1.2719  0.1194
19677TIP3    H180522   3.909   1.919  14.913 -0.2357  0.7590 -0.1648
19677TIP3    H280523   3.906   1.832  14.789  1.0757 -0.0097  0.3180
19678TIP3   OH280524   3.863   3.582  17.160  0.2847  0.6211 -0.7105
19678TIP3    H180525   3.899   3.569  17.247 -1.3117  0.7127  0.0067
19678TIP3    H280526   3.829   3.497  17.135 -0.5132  0.9046 -0.6260
19679TIP3   OH280527   0.149   1.406  15.986  0.2595 -0.3639  0.4745
19679TIP3    H180528   0.212   1.417  16.057  0.7087 -2.1737  0.4074
19679TIP3    H280529   0.187   1.454  15.913  0.4879  0.3380  1.0438
19680TIP3   OH280530   1.274   2.536  11.342 -0.2757  0.2170  0.3596
19680TIP3    H180531   1.263   2.459  11.285 -0.8652 -0.1893  1.0085
19680TIP3    H280532   1.196   2.589  11.326 -1.1143 -0.5375  1.7306
19681TIP3   OH280533   2.284   2.676  11.237  0.0559 -0.7412  0.1029
19681TIP3    H180534   2.273   2.706  11.147 -0.0166 -1.0190  0.0168
19681TIP3    H280535   2.293   2.756  11.289 -1.3255 -0.5411  0.0470
19682TIP3   OH280536   2.249   4.265   3.940  0.1762 -0.6933  0.1959
19682TIP3    H180537   2.305   4.327   3.987 -1.4958 -0.8084  2.5004
19682TIP3    H280538   2.198   4.319   3.880  2.1463 -0.5131 -1.4412
19683TIP3   OH280539   5.141   2.626   0.797 -0.3406 -0.0069 -0.4130
19683TIP3    H180540   5.168   2.547   0.750 -2.6949 -2.0143  1.3802
19683TIP3    H280541   5.082   2.671   0.737 -1.0483 -1.0258 -0.5040
19684TIP3   OH280542   4.528   6.826  15.557  0.5937  0.0500  0.8498
19684TIP3    H180543   4.523   6.772  15.636 -1.6288  1.8115  2.0213
19684TIP3    H280544   4.438   6.826  15.523  0.1002  4.0736  1.7328
19685TIP3   OH280545   6.795   5.743  13.622 -0.2702  0.2264 -0.1643
19685TIP3    H180546   6.798   5.708  13.711 -3.1654  0.4915  0.1174
19685TIP3    H280547   6.771   5.668  13.568  0.6829  0.2501 -0.6461
19686TIP3   OH280548   5.823   2.038   5.099 -0.5073  0.1760 -1.1758
19686TIP3    H180549   5.747   2.045   5.158  0.2475  1.0653 -0.2619
19686TIP3    H280550   5.861   2.126   5.099  1.1433 -0.5050 -0.7667
19687TIP3   OH280551   6.229   6.359   1.067 -0.4560 -0.1468  0.4432
19687TIP3    H180552   6.190   6.424   1.125 -2.0472 -0.9739  0.3560
19687TIP3    H280553   6.161   6.292   1.057  1.3221 -2.1796  1.0723
19688TIP3   OH280554   1.380   2.613  14.205 -0.4243 -0.1723  0.3667
19688TIP3    H180555   1.465   2.585  14.170 -0.8160 -2.4117  1.0371
19688TIP3    H280556   1.317   2.586  14.139 -0.7427  0.1338  0.5446
19689TIP3   OH280557   6.022   1.523  14.312 -0.2304  0.6182  0.0986
19689TIP3    H180558   6.080   1.523  14.388  0.1148  1.5160 -0.1620
19689TIP3    H280559   6.009   1.430  14.294  0.0341  0.3930  0.9861
19690TIP3   OH280560   1.009   1.637  14.539  0.2092 -0.2426  0.1114
19690TIP3    H180561   0.934   1.581  14.560  0.3488 -0.2078  0.7103
19690TIP3    H280562   1.004   1.709  14.602  1.9692 -1.3486  1.6115
19691TIP3   OH280563   4.264   0.139  15.137  0.1737  0.0118 -0.8658
19691TIP3    H180564   4.190   0.189  15.170  0.2811 -0.1079 -0.4395
19691TIP3    H280565   4.233   0.048  15.134  0.0995  0.0479 -1.2849
19692TIP3   OH280566   3.368   3.997  11.965 -0.4375 -0.0821 -0.1106
19692TIP3    H180567   3.400   3.994  11.875  2.4366 -1.0182  0.8236
19692TIP3    H280568   3.302   4.066  11.965 -1.5973 -1.0117 -3.2024
19693TIP3   OH280569   4.658   4.464  12.281 -0.3371 -0.2693 -0.2086
19693TIP3    H180570   4.700   4.393  12.330  0.0756  1.4477  2.0430
19693TIP3    H280571   4.567   4.463  12.310 -0.1437  0.6183  0.4503
19694TIP3   OH280572   0.863   5.478  16.260  0.0422  0.3790  0.1715
19694TIP3    H180573   0.803   5.545  16.226  1.0789  1.4388  0.3621
19694TIP3    H280574   0.931   5.528  16.304  1.0760 -0.8037 -0.0459
19695TIP3   OH280575   1.664   0.364  11.160 -0.3916 -0.3282  0.3873
19695TIP3    H180576   1.569   0.375  11.153 -0.3444  0.3565  0.7197
19695TIP3    H280577   1.681   0.277  11.125 -1.0017  0.0283 -0.8526
19696TIP3   OH280578   5.189   2.227  11.044  0.0247 -0.4223 -0.6399
19696TIP3    H180579   5.207   2.225  10.950  2.0442 -2.1066 -0.2756
19696TIP3    H280580   5.137   2.148  11.060  0.0486 -0.3624 -0.2635
19697TIP3   OH280581   0.080   2.303  13.119 -0.4078  0.4008 -0.3505
19697TIP3    H180582   0.000   2.260  13.149 -1.3067  1.5812 -0.9805
19697TIP3    H280583   0.081   2.387  13.165 -1.1150  1.6704 -2.5151
19698TIP3   OH280584   6.300   5.957  13.827 -0.0016 -0.0338  0.0277
19698TIP3    H180585   6.249   5.932  13.904 -0.6832  1.0704 -0.0508
19698TIP3    H280586   6.340   5.875  13.797 -0.5796 -0.6593  0.9227
19699TIP3   OH280587   1.741   4.273  12.261 -0.7030 -0.5003  0.4735
19699TIP3    H180588   1.822   4.235  12.227 -0.0456 -0.2031  1.6558
19699TIP3    H280589   1.769   4.352  12.307 -1.6180 -0.5615  1.1724
19700TIP3   OH280590   2.616   3.769  14.873 -0.0893  0.2205 -0.2120
19700TIP3    H180591   2.644   3.679  14.855  1.9073  0.5464  0.9966
19700TIP3    H280592   2.690   3.823  14.848 -0.5556  1.3763  0.8126
19701TIP3   OH280593   4.772   0.717  10.922  0.2741  0.2042 -0.3402
19701TIP3    H180594   4.696   0.773  10.910  0.5099  0.3693 -1.1296
19701TIP3    H280595   4.816   0.717  10.837  0.4659 -0.9015 -0.2656
19702TIP3   OH280596   0.678   5.212   6.341 -0.4087 -0.4803  0.0324
19702TIP3    H180597   0.604   5.261   6.306 -2.2177 -3.3036 -0.3737
19702TIP3    H280598   0.652   5.190   6.431  0.4471 -0.5637  0.2710
19703TIP3   OH280599   4.924   1.419   2.958  0.3259  0.1868 -0.0779
19703TIP3    H180600   5.020   1.416   2.954  0.3428 -2.5460  0.3857
19703TIP3    H280601   4.904   1.435   3.050  0.3799 -0.5397  0.0693
19704TIP3   OH280602   4.580   4.369  15.887  0.6069  0.6034  0.0601
19704TIP3    H180603   4.585   4.406  15.799  2.5172 -0.6635 -0.4253
19704TIP3    H280604   4.493   4.330  15.892 -0.9796  3.7662  0.1115
19705TIP3   OH280605   2.979   3.694  16.597  0.7498 -0.0367  0.6509
19705TIP3    H180606   3.004   3.602  16.588  2.7161  0.5159  0.0402
19705TIP3    H280607   2.897   3.701  16.548  1.7629 -1.0013 -1.2701
19706TIP3   OH280608   4.179   0.044   0.350  0.0846 -0.1809 -0.2010
19706TIP3    H180609   4.201   0.007   0.264  0.2392  2.5565 -1.4627
19706TIP3    H280610   4.083   0.044   0.352  0.0333 -2.7555  0.8947
19707TIP3   OH280611   0.709   6.739   4.182 -0.0593  0.2737  0.2558
19707TIP3    H180612   0.625   6.783   4.179 -0.6202 -0.7046  1.0498
19707TIP3    H280613   0.690   6.653   4.218  1.4317  0.3782  1.3787
19708TIP3   OH280614   6.488   0.617  16.414  0.3104 -0.5099 -0.2949
19708TIP3    H180615   6.574   0.653  16.393 -0.0991  1.3941  1.0014
19708TIP3    H280616   6.432   0.644  16.341  0.4104 -0.0764 -0.2137
19709TIP3   OH280617   5.010   4.834  11.161  0.4749  0.7881  0.3324
19709TIP3    H180618   5.025   4.786  11.080 -0.3653  1.9614 -0.5633
19709TIP3    H280619   4.937   4.892  11.140 -0.3473  0.4899  2.2115
19710TIP3   OH280620   1.358   4.037   4.054 -0.4304 -0.2919 -0.4749
19710TIP3    H180621   1.336   4.129   4.039 -0.4884 -0.2902 -0.3752
19710TIP3    H280622   1.446   4.039   4.091 -0.7997 -0.2219  0.4246
19711TIP3   OH280623   6.280   2.959  14.849 -0.3106  0.5561 -0.3455
19711TIP3    H180624   6.243   2.888  14.901 -1.2748  1.1677 -0.1601
19711TIP3    H280625   6.337   2.916  14.785 -0.5503 -0.3407  0.0358
19712TIP3   OH280626   5.328   0.379  12.564 -0.1235 -0.1348  0.1744
19712TIP3    H180627   5.391   0.439  12.604  1.9839 -1.9860 -0.1515
19712TIP3    H280628   5.252   0.380  12.622  0.2755  1.9976  0.7204
19713TIP3   OH280629   3.385   2.370   3.739 -0.3368  0.0706 -0.3050
19713TIP3    H180630   3.378   2.388   3.833 -0.5075  0.0947 -0.3220
19713TIP3    H280631   3.300   2.396   3.704 -0.8767 -1.4884 -0.2160
19714TIP3   OH280632   1.493   6.401  12.985 -0.0512  0.2865 -0.4509
19714TIP3    H180633   1.405   6.440  12.982 -0.3480 -0.4486 -1.6004
19714TIP3    H280634   1.536   6.433  12.906  0.6283  0.3836 -0.0531
19715TIP3   OH280635   0.277   3.745   4.812 -0.0630 -0.6684 -0.3840
19715TIP3    H180636   0.254   3.698   4.893 -1.4281  2.1714  1.0315
19715TIP3    H280637   0.358   3.792   4.833 -0.2443 -0.1734 -0.7630
19716TIP3   OH280638   3.136   1.073   5.296 -0.3349 -0.0989 -0.0551
19716TIP3    H180639   3.171   0.987   5.317 -1.1972 -0.2285  0.9989
19716TIP3    H280640   3.147   1.082   5.202  0.5457 -0.9979 -0.0549
19717TIP3   OH280641   5.678   3.711   0.281  0.2739 -0.2493 -0.0285
19717TIP3    H180642   5.705   3.750   0.197 -0.4767 -1.0769 -0.6760
19717TIP3    H280643   5.703   3.776   0.347 -2.0291  1.9714 -1.1457
19718TIP3   OH280644   2.930   0.080   3.090 -0.3492 -0.4339  0.4553
19718TIP3    H180645   3.025   0.079   3.088 -0.2889  1.8001 -0.4218
19718TIP3    H280646   2.905   0.162   3.048 -2.6699 -0.9043  0.7395
19719TIP3   OH280647   2.002   2.462  11.658 -0.0654 -0.9936 -0.5503
19719TIP3    H180648   2.016   2.556  11.652 -0.6386 -0.7276  1.5868
19719TIP3    H280649   2.036   2.427  11.575  2.0306  0.8418 -0.5265
19720TIP3   OH280650   5.636   0.689  14.859 -0.2867  0.0740  0.0584
19720TIP3    H180651   5.575   0.653  14.922 -0.2364  1.6403  1.0461
19720TIP3    H280652   5.690   0.750  14.909  1.0757 -0.1222 -1.0950
19721TIP3   OH280653   6.227   0.417  16.170  0.1121  0.7003  0.2819
19721TIP3    H180654   6.220   0.388  16.261  0.2698  0.7930  0.3244
19721TIP3    H280655   6.321   0.425  16.155  0.0512  1.9601  0.5204
19722TIP3   OH280656   2.484   4.186  12.713 -0.2558 -0.3882  0.0065
19722TIP3    H180657   2.417   4.127  12.678  0.2637 -0.9494 -0.0587
19722TIP3    H280658   2.565   4.158  12.669  0.4169 -1.0767  1.6061
19723TIP3   OH280659   5.582   1.161   2.245 -0.8568 -0.7004 -0.4186
19723TIP3    H180660   5.655   1.182   2.187  0.7610  0.3014  1.8606
19723TIP3    H280661   5.548   1.246   2.273 -0.9562 -1.1391  0.8573
19724TIP3   OH280662   3.568   0.455  12.938  0.9084  0.3779 -0.1796
19724TIP3    H180663   3.601   0.469  13.027  0.8322  0.3145 -0.1422
19724TIP3    H280664   3.561   0.543  12.901 -1.1633  0.5897  0.6203
19725TIP3   OH280665   2.863   5.153  12.514 -0.2719  0.1250  0.0794
19725TIP3    H180666   2.915   5.178  12.590 -0.5411  0.9306  0.0037
19725TIP3    H280667   2.805   5.228  12.499  0.6699  0.5364 -1.7266
19726TIP3   OH280668   1.767   1.183   2.658  0.5447  0.1146  0.1162
19726TIP3    H180669   1.717   1.164   2.738  0.1024  0.2125 -0.1315
19726TIP3    H280670   1.767   1.101   2.609 -0.2184  0.3783 -0.3358
19727TIP3   OH280671   2.336   3.500   4.704  0.1801  0.2531  0.2947
19727TIP3    H180672   2.341   3.564   4.775  0.6003  2.0370 -1.2745
19727TIP3    H280673   2.337   3.552   4.624 -1.6398 -1.6099 -1.0551
19728TIP3   OH280674   1.511   3.821   2.494  0.1741 -0.2585  0.1099
19728TIP3    H180675   1.418   3.842   2.504 -0.2396 -2.5101  1.8050
19728TIP3    H280676   1.523   3.811   2.399 -1.4669 -0.5345 -0.1003
19729TIP3   OH280677   4.821   2.693  11.451  0.4043  0.0733 -0.5266
19729TIP3    H180678   4.778   2.617  11.411  1.3263 -1.0297  0.4832
19729TIP3    H280679   4.843   2.750  11.377 -1.4670  0.0054 -1.1861
19730TIP3   OH280680   1.387   4.590  11.327 -0.1842  0.9475 -0.1045
19730TIP3    H180681   1.474   4.618  11.298 -0.2298  0.5442 -0.6619
19730TIP3    H280682   1.327   4.638  11.270 -0.3564  1.7707  0.7601
19731TIP3   OH280683   5.060   4.257   2.325  0.4241 -0.2330  0.3339
19731TIP3    H180684   5.100   4.342   2.342 -1.0670  0.5709  0.0082
19731TIP3    H280685   5.024   4.264   2.237 -0.9675 -0.6836  0.8388
19732TIP3   OH280686   3.542   1.053   2.251  0.9502 -0.1972 -0.6213
19732TIP3    H180687   3.511   1.104   2.326  0.2390 -0.5322 -0.6802
19732TIP3    H280688   3.636   1.047   2.263  1.0522  1.1217 -0.6022
19733TIP3   OH280689   3.020   2.233  16.729  0.2040 -0.1841 -0.4710
19733TIP3    H180690   3.035   2.327  16.739  1.6959 -0.3627 -0.8698
19733TIP3    H280691   2.929   2.226  16.698  0.1330  1.1218 -0.5892
19734TIP3   OH280692   0.091   2.894  11.283 -0.2345 -0.2574 -0.0120
19734TIP3    H180693   0.092   2.942  11.201 -4.9363  0.8815  0.3266
19734TIP3    H280694   0.093   2.802  11.257  0.6387  0.0909 -1.2327
19735TIP3   OH280695   1.507   2.627  13.641 -0.6116  0.2966  0.1930
19735TIP3    H180696   1.576   2.563  13.629 -1.1967 -0.0445 -1.7411
19735TIP3    H280697   1.434   2.594  13.588 -1.4373  1.8122  0.3178
19736TIP3   OH280698   0.712   0.110  14.967 -0.2981 -0.1068  0.0322
19736TIP3    H180699   0.782   0.175  14.962  0.1701 -0.6281 -0.2093
19736TIP3    H280700   0.750   0.038  15.017 -0.7742 -0.2528  0.1874
19737TIP3   OH280701   0.280   3.983   3.661  0.5516  0.4994  0.4007
19737TIP3    H180702   0.267   4.065   3.614  3.7449  1.4095  0.9138
19737TIP3    H280703   0.225   3.991   3.739  1.0680  2.3311  0.6175
19738TIP3   OH280704   5.399   3.071   2.231 -0.6007  0.3116  0.8248
19738TIP3    H180705   5.315   3.045   2.192 -0.6922  0.8354  0.6639
19738TIP3    H280706   5.464   3.025   2.179 -0.8005 -0.3816  1.1768
19739TIP3   OH280707   4.737   3.895   3.432 -0.3509  0.1089 -0.3248
19739TIP3    H180708   4.711   3.825   3.492  0.2433  0.5713  0.4997
19739TIP3    H280709   4.685   3.971   3.461  0.5364  0.5503  0.1445
19740TIP3   OH280710   4.349   3.531   4.475  0.0466  0.1460 -0.2029
19740TIP3    H180711   4.335   3.446   4.433  0.5160 -0.5803  1.0631
19740TIP3    H280712   4.443   3.534   4.492 -0.2202  0.1061  1.4053
19741TIP3   OH280713   6.728   3.790   3.356 -0.3166 -0.3791 -0.1509
19741TIP3    H180714   6.795   3.789   3.424  0.5870  0.7162 -0.9772
19741TIP3    H280715   6.663   3.725   3.384  0.5320 -0.6611  1.2261
19742TIP3   OH280716   4.122   3.653   2.305  0.6100  0.5446 -0.4459
19742TIP3    H180717   4.197   3.677   2.251  3.4498 -0.1522  2.8386
19742TIP3    H280718   4.109   3.729   2.362  1.2891 -0.6977  1.4415
19743TIP3   OH280719   1.917   1.906  11.861 -0.0371  0.4799  0.4946
19743TIP3    H180720   1.946   1.995  11.842 -0.1358  0.6888  1.3046
19743TIP3    H280721   1.998   1.858  11.880  0.1959 -0.0305 -1.5309
19744TIP3   OH280722   4.017   0.606   5.227 -0.3717  0.2705  1.3094
19744TIP3    H180723   4.035   0.688   5.181 -0.5469 -0.1838  0.4026
19744TIP3    H280724   4.046   0.537   5.166 -0.6697 -0.3484  1.8513
19745TIP3   OH280725   1.295   0.438   6.808  0.4321  0.7243  0.1799
19745TIP3    H180726   1.279   0.343   6.812  1.0062  0.5671 -0.7886
19745TIP3    H280727   1.373   0.452   6.861 -0.3370  0.8476  1.3133
19746TIP3   OH280728   4.805   2.398  13.060  0.2031  0.0681  0.9304
19746TIP3    H180729   4.837   2.426  13.146  0.5648  0.2207  0.7465
19746TIP3    H280730   4.859   2.322  13.038 -1.8848 -1.9075  2.1937
19747TIP3   OH280731   6.422   5.281   2.603 -0.3624 -0.2356  0.1362
19747TIP3    H180732   6.410   5.226   2.525  1.3389  0.5022 -0.6894
19747TIP3    H280733   6.408   5.221   2.676 -0.1462 -1.4025 -0.7466
19748TIP3   OH280734   5.261   5.932   5.414  0.0914 -0.2580  0.2485
19748TIP3    H180735   5.230   5.933   5.504  0.0158  0.9077  0.2259
19748TIP3    H280736   5.200   5.873   5.368 -1.6007  1.2660  0.3972
19749TIP3   OH280737   1.624   3.652  12.933  0.3923  0.2467 -0.3787
19749TIP3    H180738   1.594   3.742  12.936 -0.4068 -0.0281  0.2716
19749TIP3    H280739   1.621   3.622  13.024  1.2037 -0.2586 -0.5066
19750TIP3   OH280740   2.044   5.244  16.889  0.3663 -0.2958  0.4139
19750TIP3    H180741   2.111   5.238  16.820  0.1319 -0.1670  0.1713
19750TIP3    H280742   1.961   5.236  16.842  0.1176  1.6947  0.4233
19751TIP3   OH280743   5.709   1.709  14.435 -0.0651  0.3712 -0.3288
19751TIP3    H180744   5.707   1.686  14.343  1.0982  0.5550 -0.4127
19751TIP3    H280745   5.760   1.640  14.476  1.4122  1.4909 -0.2075
19752TIP3   OH280746   5.291   4.209   3.932  0.0282 -0.2769 -0.0693
19752TIP3    H180747   5.329   4.265   3.865  0.2081 -0.5750 -0.2186
19752TIP3    H280748   5.212   4.172   3.891  0.0935 -0.3950 -0.0895
19753TIP3   OH280749   1.519   1.229   5.406  0.1568 -0.3187  0.0074
19753TIP3    H180750   1.550   1.250   5.317 -0.7769 -0.7464 -0.4297
19753TIP3    H280751   1.549   1.302   5.459 -0.6863  0.7776 -0.9700
19754TIP3   OH280752   2.507   2.699   1.920 -0.1102  0.5603 -0.3448
19754TIP3    H180753   2.495   2.722   1.828 -1.4779 -1.5100 -0.7534
19754TIP3    H280754   2.550   2.613   1.918  0.1036  0.6145  0.9542
19755TIP3   OH280755   4.594   1.562  14.958 -0.2797 -0.3269  0.3934
19755TIP3    H180756   4.543   1.631  14.916 -1.5190 -1.1250  0.5245
19755TIP3    H280757   4.529   1.509  15.004  0.5312 -1.9997 -0.2906
19756TIP3   OH280758   6.278   3.144   3.324 -0.1137 -0.2695 -0.8400
19756TIP3    H180759   6.274   3.052   3.297  0.5616 -0.8116  0.7745
19756TIP3    H280760   6.205   3.185   3.279  0.2758 -1.3247 -2.5310
19757TIP3   OH280761   5.633   0.743   3.304 -0.2655  0.1560  0.0503
19757TIP3    H180762   5.652   0.720   3.213  0.3017  2.0184 -0.3429
19757TIP3    H280763   5.719   0.761   3.342 -0.6241  0.9941  0.4795
19758TIP3   OH280764   1.102   4.976   3.162  0.2420 -0.1723  0.7326
19758TIP3    H180765   1.058   4.891   3.171  0.8979 -0.4830  1.1342
19758TIP3    H280766   1.189   4.954   3.129  0.7327  0.2569  1.6896
19759TIP3   OH280767   2.578   6.544   0.529  0.3208 -0.0764  0.3752
19759TIP3    H180768   2.604   6.515   0.617  0.5151 -0.6340  0.1372
19759TIP3    H280769   2.608   6.474   0.471  1.6190  1.0185 -0.3228
19760TIP3   OH280770   1.894   0.741   5.914 -0.6318 -0.0521 -0.1255
19760TIP3    H180771   1.911   0.666   5.971  1.9278  0.7548  0.2886
19760TIP3    H280772   1.981   0.776   5.894 -1.7257  2.4563 -0.7871
19761TIP3   OH280773   6.694   2.646  14.219 -0.0799  0.1735 -0.0869
19761TIP3    H180774   6.687   2.552  14.201  0.7861  0.4047 -1.8028
19761TIP3    H280775   6.609   2.681  14.193 -1.2323 -0.3423  2.5563
19762TIP3   OH280776   4.737   2.287  15.017  0.1916 -0.4535 -0.2090
19762TIP3    H180777   4.734   2.343  15.095 -0.4270 -0.7222 -0.0350
19762TIP3    H280778   4.765   2.202  15.050  0.8628 -0.3277 -0.4339
19763TIP3   OH280779   6.628   6.488  14.152  0.2562 -0.1306 -0.2917
19763TIP3    H180780   6.713   6.449  14.168  0.0531 -0.1590  0.8290
19763TIP3    H280781   6.643   6.552  14.082  1.5663  1.0869  1.0303
19764TIP3   OH280782   3.019   4.205   0.067 -0.5671 -0.5024 -0.8976
19764TIP3    H180783   3.083   4.225   0.000  0.8050  2.8012  1.1578
19764TIP3    H280784   3.050   4.124   0.108  1.8361  0.5360 -0.5540
19765TIP3   OH280785   0.787   5.684  16.624  0.2095  0.0935 -0.1006
19765TIP3    H180786   0.856   5.617  16.626  0.7787  0.6091 -1.4205
19765TIP3    H280787   0.736   5.663  16.546 -1.0972 -0.2103  0.7992
19766TIP3   OH280788   5.180   1.540   2.648  0.0053 -0.1830 -0.0957
19766TIP3    H180789   5.183   1.456   2.603 -0.6941 -0.1327 -0.2549
19766TIP3    H280790   5.087   1.554   2.665  0.1771  0.2542  0.5054
19767TIP3   OH280791   5.871   4.251   5.090  1.1241 -0.4234 -0.4203
19767TIP3    H180792   5.877   4.188   5.162 -1.8688 -1.2864 -0.7801
19767TIP3    H280793   5.870   4.197   5.011  1.2832  0.2782 -0.9128
19768TIP3   OH280794   5.199   5.346   5.510  0.5858  0.4463  0.4154
19768TIP3    H180795   5.169   5.260   5.481  1.5561 -0.5922  2.2584
19768TIP3    H280796   5.120   5.393   5.534 -0.0436  0.5162 -1.6657
19769TIP3   OH280797   0.037   3.655   2.639 -0.1926  0.0289  0.3168
19769TIP3    H180798  -0.037   3.610   2.680 -1.0458 -0.3573 -1.5230
19769TIP3    H280799  -0.002   3.700   2.564  1.3180  0.5384 -0.1945
19770TIP3   OH280800   3.022   5.028  12.218  0.0005  0.4615  0.0847
19770TIP3    H180801   3.026   4.951  12.274  0.6206 -0.4367 -1.1438
19770TIP3    H280802   3.113   5.055  12.208 -0.1869  1.1874  0.2648
19771TIP3   OH280803   3.865   1.045   3.002  0.9039 -0.3741  0.5174
19771TIP3    H180804   3.931   0.991   2.959  1.4971  0.1716  0.7369
19771TIP3    H280805   3.914   1.101   3.062  0.1237 -0.8856  1.6745
19772TIP3   OH280806   1.402   1.021   2.944  0.0175 -0.3980 -0.6734
19772TIP3    H180807   1.315   1.062   2.936  0.2840  0.4808  0.5865
19772TIP3    H280808   1.395   0.940   2.893 -0.4445  1.2952 -3.4920
19773TIP3   OH280809   2.926   0.523   6.150 -0.1737  0.1231 -0.5178
19773TIP3    H180810   2.866   0.472   6.204  0.9640  0.6548  1.3485
19773TIP3    H280811   2.884   0.609   6.141 -0.2061  0.1472 -0.1520
19774TIP3   OH280812   3.969   6.311   5.366 -0.3101  0.3917 -0.4518
19774TIP3    H180813   3.910   6.381   5.397 -0.0681  0.7158 -0.7139
19774TIP3    H280814   4.044   6.315   5.426 -0.7118 -0.2602  0.1053
19775TIP3   OH280815   0.027   2.025   1.184 -0.6237 -0.3056  0.4952
19775TIP3    H180816  -0.021   1.950   1.219  0.0207  0.4168  3.1091
19775TIP3    H280817  -0.026   2.054   1.110 -1.9762 -2.0702  0.7030
19776TIP3   OH280818   2.111   0.247  12.853  0.5104 -0.0095 -0.3064
19776TIP3    H180819   2.111   0.290  12.939  0.3891 -0.7021  0.0546
19776TIP3    H280820   2.063   0.307  12.796 -2.7515 -1.1537  1.0011
19777TIP3   OH280821   2.188   6.235   1.987  0.3858  1.1463  0.4351
19777TIP3    H180822   2.176   6.268   2.076 -2.9749  0.3660  0.3808
19777TIP3    H280823   2.228   6.149   1.999  1.6851  1.7831  1.0028
19778TIP3   OH280824   3.025   6.139   4.037  0.2905  0.2263  0.1894
19778TIP3    H180825   3.025   6.169   4.128 -0.3910  0.7206  0.0346
19778TIP3    H280826   2.949   6.082   4.030  1.1001 -0.9018  0.2609
19779TIP3   OH280827   5.640   5.190  12.117 -0.0969  0.2547 -0.5782
19779TIP3    H180828   5.673   5.232  12.037  0.6341  1.4027  0.2991
19779TIP3    H280829   5.655   5.097  12.102  1.3343  0.5538 -1.2229
19780TIP3   OH280830   1.089   6.753   1.217  0.2287  0.2106  0.4792
19780TIP3    H180831   1.130   6.669   1.238 -0.4047 -0.5804 -1.2522
19780TIP3    H280832   1.012   6.730   1.164  0.2610  1.8927 -0.3694
19781TIP3   OH280833   6.667   2.566   5.359  0.2098 -0.0428 -0.3152
19781TIP3    H180834   6.583   2.605   5.338  0.7274  0.5606 -1.3288
19781TIP3    H280835   6.723   2.641   5.383  0.1561 -0.5327  1.5099
19782TIP3   OH280836   2.391   4.449   4.079 -0.0715 -0.0588  0.2500
19782TIP3    H180837   2.332   4.514   4.041 -0.2232 -0.4121 -0.1208
19782TIP3    H280838   2.470   4.499   4.102 -0.8635  0.6267  1.6628
19783TIP3   OH280839   4.435   6.480  13.338  0.3880 -0.3608  0.3066
19783TIP3    H180840   4.496   6.424  13.292 -1.1135 -1.8326  0.0095
19783TIP3    H280841   4.384   6.523  13.268 -0.0365 -0.4560  0.5523
19784TIP3   OH280842   0.302   6.723   1.473 -0.2938 -0.3295  0.3738
19784TIP3    H180843   0.214   6.753   1.494  0.6627  1.0946  2.6377
19784TIP3    H280844   0.311   6.741   1.379 -1.4829  2.0883  0.6330
19785TIP3   OH280845   0.143   4.628  10.680 -0.2408  0.3161  0.0921
19785TIP3    H180846   0.181   4.642  10.594  0.8835 -0.1786  0.4965
19785TIP3    H280847   0.207   4.663  10.741  0.1741 -1.6408  0.8558
19786TIP3   OH280848   0.257   5.448  12.491  0.1626 -0.5286 -0.1536
19786TIP3    H180849   0.276   5.532  12.449  1.6530  0.4292  2.2507
19786TIP3    H280850   0.303   5.384  12.437  2.6058  0.7349  0.2880
19787TIP3   OH280851   4.820   2.010  14.247  0.4663  0.4180 -0.3581
19787TIP3    H180852   4.900   1.961  14.268  1.1323  1.9033  0.7281
19787TIP3    H280853   4.832   2.037  14.156  0.4418 -0.7552 -0.7210
19788TIP3   OH280854   0.763   5.360   1.185 -0.5733 -0.0298  0.0402
19788TIP3    H180855   0.811   5.302   1.244 -0.7681 -0.6081 -0.3610
19788TIP3    H280856   0.686   5.387   1.235 -0.5073 -0.1529  0.2107
19789TIP3   OH280857   4.002   0.229   1.842 -0.3560  0.6369 -0.0105
19789TIP3    H180858   4.060   0.154   1.839 -1.4070 -0.1776 -1.2715
19789TIP3    H280859   4.027   0.277   1.921 -0.7972 -1.9691  1.8221
19790TIP3   OH280860   2.545   2.244   2.697  0.8508  0.5399  0.0078
19790TIP3    H180861   2.465   2.196   2.673  1.8224 -0.6504 -1.0047
19790TIP3    H280862   2.549   2.239   2.792 -0.3822  0.8138  0.0930
19791TIP3   OH280863   0.057   5.594  16.206 -0.4474  0.2733 -0.0804
19791TIP3    H180864   0.016   5.627  16.286 -0.5351 -2.0849  0.9243
19791TIP3    H280865   0.132   5.652  16.193 -1.0798  1.4116  1.0466
19792TIP3   OH280866   3.947   3.255   2.062  0.4685  0.3020  0.6990
19792TIP3    H180867   3.860   3.251   2.101 -0.0268  1.2907 -0.2604
19792TIP3    H280868   3.948   3.182   2.000  0.0821  0.6660  0.2562
19793TIP3   OH280869   1.292   1.061  10.468  0.5138  0.5286  0.5180
19793TIP3    H180870   1.268   0.988  10.411  1.6155  0.9916 -0.5737
19793TIP3    H280871   1.216   1.073  10.524  0.8777 -2.4694  1.8329
19794TIP3   OH280872   0.996   2.095   3.307  0.2770  0.2348 -0.3587
19794TIP3    H180873   0.943   2.072   3.383 -0.9283 -0.6124 -1.4173
19794TIP3    H280874   1.042   2.175   3.333  0.5445 -0.4837  1.5418
19795TIP3   OH280875   6.671   6.336   4.039 -0.0409  0.1989  0.0991
19795TIP3    H180876   6.664   6.403   3.971  0.1932  1.7644  1.5301
19795TIP3    H280877   6.580   6.312   4.058 -0.1665  0.5785 -0.0036
19796TIP3   OH280878   3.641   0.074  12.359  0.4735  0.0545 -0.9450
19796TIP3    H180879   3.649   0.166  12.385  2.4303 -0.3364  0.0402
19796TIP3    H280880   3.599   0.031  12.434 -0.2342  0.0777 -1.3141
19797TIP3   OH280881   2.269   4.270   2.557  0.8805  0.4622  0.3004
19797TIP3    H180882   2.262   4.213   2.633 -4.9885 -0.5541 -0.5539
19797TIP3    H280883   2.250   4.358   2.590 -0.8671  0.1413  0.2274
19798TIP3   OH280884   2.456   3.785   0.495 -0.2560 -0.0248 -0.7629
19798TIP3    H180885   2.508   3.852   0.450 -0.1491  1.0025  0.8152
19798TIP3    H280886   2.435   3.824   0.580 -2.2592 -1.0577 -0.7244
19799TIP3   OH280887   4.915   3.620   4.411  0.8299  0.0877 -0.0457
19799TIP3    H180888   4.976   3.546   4.408 -1.3568 -1.8682  0.5167
19799TIP3    H280889   4.873   3.620   4.325  0.3197  0.2147  0.1993
19800TIP3   OH280890   2.148   6.726  11.639 -0.5314 -0.0335 -0.2488
19800TIP3    H180891   2.175   6.800  11.583 -3.1732  0.3383 -1.1725
19800TIP3    H280892   2.145   6.651  11.579  1.1728 -0.7322  0.4768
19801TIP3   OH280893   6.496   0.566   2.130 -0.3850 -0.1128  0.1452
19801TIP3    H180894   6.545   0.648   2.140  0.8564 -0.6243 -1.4123
19801TIP3    H280895   6.418   0.578   2.185  0.9745  1.1250  1.9118
19802TIP3   OH280896   0.632   5.293   5.746 -0.1922 -0.2510  0.5599
19802TIP3    H180897   0.704   5.282   5.808  0.1306  1.1447  0.4623
19802TIP3    H280898   0.616   5.205   5.712  1.8507 -0.5203  0.1506
19803TIP3   OH280899   3.772   2.530   5.527  0.0835 -0.1917  0.2715
19803TIP3    H180900   3.745   2.468   5.594  0.2436 -0.2724  0.2610
19803TIP3    H280901   3.858   2.499   5.498 -0.5424 -0.9240 -0.9070
19804TIP3   OH280902   1.054   5.011   6.145 -0.3494 -0.9812  0.1976
19804TIP3    H180903   1.126   5.027   6.084  0.5794 -1.8180  1.0549
19804TIP3    H280904   1.072   5.068   6.219 -0.9554 -0.6806  0.1183
19805TIP3   OH280905   3.278   4.092  15.836 -0.1632 -0.0508  0.6772
19805TIP3    H180906   3.264   4.186  15.849  0.3111  0.2183 -0.5909
19805TIP3    H280907   3.366   4.087  15.798 -0.1245 -1.0294  0.8857
19806TIP3   OH280908   5.705   1.679  14.867  0.4007 -0.2400 -0.3112
19806TIP3    H180909   5.718   1.606  14.807  0.3134 -0.2069 -0.3702
19806TIP3    H280910   5.789   1.724  14.868  0.5025 -0.4323 -0.1529
19807TIP3   OH280911   0.363   2.849   3.732 -0.1735  0.0933 -0.3388
19807TIP3    H180912   0.360   2.812   3.643 -1.3891  2.7043 -1.5148
19807TIP3    H280913   0.273   2.880   3.747 -0.2705 -1.2753  2.3121
19808TIP3   OH280914   6.039   3.419   0.971  0.1647  0.0116  0.7467
19808TIP3    H180915   6.087   3.337   0.959 -0.4961 -0.0923 -1.5533
19808TIP3    H280916   6.004   3.413   1.060  0.6044 -1.9225  0.8400
19809TIP3   OH280917   0.414   4.140   1.507  0.2766  0.0182  0.4092
19809TIP3    H180918   0.365   4.065   1.542  0.1748  0.5388  1.4529
19809TIP3    H280919   0.400   4.209   1.573  0.7484  0.8041 -0.2989
19810TIP3   OH280920   4.184   1.195  12.617  0.4486 -0.1892  0.2126
19810TIP3    H180921   4.147   1.209  12.704 -1.4288  0.8661 -0.7170
19810TIP3    H280922   4.216   1.281  12.590  1.4626 -0.6072  0.0160
19811TIP3   OH280923   0.789   1.533   6.834  0.4704  0.2946  0.8582
19811TIP3    H180924   0.716   1.580   6.793  1.2080  0.2742 -0.5490
19811TIP3    H280925   0.774   1.541   6.928 -1.6669 -0.2202  0.6049
19812TIP3   OH280926   3.552   2.931   2.181  0.2192 -0.4668 -0.6356
19812TIP3    H180927   3.492   3.005   2.188 -0.7031 -1.3074  1.6145
19812TIP3    H280928   3.532   2.892   2.096  1.1698  2.1470 -2.1585
19813TIP3   OH280929   6.255   2.382  13.346 -0.0232 -0.1091  0.4274
19813TIP3    H180930   6.249   2.298  13.391 -1.1208  0.0331  0.5837
19813TIP3    H280931   6.191   2.375  13.275  1.7293 -0.3710 -1.2257
19814TIP3   OH280932   5.713   0.878  11.721  0.6623  0.0149 -0.1486
19814TIP3    H180933   5.644   0.944  11.720  0.3075 -0.3556 -0.3932
19814TIP3    H280934   5.725   0.858  11.814  1.3549  1.0245 -0.0152
19815TIP3   OH280935   0.703   2.157   2.141  0.4276 -0.3305  0.5025
19815TIP3    H180936   0.714   2.184   2.049  2.1044  0.4602  0.8970
19815TIP3    H280937   0.612   2.125   2.146  0.1713 -0.0029 -1.3217
19816TIP3   OH280938   4.360   2.639  16.730 -0.7556 -0.3754 -0.5258
19816TIP3    H180939   4.389   2.662  16.642 -0.8105  0.2183 -0.3985
19816TIP3    H280940   4.265   2.629  16.723 -0.7892 -0.0930 -0.4894
19817TIP3   OH280941   1.517   4.837   5.215  0.0798 -0.1552 -0.1053
19817TIP3    H180942   1.549   4.748   5.232  1.4463  0.3234 -0.0266
19817TIP3    H280943   1.587   4.894   5.247 -1.1155  0.9870  0.5796
19818TIP3   OH280944   0.285   5.028   5.816  0.5251  0.1683 -0.0699
19818TIP3    H180945   0.315   5.093   5.880  0.6482 -0.8451  0.9360
19818TIP3    H280946   0.351   4.959   5.819  1.2637  0.6964 -2.3276
19819TIP3   OH280947   0.622   5.018   2.993  0.2426  0.1193  0.4667
19819TIP3    H180948   0.715   5.036   2.981  0.4427 -0.4419  1.0875
19819TIP3    H280949   0.615   4.922   2.985 -0.4040  0.2172 -0.3436
19820TIP3   OH280950   6.290   4.707  16.456 -0.3383 -0.6693  0.9043
19820TIP3    H180951   6.335   4.752  16.528  3.3380  0.0483 -1.5571
19820TIP3    H280952   6.288   4.771  16.385 -0.3686 -2.4769 -0.8141
19821TIP3   OH280953   5.348   3.438  14.503  0.2308  0.1762 -0.1069
19821TIP3    H180954   5.378   3.464  14.590  1.6421 -0.9214 -0.2243
19821TIP3    H280955   5.349   3.342  14.505  0.1896  0.1387 -1.3042
19822TIP3   OH280956   6.728   4.886   3.565 -0.2120 -0.0932  0.3283
19822TIP3    H180957   6.702   4.973   3.534 -0.9920 -0.6410 -0.6198
19822TIP3    H280958   6.807   4.866   3.514  0.3523  0.3238  1.0261
19823TIP3   OH280959   1.360   1.184   4.805  0.2279 -0.3373 -0.5082
19823TIP3    H180960   1.431   1.242   4.835  2.0641 -2.0646 -1.3302
19823TIP3    H280961   1.379   1.168   4.713 -0.7710 -1.5038 -0.5378
19824TIP3   OH280962   6.627   1.975  16.447  0.1334  0.3079 -0.5258
19824TIP3    H180963   6.588   1.901  16.400 -3.7484  0.6351  1.7230
19824TIP3    H280964   6.672   1.935  16.521 -0.6140  0.0539 -0.1898
19825TIP3   OH280965   1.999   5.131  15.969  0.4491  0.5822 -0.5254
19825TIP3    H180966   2.053   5.186  15.913  2.5047 -1.7513 -1.0168
19825TIP3    H280967   2.053   5.115  16.047 -0.5634  0.2052  0.1228
19826TIP3   OH280968   2.863   0.008  14.815 -0.2545 -0.5143  0.2572
19826TIP3    H180969   2.955  -0.001  14.790 -0.2240  0.4425 -0.0179
19826TIP3    H280970   2.815  -0.005  14.734 -0.3286 -0.5062  0.3003
19827TIP3   OH280971   1.463   2.919  14.226  0.3410  0.6676  0.2367
19827TIP3    H180972   1.429   2.983  14.163  0.6059  0.0140 -0.5794
19827TIP3    H280973   1.438   2.955  14.311  0.9665  2.1462 -0.1667
19828TIP3   OH280974   2.825   0.628  13.325 -0.4781 -0.1743  0.1711
19828TIP3    H180975   2.759   0.568  13.361 -1.5176  1.3518  0.9102
19828TIP3    H280976   2.886   0.571  13.279 -1.4916 -1.7902  0.7338
19829TIP3   OH280977   2.310   5.374   0.705  0.1019 -0.3310 -0.4134
19829TIP3    H180978   2.301   5.339   0.793  2.0724 -1.0517 -0.4503
19829TIP3    H280979   2.362   5.454   0.716  0.0160 -0.2091 -0.8621
19830TIP3   OH280980   3.398   6.770  12.505 -0.2357 -0.4112 -0.7091
19830TIP3    H180981   3.392   6.686  12.460 -2.2250 -0.9932  0.4923
19830TIP3    H280982   3.440   6.750  12.589 -0.9119 -0.2737 -0.3293
19831TIP3   OH280983   1.873   5.722   6.454  0.2565 -0.1041  0.3308
19831TIP3    H180984   1.786   5.684   6.465 -0.1240 -0.0995 -2.0372
19831TIP3    H280985   1.859   5.817   6.459  0.2474 -0.1190  0.6014
19832TIP3   OH280986   1.288   5.048   6.739 -0.5654 -0.1352 -0.4419
19832TIP3    H180987   1.274   5.122   6.680  0.3897 -0.9678 -1.8052
19832TIP3    H280988   1.204   5.002   6.740 -1.6444  1.7051  1.6167
19833TIP3   OH280989   0.227   1.860  11.981 -0.0473  0.9955 -0.0927
19833TIP3    H180990   0.221   1.939  11.927 -0.3706  1.8343  1.1345
19833TIP3    H280991   0.145   1.813  11.964  0.0948  0.9574 -0.7314
19834TIP3   OH280992   3.735   5.944  13.178 -0.0713 -0.3901 -0.1907
19834TIP3    H180993   3.722   5.947  13.272  0.2809 -0.8212 -0.1252
19834TIP3    H280994   3.746   6.036  13.152 -2.8915  0.0103 -0.2275
19835TIP3   OH280995   6.828   6.237   3.653  0.8231 -0.3789  0.3096
19835TIP3    H180996   6.750   6.199   3.613  0.9733 -0.5388  0.1613
19835TIP3    H280997   6.874   6.162   3.690  1.2254 -0.3702 -0.1631
19836TIP3   OH280998   4.215   0.228  15.939 -0.3159 -0.3360 -0.4266
19836TIP3    H180999   4.251   0.140  15.930  1.4551  0.3626 -0.5689
19836TIP3    H281000   4.232   0.252  16.030 -1.1912 -0.2912 -0.2675
19837TIP3   OH281001   4.598   6.823  14.432  0.4998  0.2319  0.1016
19837TIP3    H181002   4.601   6.740  14.480 -0.5419 -1.5812 -2.7515
19837TIP3    H281003   4.688   6.835  14.401  0.5641 -0.0395  0.1758
19838TIP3   OH281004   4.428   3.523   4.200 -0.1865 -0.3786 -0.4526
19838TIP3    H181005   4.435   3.592   4.265  0.9891 -1.3381  0.4846
19838TIP3    H281006   4.333   3.513   4.186 -0.4107  0.5590  0.3119
19839TIP3   OH281007   3.970   0.442   4.966  0.1676  0.7186 -0.1218
19839TIP3    H181008   4.017   0.359   4.972 -0.5631  0.1811 -1.4356
19839TIP3    H281009   3.892   0.429   5.019  0.3595  0.7832  0.1752
19840TIP3   OH281010   0.454   4.376  14.081 -0.5938 -0.4782  0.3207
19840TIP3    H181011   0.460   4.415  14.168  0.1126  1.0086 -0.3709
19840TIP3    H281012   0.360   4.377  14.061 -0.4616  3.8661 -0.9241
19841TIP3   OH281013   5.671   5.574  13.370 -0.2535  0.0755  0.0919
19841TIP3    H181014   5.756   5.544  13.403 -0.1239  1.1836  0.7946
19841TIP3    H281015   5.658   5.660  13.409 -2.7560 -0.9941  1.8613
19842TIP3   OH281016   2.440   1.012   4.720  0.2033 -0.5108 -0.2744
19842TIP3    H181017   2.463   1.038   4.631  0.3402  0.0545 -0.0814
19842TIP3    H281018   2.367   1.070   4.743  0.1740 -0.6494 -0.0185
19843TIP3   OH281019   2.777   2.186   4.476 -0.3026  0.3111  0.4611
19843TIP3    H181020   2.684   2.162   4.475 -0.5390  1.0726  1.9420
19843TIP3    H281021   2.781   2.266   4.529  0.6653  2.6739 -2.7906
19844TIP3   OH281022   1.607   2.326   6.215  0.3289  0.1225  0.3668
19844TIP3    H181023   1.580   2.337   6.307  1.5475 -0.8933  0.8782
19844TIP3    H281024   1.532   2.283   6.174  0.3109 -0.7301  1.2466
19845TIP3   OH281025   4.062   3.995  11.760  0.4144 -0.3125 -0.0319
19845TIP3    H181026   3.967   3.984  11.760  0.6363 -3.0212 -0.8305
19845TIP3    H281027   4.096   3.908  11.781  2.7349  0.5348  0.0052
19846TIP3   OH281028   4.653   5.886   4.401  0.3047 -0.7291  0.3545
19846TIP3    H181029   4.711   5.914   4.331 -0.1179 -0.8779 -0.0606
19846TIP3    H281030   4.640   5.965   4.454  0.4823 -0.5683  0.1601
19847TIP3   OH281031   6.015   5.368   1.481  0.5288 -0.8049 -0.0541
19847TIP3    H181032   5.947   5.397   1.420  1.6660  0.7815 -0.6369
19847TIP3    H281033   6.023   5.274   1.466 -0.8693 -0.8496 -0.6328
19848TIP3   OH281034   2.776   6.722   2.634 -0.1723 -0.6294 -0.2010
19848TIP3    H181035   2.849   6.779   2.659  0.9435 -1.6412 -1.0249
19848TIP3    H281036   2.750   6.678   2.715 -0.1272  0.0275  0.1733
19849TIP3   OH281037   6.801   2.171  14.961 -0.4561 -0.0863  0.1060
19849TIP3    H181038   6.779   2.259  14.993  0.7664  0.6636 -1.0425
19849TIP3    H281039   6.787   2.175  14.867  0.2722 -0.9056 -0.0510
19850TIP3   OH281040   3.113   1.918   5.867 -0.1043  0.4851  0.5016
19850TIP3    H181041   3.155   1.877   5.943 -0.1401  2.8597  1.8821
19850TIP3    H281042   3.024   1.882   5.868  0.2685 -0.4682  0.8150
19851TIP3   OH281043   3.311   1.978   4.292 -0.1712  0.1094  0.1518
19851TIP3    H181044   3.335   1.962   4.383  0.9496 -0.6913 -0.2661
19851TIP3    H281045   3.359   2.057   4.267 -0.7031  0.4973  0.3205
19852TIP3   OH281046   4.510   3.330   3.682  0.2856 -0.0300 -0.1118
19852TIP3    H181047   4.499   3.361   3.592 -1.1858 -1.6539 -0.5336
19852TIP3    H281048   4.433   3.363   3.729  0.5300 -0.0581  0.3210
19853TIP3   OH281049   1.457   4.839   3.418 -0.1362  0.0046  0.5334
19853TIP3    H181050   1.509   4.763   3.445 -0.1336  0.2243  1.1772
19853TIP3    H281051   1.411   4.865   3.498  0.7949  1.4129  0.6471
19854TIP3   OH281052   6.146   0.790  14.389  0.1766 -0.8263 -0.2989
19854TIP3    H181053   6.098   0.865  14.425  1.4644  0.2851 -0.8259
19854TIP3    H281054   6.236   0.820  14.382  0.7907 -2.5411 -0.2631
19855TIP3   OH281055   6.330   4.650  14.634  0.2132  0.1419  0.2425
19855TIP3    H181056   6.305   4.692  14.717 -0.2069  0.0570  0.1616
19855TIP3    H281057   6.418   4.684  14.616  0.7381 -0.6140  1.2458
19856TIP3   OH281058   2.524   5.893  11.163 -0.1518 -0.2604  0.6106
19856TIP3    H181059   2.554   5.898  11.072 -0.3321 -0.0268  0.5634
19856TIP3    H281060   2.530   5.800  11.185  3.6262  0.0398  1.6286
19857TIP3   OH281061   0.849   4.546  14.305 -0.0241 -0.3207  0.0788
19857TIP3    H181062   0.901   4.558  14.226  0.6175 -0.3105  0.4933
19857TIP3    H281063   0.816   4.456  14.300  1.3563 -0.8821  0.5691
19858TIP3   OH281064   5.313   3.479   1.835  0.5013  0.6510 -0.2924
19858TIP3    H181065   5.392   3.440   1.872 -1.1937 -2.4163  0.4596
19858TIP3    H281066   5.260   3.501   1.911 -0.4876  0.0357 -0.7884
19859TIP3   OH281067   0.800   3.129   6.566 -0.0264 -0.1747  0.0287
19859TIP3    H181068   0.841   3.212   6.545  0.6587 -0.4114  0.3978
19859TIP3    H281069   0.724   3.152   6.619  0.7579  0.1738  1.0474
19860TIP3   OH281070   1.416   0.424   0.912  0.1794 -0.7252  0.0159
19860TIP3    H181071   1.455   0.512   0.914  0.2129 -0.7432  0.2288
19860TIP3    H281072   1.387   0.410   1.002  0.9452 -1.2805  0.1845
19861TIP3   OH281073   6.113   1.952  11.190 -0.3808  0.4747  0.4509
19861TIP3    H181074   6.051   1.912  11.251 -1.4154  1.8579  0.3584
19861TIP3    H281075   6.163   1.879  11.155 -0.9556 -0.5317  1.6384
19862TIP3   OH281076   5.148   1.495  14.139 -0.0471 -0.2818  0.1552
19862TIP3    H181077   5.165   1.514  14.232  0.2447 -0.7215  0.1960
19862TIP3    H281078   5.101   1.572  14.107 -0.7195 -0.4033  0.8303
19863TIP3   OH281079   4.741   0.485   6.096  0.0056 -0.1586  0.6227
19863TIP3    H181080   4.743   0.391   6.075 -0.0133  0.2291 -1.3778
19863TIP3    H281081   4.649   0.510   6.088  0.1397  0.2084  0.1328
19864TIP3   OH281082   5.839   6.007  10.814 -0.1657  0.0464 -0.0008
19864TIP3    H181083   5.899   5.938  10.786  0.1956  0.1389  0.5378
19864TIP3    H281084   5.883   6.089  10.791  0.9180  0.1897  2.2603
19865TIP3   OH281085   2.164   2.106   1.968 -0.1442  0.1168 -0.2683
19865TIP3    H181086   2.121   2.023   1.989 -1.0362  0.8335  0.8698
19865TIP3    H281087   2.094   2.161   1.932  0.8347 -0.2259 -2.8879
19866TIP3   OH281088   4.503   5.146   5.889  0.0646  0.1120 -0.5483
19866TIP3    H181089   4.500   5.072   5.828  0.2207  0.9598 -1.6040
19866TIP3    H281090   4.492   5.223   5.834  2.3556  1.0572  0.2034
19867TIP3   OH281091   5.596   0.498   3.427 -0.0176  0.0121 -0.1461
19867TIP3    H181092   5.601   0.584   3.385  2.5623 -0.2193 -0.4391
19867TIP3    H281093   5.562   0.440   3.358 -1.1719  0.6432 -0.1368
19868TIP3   OH281094   5.592   5.346  11.440  0.1785  0.0417  0.3776
19868TIP3    H181095   5.545   5.429  11.438  0.2010  0.0453 -0.1285
19868TIP3    H281096   5.664   5.361  11.501 -0.1752  0.1973  0.7603
19869TIP3   OH281097   4.510   1.558   5.277 -0.8105  0.1358  0.1679
19869TIP3    H181098   4.524   1.472   5.317 -0.1355  0.5508  0.8502
19869TIP3    H281099   4.552   1.620   5.337 -0.3435  0.8430 -0.8586
19870TIP3   OH281100   5.613   2.617   0.971 -0.0545 -0.6134  0.1501
19870TIP3    H181101   5.685   2.591   1.027  0.6816  0.2001 -0.4023
19870TIP3    H281102   5.602   2.543   0.911 -0.7842 -1.4452  1.2662
19871TIP3   OH281103   2.170   5.623   3.367  0.3505 -0.3824  0.2432
19871TIP3    H181104   2.107   5.562   3.329 -0.0325 -0.6670  1.2862
19871TIP3    H281105   2.142   5.632   3.458  0.2645  1.5360  0.0651
19872TIP3   OH281106   4.742   0.444  17.017 -0.1263  0.1236  0.2215
19872TIP3    H181107   4.799   0.516  17.045  0.2989 -0.6937  1.5452
19872TIP3    H281108   4.654   0.481  17.019 -0.0375  0.3288  1.9647
19873TIP3   OH281109   5.278   2.718   3.571 -0.0760  0.1649  0.1580
19873TIP3    H181110   5.201   2.678   3.531 -1.0949  1.8729  0.2903
19873TIP3    H281111   5.352   2.676   3.527 -1.0223 -2.0533  0.5562
19874TIP3   OH281112   2.618   2.388   3.561 -0.7109  0.2341 -0.2773
19874TIP3    H181113   2.547   2.401   3.498 -0.4609 -1.8176 -1.0312
19874TIP3    H281114   2.682   2.333   3.516  0.1916 -0.0616  1.2600
19875TIP3   OH281115   0.450   5.476  11.342  0.0869  0.4317 -1.0181
19875TIP3    H181116   0.470   5.564  11.374 -1.7533  0.0738  1.4411
19875TIP3    H281117   0.370   5.486  11.291 -2.6670 -0.1939  2.7731
19876TIP3   OH281118   0.955   0.029   4.249 -0.2287  0.0815  0.2991
19876TIP3    H181119   0.988   0.035   4.159 -0.1608 -0.6174  0.2680
19876TIP3    H281120   0.872  -0.019   4.240  0.3608 -1.0688  0.7200
19877TIP3   OH281121   5.094   5.412   0.156  0.0064 -0.3705  0.2184
19877TIP3    H181122   5.093   5.505   0.179  0.4521 -0.4091  0.4087
19877TIP3    H281123   5.112   5.411   0.062 -0.6659 -0.2479  0.0813
19878TIP3   OH281124   5.985   4.967   5.107  0.2748  0.3217 -0.4682
19878TIP3    H181125   5.966   4.888   5.055 -1.8905  0.3882  0.1361
19878TIP3    H281126   6.049   4.937   5.172  0.0854 -0.7453 -0.7409
19879TIP3   OH281127   5.722   4.195   3.279 -0.2464  0.5647  0.1315
19879TIP3    H181128   5.702   4.254   3.207 -0.3485 -0.6214 -0.8453
19879TIP3    H281129   5.818   4.187   3.277 -0.2998  0.0310 -0.2830
19880TIP3   OH281130   5.507   1.294   4.719  0.2287 -0.1895  0.3944
19880TIP3    H181131   5.593   1.318   4.685  1.0109 -1.2163  1.5711
19880TIP3    H281132   5.454   1.373   4.707  1.0153  0.1416 -1.2815
19881TIP3   OH281133   6.457   4.124  11.847 -0.0861 -0.1324 -0.5862
19881TIP3    H181134   6.539   4.078  11.867 -0.6038 -0.7070  0.3287
19881TIP3    H281135   6.435   4.169  11.929 -2.4526 -2.7945  0.4100
19882TIP3   OH281136   4.217   0.631  14.371  0.3013 -0.1427  0.4607
19882TIP3    H181137   4.193   0.669  14.456 -0.6332  0.6161 -0.1299
19882TIP3    H281138   4.265   0.551  14.394 -0.7463 -0.4553  1.7176
19883TIP3   OH281139   5.458   0.087   5.122 -0.4670  0.1982  0.1639
19883TIP3    H181140   5.420  -0.001   5.120  1.2574 -0.5786 -0.3463
19883TIP3    H281141   5.552   0.072   5.135 -0.0113  1.9269 -0.8529
19884TIP3   OH281142   1.480   5.845  15.340  0.7388 -0.3099 -0.1846
19884TIP3    H181143   1.428   5.852  15.420  0.2932  0.3251 -0.5150
19884TIP3    H281144   1.543   5.917  15.347 -0.7272  1.1916 -1.3899
19885TIP3   OH281145   6.559   5.807  13.396 -0.2657  0.7126  0.4056
19885TIP3    H181146   6.549   5.747  13.322  0.0580  2.2287 -0.9357
19885TIP3    H281147   6.560   5.750  13.473 -0.1180 -0.9771 -0.7766
19886TIP3   OH281148   4.333   0.891   1.846  0.0308  0.1526 -0.4008
19886TIP3    H181149   4.382   0.940   1.912 -0.7990 -1.1975  1.2663
19886TIP3    H281150   4.397   0.829   1.810  0.1385 -0.0089  0.0713
19887TIP3   OH281151   4.556   4.060  16.523  0.0304 -0.1036 -0.7826
19887TIP3    H181152   4.514   4.139  16.490 -0.0062 -0.3538 -1.3595
19887TIP3    H281153   4.646   4.086  16.540 -0.0401  0.1208 -0.7473
19888TIP3   OH281154   0.658   5.024  11.301 -0.6992 -0.3787 -0.2798
19888TIP3    H181155   0.629   5.053  11.388 -1.0992  0.1393 -0.5804
19888TIP3    H281156   0.657   4.929  11.306  0.2683 -0.3580  0.6101
19889TIP3   OH281157   4.916   5.015  11.959  0.2903 -0.7223 -0.2956
19889TIP3    H181158   4.961   4.940  11.999 -1.0969 -0.3155  2.2642
19889TIP3    H281159   4.931   5.087  12.021 -2.0986 -0.0707 -0.4098
19890TIP3   OH281160   4.857   5.059   4.149 -0.2604 -0.0394  0.2142
19890TIP3    H181161   4.799   5.001   4.099 -0.7798  0.1459  0.5841
19890TIP3    H281162   4.835   5.147   4.119  1.5005 -0.0653 -1.3628
19891TIP3   OH281163   4.933   2.707  13.529  0.3671  0.2029 -0.2812
19891TIP3    H181164   4.933   2.727  13.436  0.7810 -0.0556 -0.3375
19891TIP3    H281165   4.977   2.781  13.570 -0.0735  0.4566 -0.2561
19892TIP3   OH281166   4.355   2.360  11.830  0.4337 -0.1827  1.0107
19892TIP3    H181167   4.425   2.376  11.766  0.5917  0.9030  1.4513
19892TIP3    H281168   4.274   2.375  11.781  0.5123 -0.6540  0.7211
19893TIP3   OH281169   3.102   4.085   1.867  0.2526 -0.7877  0.4694
19893TIP3    H181170   3.077   4.155   1.928  0.9414  0.1580 -0.3030
19893TIP3    H281171   3.194   4.068   1.888  0.0334 -1.6297  0.7941
19894TIP3   OH281172   6.367   6.737  11.973 -0.1091 -0.5066  0.7502
19894TIP3    H181173   6.409   6.741  12.059 -0.3593 -1.1808  0.9079
19894TIP3    H281174   6.312   6.659  11.976  0.5126 -1.0088 -0.3170
19895TIP3   OH281175   0.243   4.066   4.588  0.1131  0.5151 -0.0646
19895TIP3    H181176   0.299   4.078   4.665  0.0911  1.1401 -0.1421
19895TIP3    H281177   0.195   4.148   4.580  2.0416  1.5307 -2.2868
19896TIP3   OH281178   5.860   6.360   6.146  0.1439 -0.2160  0.4538
19896TIP3    H181179   5.832   6.356   6.054  1.1997  0.3359  0.0903
19896TIP3    H281180   5.778   6.356   6.196 -0.4086 -1.2306 -0.4782
19897TIP3   OH281181   0.160   6.757   3.637 -0.5633  0.2994 -0.1913
19897TIP3    H181182   0.065   6.771   3.631 -0.4077  2.4324  1.3174
19897TIP3    H281183   0.193   6.836   3.678  1.6240 -1.3508  1.4355
19898TIP3   OH281184   4.652   4.113   4.185 -0.1076  0.2939 -0.1930
19898TIP3    H181185   4.654   4.197   4.232  0.3451  0.2288 -0.1007
19898TIP3    H281186   4.694   4.051   4.244 -1.0807 -0.1617  0.0437
19899TIP3   OH281187   4.464   0.704  13.613  0.6605  0.9222  0.2907
19899TIP3    H181188   4.372   0.728  13.608  0.6960  0.8049 -2.3350
19899TIP3    H281189   4.511   0.784  13.589  1.0257  0.1352 -1.9091
19900TIP3   OH281190   2.781   5.040  14.976  0.3524 -0.5979  0.1422
19900TIP3    H181191   2.734   5.068  15.055 -2.3738  1.0840 -1.9195
19900TIP3    H281192   2.845   5.110  14.961  0.7705 -0.8439  0.7037
19901TIP3   OH281193   0.180   4.839  16.669 -0.3483  0.1327 -0.4614
19901TIP3    H181194   0.142   4.915  16.712 -0.0191  0.1534 -0.2018
19901TIP3    H281195   0.229   4.875  16.594 -0.6900  0.1218 -0.6908
19902TIP3   OH281196   2.758   2.556   1.294 -0.4409 -0.2255 -0.1429
19902TIP3    H181197   2.687   2.606   1.254 -1.1219  0.1573  1.4804
19902TIP3    H281198   2.784   2.607   1.370 -1.1548 -2.3086  1.5792
19903TIP3   OH281199   4.220   5.808   3.402 -0.3749  0.0907 -1.0975
19903TIP3    H181200   4.254   5.725   3.367 -0.7409  0.2377 -1.8121
19903TIP3    H281201   4.298   5.855   3.430 -0.1999 -0.7152 -0.1850
19904TIP3   OH281202   4.234   6.322   3.010  0.0288 -0.2911 -0.2688
19904TIP3    H181203   4.288   6.397   2.985  0.7466 -0.2480  1.2439
19904TIP3    H281204   4.159   6.360   3.055  1.3688 -0.4280  2.3187
19905TIP3   OH281205   4.069   4.926   0.814 -0.4083 -0.4301  0.0230
19905TIP3    H181206   4.035   4.964   0.733 -0.6494  0.4671  0.5402
19905TIP3    H281207   4.034   4.981   0.884  2.2239  0.6934  0.5941
19906TIP3   OH281208   3.767   3.139  12.033  0.5290 -0.0559 -0.1461
19906TIP3    H181209   3.765   3.113  12.125  2.4054  2.5541  0.7789
19906TIP3    H281210   3.737   3.230  12.033  2.9994  0.8804 -1.6255
19907TIP3   OH281211   2.018   2.911   2.820 -0.2094  0.1417 -0.3983
19907TIP3    H181212   2.070   2.957   2.886 -1.0954  1.5919 -0.6726
19907TIP3    H281213   2.071   2.916   2.740  0.1398 -0.1830 -0.1867
19908TIP3   OH281214   6.673   3.495  11.786  0.5626  0.1627 -0.2983
19908TIP3    H181215   6.642   3.497  11.695  1.4794  0.8692 -0.6176
19908TIP3    H281216   6.593   3.491  11.838  0.0314 -0.6249 -1.1368
19909TIP3   OH281217   2.066   4.238  13.206  0.1164 -0.2458  0.0569
19909TIP3    H181218   2.121   4.189  13.145 -0.6779 -0.9430 -0.1153
19909TIP3    H281219   2.052   4.178  13.279  1.4458  0.7373  1.1906
19910TIP3   OH281220   5.134   0.233  15.448  0.0763 -0.5098 -0.0966
19910TIP3    H181221   5.144   0.226  15.543  2.0603 -1.2025 -0.3019
19910TIP3    H281222   5.122   0.142  15.419  1.2054 -0.5071 -0.6301
19911TIP3   OH281223   5.687   6.575  12.597 -0.2489 -0.0812 -0.0100
19911TIP3    H181224   5.611   6.519  12.614  0.2999 -1.4044 -1.5255
19911TIP3    H281225   5.726   6.591  12.683 -1.8849  0.1204  0.7225
19912TIP3   OH281226   0.548   1.565   0.610 -0.0027 -0.6333  0.3226
19912TIP3    H181227   0.558   1.624   0.535  0.1631 -1.6296 -0.4542
19912TIP3    H281228   0.522   1.623   0.682  1.1525  0.5306 -0.1574
19913TIP3   OH281229   5.113   4.929   4.566  0.2196  0.0771 -0.1332
19913TIP3    H181230   5.025   4.907   4.535 -0.4715  0.5962  1.3166
19913TIP3    H281231   5.149   4.986   4.499 -0.4530 -0.3529 -0.8799
19914TIP3   OH281232   1.522   0.282   5.370  0.2047  0.0143 -0.2407
19914TIP3    H181233   1.452   0.237   5.323  0.6639  0.9287 -1.8863
19914TIP3    H281234   1.570   0.212   5.415 -0.9736 -0.7537 -0.1502
19915TIP3   OH281235   6.077   2.339  15.839  0.5257  0.2012  0.2676
19915TIP3    H181236   5.992   2.315  15.875  0.9047  1.0212  1.8040
19915TIP3    H281237   6.106   2.260  15.793  0.7108 -1.6062  3.1697
19916TIP3   OH281238   6.488   3.009  15.127  0.2988 -0.2260  0.0380
19916TIP3    H181239   6.476   2.917  15.101  1.2439 -0.4667  0.4020
19916TIP3    H281240   6.533   3.004  15.212 -1.0536  0.5611  0.8386
19917TIP3   OH281241   3.691   1.561  11.673 -0.3177 -0.3371 -0.2618
19917TIP3    H181242   3.665   1.577  11.764  2.7035  0.6585  0.5490
19917TIP3    H281243   3.698   1.648  11.635  2.5408 -0.3956 -0.0908
19918TIP3   OH281244   1.483   4.993   1.176  0.4570  0.2417  0.2766
19918TIP3    H181245   1.484   5.029   1.087 -0.9715 -2.9000 -1.1857
19918TIP3    H281246   1.390   4.985   1.197  0.7765  0.0222  1.6644
19919TIP3   OH281247   5.300   2.978  15.609 -0.1912  0.6929 -0.1584
19919TIP3    H181248   5.257   2.983  15.695 -0.2793 -0.1769 -0.1477
19919TIP3    H281249   5.361   2.905  15.617 -0.3754  0.4554 -0.9209
19920TIP3   OH281250   5.142   1.499   2.282 -0.0232  0.0567  0.0876
19920TIP3    H181251   5.105   1.425   2.331  1.2056 -0.0002  0.9887
19920TIP3    H281252   5.156   1.465   2.194 -1.5145 -0.0933 -0.1216
19921TIP3   OH281253   6.161   1.933   5.308 -0.0599 -0.1269 -0.9441
19921TIP3    H181254   6.147   2.024   5.280  0.2070 -0.3093 -1.7164
19921TIP3    H281255   6.167   1.884   5.226 -0.7337 -0.9273 -0.5312
19922TIP3   OH281256   2.140   5.627  11.794  0.4892  0.5735 -0.3648
19922TIP3    H181257   2.118   5.587  11.710 -0.0935  1.5271 -0.6857
19922TIP3    H281258   2.236   5.619  11.799  0.7159  1.8385 -1.8513
19923TIP3   OH281259   4.165   1.679  11.276 -0.3553 -0.1466  0.0432
19923TIP3    H181260   4.163   1.712  11.186  1.6185 -0.9902 -0.3739
19923TIP3    H281261   4.233   1.732  11.319  0.7512 -1.6162  0.1905
19924TIP3   OH281262   6.641   6.552  16.275  0.3319  0.5837 -0.1877
19924TIP3    H181263   6.629   6.502  16.356 -1.1253 -1.3831 -1.5379
19924TIP3    H281264   6.728   6.529  16.245 -0.7306 -2.2937 -1.4144
19925TIP3   OH281265   1.844   1.131   3.693  0.2236  0.5345  0.2260
19925TIP3    H181266   1.757   1.117   3.656  1.0448  0.8813 -1.9916
19925TIP3    H281267   1.850   1.226   3.705  1.0632  0.7779 -1.7948
19926TIP3   OH281268   2.928   2.549  10.903  0.7030  0.7046  0.3763
19926TIP3    H181269   2.990   2.499  10.850  0.7771  2.0557 -0.8462
19926TIP3    H281270   2.891   2.614  10.843 -2.0517 -0.1454  0.9990
19927TIP3   OH281271   0.137   3.061   3.731 -0.1972  0.4089 -0.0620
19927TIP3    H181272   0.211   3.078   3.788 -0.1536 -0.1328  0.0506
19927TIP3    H281273   0.079   3.004   3.783 -0.8921  1.1604  0.0095
19928TIP3   OH281274   6.081   0.409   3.673  0.5845  0.1025  0.7419
19928TIP3    H181275   6.139   0.485   3.672 -0.4274  0.8768  0.5688
19928TIP3    H281276   6.017   0.425   3.604 -0.8398  0.0487  2.0061
19929TIP3   OH281277   1.547   5.591  15.505 -0.1653 -0.1574 -0.1896
19929TIP3    H181278   1.587   5.505  15.491 -1.7430 -0.9578 -0.0441
19929TIP3    H281279   1.588   5.648  15.440  1.1741 -0.9185 -0.0437
19930TIP3   OH281280   5.066   3.510   5.025  0.6668  0.4305  0.6907
19930TIP3    H181281   5.137   3.459   5.065  0.3907 -0.8784 -0.4135
19930TIP3    H281282   4.986   3.470   5.059  0.4100 -1.0973 -1.5101
19931TIP3   OH281283   3.366   2.150  15.309  0.0161 -0.1939 -0.1528
19931TIP3    H181284   3.436   2.142  15.245  0.6700 -0.3102  0.5555
19931TIP3    H281285   3.298   2.090  15.279 -0.0192  0.3320 -1.1498
19932TIP3   OH281286   6.499   5.532   2.260 -0.3786 -0.6418  0.0343
19932TIP3    H181287   6.408   5.507   2.245  0.2683 -1.9251 -2.2525
19932TIP3    H281288   6.513   5.607   2.202  0.5068 -1.6429 -1.0681
19933TIP3   OH281289   0.570   0.552  13.962  0.4654 -0.2832 -0.2341
19933TIP3    H181290   0.557   0.589  13.875  0.0525  1.3310  0.4855
19933TIP3    H281291   0.665   0.546  13.972  0.5133 -0.3948 -0.7575
19934TIP3   OH281292   2.053   3.431  14.579 -0.1151  0.4522  0.0022
19934TIP3    H181293   2.134   3.380  14.577 -0.5919 -0.2934 -0.6255
19934TIP3    H281294   1.989   3.374  14.621 -0.5811  0.6240 -0.4578
19935TIP3   OH281295   1.367   4.188  15.829 -0.0147 -0.4807 -0.2550
19935TIP3    H181296   1.418   4.200  15.748 -0.2302 -1.0704 -0.4812
19935TIP3    H281297   1.417   4.234  15.896 -0.1910  0.6068 -0.8579
19936TIP3   OH281298   2.323   2.406   1.709 -0.3819 -0.2247  0.4917
19936TIP3    H181299   2.356   2.469   1.644 -0.8114  1.2030  1.6125
19936TIP3    H281300   2.326   2.322   1.663  0.2186  0.5867 -1.0606
19937TIP3   OH281301   0.304   2.143  16.451  0.3745  0.1879 -0.2324
19937TIP3    H181302   0.259   2.103  16.525 -0.9530 -0.6767 -1.4457
19937TIP3    H281303   0.240   2.204  16.414  0.7363  0.0496 -1.1107
19938TIP3   OH281304   5.077   4.484   0.271 -0.6050 -0.4710 -0.7494
19938TIP3    H181305   5.132   4.544   0.221 -0.6863  1.7836  1.6466
19938TIP3    H281306   4.993   4.528   0.276 -0.2775 -0.0150  2.2277
19939TIP3   OH281307   4.315   4.082  11.825 -0.2221 -0.7557  0.2014
19939TIP3    H181308   4.313   4.168  11.782 -0.1244 -0.6746  0.3581
19939TIP3    H281309   4.232   4.041  11.801 -0.5376 -0.3732  0.6278
19940TIP3   OH281310   6.640   2.545   1.879  0.7289  0.0054 -0.2012
19940TIP3    H181311   6.655   2.587   1.794 -0.0330 -1.6646 -1.2174
19940TIP3    H281312   6.597   2.462   1.857 -0.2407 -0.0967  1.8795
19941TIP3   OH281313   3.674   5.008   5.873  0.7260 -0.2698  0.3195
19941TIP3    H181314   3.608   4.997   5.941  0.5130  0.1769  0.1861
19941TIP3    H281315   3.671   5.101   5.851 -0.1067 -0.6341 -1.2156
19942TIP3   OH281316   5.901   2.283   0.827 -0.2551  0.2509 -0.2412
19942TIP3    H181317   5.827   2.311   0.882 -1.4531 -0.8645 -1.2118
19942TIP3    H281318   5.921   2.360   0.774  0.1781  0.9814  0.9235
19943TIP3   OH281319   2.477   6.261   5.062  0.2401 -0.0137  0.5409
19943TIP3    H181320   2.400   6.254   5.118  0.1745  1.5906  0.7070
19943TIP3    H281321   2.524   6.337   5.097 -0.0958  1.4021 -1.8991
19944TIP3   OH281322   0.796   1.118   2.294 -0.5874 -0.1788 -0.2386
19944TIP3    H181323   0.762   1.127   2.205 -0.0361 -0.9065 -0.5340
19944TIP3    H281324   0.728   1.068   2.341 -0.9437  0.3301 -0.2059
19945TIP3   OH281325   1.898   5.387  16.274  0.8626 -0.5701 -0.2232
19945TIP3    H181326   1.813   5.398  16.232  0.5420  1.6174  0.8378
19945TIP3    H281327   1.961   5.417  16.209  0.6731 -0.6729 -0.4556
19946TIP3   OH281328   1.064   5.262   3.516 -0.6263  0.1812  0.2160
19946TIP3    H181329   1.062   5.349   3.476 -4.5027  0.4674  0.5747
19946TIP3    H281330   0.999   5.212   3.467  0.8236 -2.2705  0.6440
19947TIP3   OH281331   5.170   6.661   4.350  0.0458 -0.2584  0.2498
19947TIP3    H181332   5.221   6.662   4.269 -0.1197  0.0295  0.1510
19947TIP3    H281333   5.134   6.572   4.354 -0.4387 -0.0906 -0.2961
19948TIP3   OH281334   6.259   1.048   3.823  0.3473 -0.1894  0.1026
19948TIP3    H181335   6.252   1.113   3.893  0.9564 -0.2624  0.2380
19948TIP3    H281336   6.335   1.076   3.772 -1.7294  1.5380 -2.2952
19949TIP3   OH281337   3.650   6.622   4.759  0.1572  0.0394 -1.1554
19949TIP3    H181338   3.611   6.706   4.736  1.2019  0.2850 -2.1393
19949TIP3    H281339   3.736   6.623   4.716  0.5757 -1.1421 -0.3988
19950TIP3   OH281340   2.842   0.276   2.930  0.4694 -0.8238  0.2902
19950TIP3    H181341   2.765   0.224   2.910  0.4215 -0.7881  0.3783
19950TIP3    H281342   2.814   0.367   2.917  0.6254 -0.8306 -0.1055
19951TIP3   OH281343   1.850   6.578   5.327 -0.7851  0.0768  0.4933
19951TIP3    H181344   1.810   6.664   5.341 -2.9683 -0.8418  0.3267
19951TIP3    H281345   1.847   6.566   5.232 -0.6847 -0.2760  0.5354
19952TIP3   OH281346   1.600   0.894  12.891 -0.0676 -0.7378  0.4373
19952TIP3    H181347   1.622   0.878  12.982  1.3879 -0.3419  0.1785
19952TIP3    H281348   1.615   0.811  12.847  0.1563 -0.6756  0.3956
19953TIP3   OH281349   4.254   1.109  10.912 -0.3877  0.2920 -0.5011
19953TIP3    H181350   4.338   1.073  10.882 -0.9515  0.1076 -1.9345
19953TIP3    H281351   4.192   1.036  10.903 -0.8060  0.5681  0.0708
19954TIP3   OH281352   0.474   0.962   4.541  0.0685 -0.3671  0.2794
19954TIP3    H181353   0.398   1.019   4.536 -0.5380 -1.2139 -0.7205
19954TIP3    H281354   0.548   1.021   4.557 -0.8510  0.4074  1.9475
19955TIP3   OH281355   5.658   3.026   3.311 -0.8686  0.0490 -0.1232
19955TIP3    H181356   5.748   3.046   3.286 -0.4677 -1.9668 -0.4466
19955TIP3    H281357   5.614   3.111   3.311  0.4645  0.8214 -2.1951
19956TIP3   OH281358   6.650   2.555  12.542 -0.3380 -0.2264  0.6002
19956TIP3    H181359   6.562   2.590  12.531 -0.7423 -1.5461 -0.6966
19956TIP3    H281360   6.677   2.528  12.454  1.2605 -0.0949  1.0154
19957TIP3   OH281361   0.502   4.704   2.367 -0.1360 -0.0384 -0.3623
19957TIP3    H181362   0.592   4.677   2.351  0.1142  0.2851  0.4383
19957TIP3    H281363   0.480   4.663   2.450  0.5268  2.7575  1.3303
19958TIP3   OH281364   5.672   1.562  12.896 -0.3434 -0.1165  0.7177
19958TIP3    H181365   5.747   1.615  12.870  0.0053  0.5005  2.8312
19958TIP3    H281366   5.600   1.596  12.844  0.5884  0.0507 -0.5072
19959TIP3   OH281367   0.791   6.416  14.217 -0.1710  0.2303  0.4082
19959TIP3    H181368   0.801   6.484  14.284 -0.6173  1.3160 -0.5945
19959TIP3    H281369   0.848   6.344  14.247  1.7335  1.7320  0.5853
19960TIP3   OH281370   2.272   4.154   0.564  0.4833  0.0221 -0.4206
19960TIP3    H181371   2.211   4.228   0.567  1.4797  0.9277 -1.4118
19960TIP3    H281372   2.267   4.115   0.651  0.7849  1.9805  0.5366
19961TIP3   OH281373   1.003   1.180   0.144 -0.2589  0.8396  0.2304
19961TIP3    H181374   0.954   1.228   0.210 -0.5236  1.5873 -0.4869
19961TIP3    H281375   0.964   1.207   0.061 -1.2244 -1.5144 -0.1715
19962TIP3   OH281376   4.451   5.437  15.876 -0.1583 -0.2572 -0.3279
19962TIP3    H181377   4.441   5.361  15.819 -2.4191  1.1076 -1.9459
19962TIP3    H281378   4.514   5.493  15.830 -0.2397 -0.1571 -0.3164
19963TIP3   OH281379   5.620   0.675  14.582  0.7472  0.4291 -0.4561
19963TIP3    H181380   5.708   0.640  14.569 -0.1689 -2.0006 -0.7339
19963TIP3    H281381   5.601   0.660  14.674  0.4412  0.4253 -0.5152
19964TIP3   OH281382   0.475   4.722   0.514  0.5448  0.0166 -0.5940
19964TIP3    H181383   0.434   4.659   0.573  1.5870 -0.7354 -0.6489
19964TIP3    H281384   0.492   4.799   0.568 -0.5096  0.1645 -0.4663
19965TIP3   OH281385   2.344   0.328  13.912  0.4308  0.4252  0.0721
19965TIP3    H181386   2.309   0.287  13.833  2.0315 -1.3154  0.2074
19965TIP3    H281387   2.317   0.420  13.904  0.4443  0.2964 -2.4484
19966TIP3   OH281388   5.592   6.306   5.283  0.6487 -0.6235 -0.6839
19966TIP3    H181389   5.519   6.287   5.342  2.1686 -2.1009  0.8434
19966TIP3    H281390   5.629   6.220   5.262  2.5269  0.1281 -0.6194
19967TIP3   OH281391   3.086   4.913   5.474 -0.2499  0.4780  0.2861
19967TIP3    H181392   3.071   4.874   5.388 -1.8822 -1.5851  1.4306
19967TIP3    H281393   3.171   4.879   5.501  0.7860  1.9848 -0.8756
19968TIP3   OH281394   2.835   3.047  10.919  0.6042  0.3732 -0.1392
19968TIP3    H181395   2.833   3.019  10.827 -0.8890  2.2581 -0.7547
19968TIP3    H281396   2.768   2.994  10.962 -1.6530  2.2133 -1.1233
19969TIP3   OH281397   4.423   1.754  14.558 -0.0426  0.0324 -0.1639
19969TIP3    H181398   4.501   1.793  14.597  0.4600  1.9092 -2.7670
19969TIP3    H281399   4.370   1.828  14.531 -0.7699 -1.1383 -2.1437
19970TIP3   OH281400   4.404   2.301   2.955  0.3763 -0.2913  0.0422
19970TIP3    H181401   4.420   2.391   2.927  0.0003  0.1840  1.2842
19970TIP3    H281402   4.428   2.301   3.048 -0.5949 -1.2113  0.3065
19971TIP3   OH281403   0.079   6.504   3.213  0.0823 -0.0778  0.3921
19971TIP3    H181404   0.126   6.579   3.178  0.9619 -0.6087  0.3942
19971TIP3    H281405  -0.011   6.514   3.181  0.2327  0.8558  0.2326
19972TIP3   OH281406   1.817   1.794   3.048 -0.5044 -0.2294  0.1180
19972TIP3    H181407   1.738   1.809   2.996  0.2279 -0.0361 -0.9661
19972TIP3    H281408   1.889   1.817   2.989  0.3403  0.4867  1.3779
19973TIP3   OH281409   3.633   2.459  14.677 -0.2173 -0.0448 -0.3025
19973TIP3    H181410   3.659   2.387  14.619 -1.7735 -2.1070  1.3911
19973TIP3    H281411   3.700   2.459  14.745  0.1072  0.5615 -0.6090
19974TIP3   OH281412   2.951   6.388   2.605 -0.0427 -0.3872 -0.6939
19974TIP3    H181413   3.031   6.427   2.640 -1.0565  2.0505 -0.8695
19974TIP3    H281414   2.974   6.297   2.586  2.3552 -0.0324  0.2270
19975TIP3   OH281415   0.106   1.430  17.071 -0.2597 -0.5363 -0.2816
19975TIP3    H181416   0.138   1.482  17.145 -1.2167 -0.3499  0.0245
19975TIP3    H281417   0.175   1.435  17.005  0.8487 -1.1442  0.7967
19976TIP3   OH281418   1.286   4.299  11.615  0.5120  0.2814  0.0575
19976TIP3    H181419   1.332   4.222  11.582 -0.3054 -0.2345  0.0952
19976TIP3    H281420   1.339   4.329  11.689  1.7331  0.7611 -0.9699
19977TIP3   OH281421   3.403   3.927   5.391  0.2009 -0.1774 -0.3479
19977TIP3    H181422   3.471   3.863   5.414  0.7479  0.0899 -1.1843
19977TIP3    H281423   3.342   3.878   5.336  0.7678  0.0701 -1.2211
19978TIP3   OH281424   3.903   0.940   4.588  0.4268 -0.0726  0.0612
19978TIP3    H181425   3.846   1.011   4.558  1.1306  0.9276  1.0108
19978TIP3    H281426   3.842   0.872   4.617 -0.2595  0.1417 -0.8245
19979TIP3   OH281427   0.748   0.341   5.376  0.4220  0.1366  0.2997
19979TIP3    H181428   0.750   0.341   5.280  0.6784 -1.5741  0.2744
19979TIP3    H281429   0.668   0.388   5.399 -2.3309 -3.5441 -0.9158
19980TIP3   OH281430   1.345   4.850  15.720 -0.4006  0.6132 -0.1159
19980TIP3    H181431   1.409   4.919  15.739 -0.4638  0.3899  0.9425
19980TIP3    H281432   1.383   4.771  15.758 -1.0687  0.3786  0.0761
19981TIP3   OH281433   3.165   6.791  14.444  0.1962  0.1847 -0.1894
19981TIP3    H181434   3.084   6.814  14.399 -0.2643 -2.7748 -1.0674
19981TIP3    H281435   3.234   6.818  14.384 -0.1113  1.9393  0.1877
19982TIP3   OH281436   0.029   5.887   2.940  0.1705 -0.2370  0.3961
19982TIP3    H181437  -0.039   5.829   2.906  0.9211 -1.3596  0.7319
19982TIP3    H281438   0.108   5.833   2.941  0.9947  0.9193  0.3628
19983TIP3   OH281439   1.522   5.987   3.933  0.0170  0.1291 -0.5475
19983TIP3    H181440   1.539   5.909   3.986  1.6679 -0.3588 -1.7363
19983TIP3    H281441   1.499   5.953   3.847 -0.9213  0.9433 -0.6333
19984TIP3   OH281442   5.781   5.835  15.237 -0.1553  0.0855  0.5605
19984TIP3    H181443   5.858   5.883  15.205 -0.4842  0.2187 -0.0467
19984TIP3    H281444   5.725   5.903  15.276 -1.4729  0.5500 -1.9231
19985TIP3   OH281445   3.852   3.003  11.019  0.1636 -0.5078 -0.4731
19985TIP3    H181446   3.903   3.064  10.966 -0.5238 -0.7377 -1.4291
19985TIP3    H281447   3.911   2.928  11.033  0.7633  0.0578  0.1196
19986TIP3   OH281448   3.557   1.861   4.009  0.5587  0.5263 -0.5056
19986TIP3    H181449   3.598   1.926   3.951 -0.5773  0.8935 -0.9271
19986TIP3    H281450   3.476   1.837   3.964 -0.3631  0.8256  0.9408
19987TIP3   OH281451   2.092   6.245   0.478 -0.0631 -0.0970 -0.2368
19987TIP3    H181452   2.184   6.247   0.452 -0.4811 -0.9583 -1.9628
19987TIP3    H281453   2.044   6.241   0.395 -1.6590  0.1789  0.6289
19988TIP3   OH281454   0.704   2.698  13.171  0.4497  0.0962 -0.2090
19988TIP3    H181455   0.652   2.743  13.105  0.8617  0.9741  0.0405
19988TIP3    H281456   0.773   2.761  13.194  1.3683 -0.8760 -0.2410
19989TIP3   OH281457   6.005   4.224  11.873  0.6268  0.2257  0.1675
19989TIP3    H181458   5.926   4.195  11.827 -0.1823  1.1636  0.9259
19989TIP3    H281459   6.026   4.309  11.833  1.3739 -0.0934 -0.1500
19990TIP3   OH281460   1.667   5.778  16.575  0.1928 -0.5271  0.3440
19990TIP3    H181461   1.714   5.696  16.594  0.9418 -0.0766  0.4716
19990TIP3    H281462   1.658   5.820  16.660 -0.9869 -0.8750  0.4120
19991TIP3   OH281463   0.805   0.307   1.128 -0.2401 -0.4240  0.6920
19991TIP3    H181464   0.723   0.355   1.114  0.7181  1.1504  0.2678
19991TIP3    H281465   0.777   0.218   1.150 -2.0946  0.3904  1.8604
19992TIP3   OH281466   0.017   3.535  11.365  0.2663  0.5424  0.2866
19992TIP3    H181467   0.105   3.570  11.349  0.6971 -0.1308  1.1036
19992TIP3    H281468   0.015   3.452  11.318  0.5835 -0.1294  1.4276
19993TIP3   OH281469   4.422   5.974   4.137  0.3063  0.0917  0.2413
19993TIP3    H181470   4.423   5.910   4.207  1.3198 -0.3272 -0.1432
19993TIP3    H281471   4.415   5.923   4.056  0.0385  0.5185 -0.0142
19994TIP3   OH281472   6.700   6.062  12.861 -0.3476 -0.4723 -0.4174
19994TIP3    H181473   6.652   6.109  12.793  0.2667  0.8661  0.0269
19994TIP3    H281474   6.647   6.074  12.940  0.1297  0.0521 -0.1649
19995TIP3   OH281475   4.724   3.023   4.851  0.3920 -0.4406 -0.3369
19995TIP3    H181476   4.753   3.056   4.766 -0.1807  0.8394 -0.0585
19995TIP3    H281477   4.635   2.990   4.834  0.4698 -0.6525 -0.3363
19996TIP3   OH281478   4.873   6.370   5.875 -0.6400 -0.2308 -0.3610
19996TIP3    H181479   4.789   6.413   5.862 -0.1449  0.3793 -1.7336
19996TIP3    H281480   4.855   6.300   5.938 -1.9495  0.5043  0.1189
19997TIP3   OH281481   6.644   4.593  16.444 -0.5124 -0.2685  0.2960
19997TIP3    H181482   6.687   4.594  16.529  1.3715  0.1375 -0.6176
19997TIP3    H281483   6.695   4.532  16.391 -0.4944  0.8755 -1.0931
19998TIP3   OH281484   0.362   1.663   2.232  0.1539  0.5533 -0.0266
19998TIP3    H181485   0.348   1.569   2.244  1.2796  0.2894 -0.6963
19998TIP3    H281486   0.391   1.672   2.142  0.7536  1.4620  0.2403
19999TIP3   OH281487   2.351   4.083  13.966 -0.1089 -0.2113  0.7488
19999TIP3    H181488   2.411   4.060  14.037  0.1937 -1.5396  0.0996
19999TIP3    H281489   2.408   4.089  13.888 -0.8970 -2.3834 -0.0508
20000TIP3   OH281490   4.458   4.822  12.125  0.5598  0.6932 -0.9314
20000TIP3    H181491   4.530   4.862  12.077  0.7453  2.2243  0.5197
20000TIP3    H281492   4.391   4.891  12.129  0.5672  0.6404  0.9619
20001TIP3   OH281493   2.228   5.558  14.473  0.3529 -0.7189  0.5170
20001TIP3    H181494   2.143   5.540  14.432  1.0180 -3.2915  0.1375
20001TIP3    H281495   2.213   5.545  14.567  0.1572 -0.3394  0.5432
20002TIP3   OH281496   4.491   5.279   3.196  0.2925 -0.0192  0.2941
20002TIP3    H181497   4.451   5.338   3.259  0.9582 -0.5516  1.2469
20002TIP3    H281498   4.584   5.277   3.220  0.5130 -0.4485 -0.5345
20003TIP3   OH281499   2.692   1.691   2.217 -0.1496 -0.0620 -0.1622
20003TIP3    H181500   2.695   1.777   2.174 -0.9467  0.7056  1.2624
20003TIP3    H281501   2.600   1.667   2.216 -0.0379 -0.5185  0.2018
20004TIP3   OH281502   3.955   5.199  15.151  0.2026 -0.1926  0.3809
20004TIP3    H181503   4.006   5.257  15.094 -1.0954  0.4893 -0.1206
20004TIP3    H281504   3.993   5.212  15.238 -0.6952  2.2693  0.5064
20005TIP3   OH281505   1.180   2.862  14.264  0.0039  0.3779  0.0554
20005TIP3    H181506   1.272   2.839  14.246  1.0047  0.1862  4.2641
20005TIP3    H281507   1.178   2.957  14.260  0.8011  0.4678  1.2749
20006TIP3   OH281508   1.178   1.953   6.124  0.3964  0.2519  0.2880
20006TIP3    H181509   1.206   1.862   6.113 -1.1778 -0.3441  0.8812
20006TIP3    H281510   1.221   1.982   6.204  0.1558 -0.2885  0.6177
20007TIP3   OH281511   1.520   3.356  13.615 -0.4909 -0.8822  1.0349
20007TIP3    H181512   1.480   3.296  13.552  1.6695 -1.0814 -0.2744
20007TIP3    H281513   1.449   3.415  13.641 -1.9489 -2.1086  0.0167
20008TIP3   OH281514   3.846   0.966   0.863  0.6072 -0.1176 -0.6361
20008TIP3    H181515   3.884   0.919   0.789  1.2602 -1.2192  0.3432
20008TIP3    H281516   3.823   0.896   0.925 -0.6339  0.7192 -0.1244
20009TIP3   OH281517   1.345   0.057  11.140  0.0298  0.0035 -0.4001
20009TIP3    H181518   1.389   0.024  11.219  1.6364 -0.4844 -1.4624
20009TIP3    H281519   1.405   0.037  11.069 -1.9440 -0.7045 -1.9562
20010TIP3   OH281520   3.222   3.531  15.045 -0.1228  0.0918  0.1790
20010TIP3    H181521   3.257   3.608  15.089  1.2175  0.7097 -1.8663
20010TIP3    H281522   3.159   3.566  14.982  1.8024 -0.2239 -2.0446
20011TIP3   OH281523   3.756   2.087   1.703  0.2754 -0.2465  0.4400
20011TIP3    H181524   3.836   2.055   1.745  0.4301  1.2012  1.3207
20011TIP3    H281525   3.721   2.151   1.765 -1.1293 -0.2614 -0.3118
20012TIP3   OH281526   0.925   4.855  15.953  0.1680  0.1286  0.0340
20012TIP3    H181527   0.999   4.887  15.902  0.0069  0.1382 -0.1973
20012TIP3    H281528   0.958   4.849  16.042  0.3581  0.4268 -0.0138
20013TIP3   OH281529   0.639   0.595   5.105 -0.6359 -0.6394 -0.1826
20013TIP3    H181530   0.624   0.571   5.014 -0.1961 -2.7551  0.2411
20013TIP3    H281531   0.728   0.563   5.124 -0.4649  0.3552  0.8118
20014TIP3   OH281532   2.923   4.100  12.943 -0.4216 -0.1300  0.0298
20014TIP3    H181533   2.853   4.100  13.009  1.0280  0.1161  1.6438
20014TIP3    H281534   2.938   4.008  12.925 -1.9721 -0.1723 -1.2959
20015TIP3   OH281535   4.959   5.256   2.295 -0.0738 -0.0822 -0.0038
20015TIP3    H181536   5.005   5.340   2.294  0.9165 -0.6014 -0.1263
20015TIP3    H281537   4.880   5.271   2.243 -0.3743  1.0054  0.7232
20016TIP3   OH281538   5.546   3.741  10.316 -0.0415  0.0523  0.2451
20016TIP3    H181539   5.631   3.748  10.359  0.5438  1.2644 -1.0160
20016TIP3    H281540   5.491   3.804  10.363  0.3078  0.6399 -0.1204
20017TIP3   OH281541   4.242   1.294   6.252 -0.5813 -0.1112 -0.8793
20017TIP3    H181542   4.328   1.307   6.210 -0.4186  0.5650 -0.3555
20017TIP3    H281543   4.231   1.199   6.255 -0.1865 -0.1906 -1.6297
20018TIP3   OH281544   4.615   0.053   0.328 -0.3958 -0.3231 -0.6064
20018TIP3    H181545   4.646  -0.027   0.372 -0.5494  0.1774  0.4424
20018TIP3    H281546   4.552   0.022   0.263 -1.2444 -0.9949  0.5027
20019TIP3   OH281547   1.971   1.544   4.574  0.1254 -0.0506  0.3089
20019TIP3    H181548   1.981   1.537   4.479 -2.6029  1.9854 -0.2400
20019TIP3    H281549   1.910   1.475   4.597  0.6747 -0.4519  0.5969
20020TIP3   OH281550   2.215   4.920  13.193  0.0080 -0.6098 -0.0960
20020TIP3    H181551   2.127   4.957  13.184 -0.5591 -1.5743  1.1151
20020TIP3    H281552   2.240   4.939  13.284  0.5610 -1.3684 -0.0768
20021TIP3   OH281553   6.451   3.498   4.193 -0.3172 -0.0030 -0.3486
20021TIP3    H181554   6.397   3.442   4.138  0.7736 -1.0664 -0.3969
20021TIP3    H281555   6.514   3.538   4.132 -1.1350  1.3773 -0.3275
20022TIP3   OH281556   6.735   1.431  15.465  0.3082 -0.7808  0.2410
20022TIP3    H181557   6.692   1.379  15.532  1.8624 -3.2612 -0.5607
20022TIP3    H281558   6.678   1.507  15.453 -1.8855 -2.0929  1.7338
20023TIP3   OH281559   3.796   1.917   1.149  0.5035 -0.0835  0.3399
20023TIP3    H181560   3.849   1.848   1.189  1.2078  0.0199 -0.3795
20023TIP3    H281561   3.855   1.960   1.087 -0.8404 -1.0056 -1.7004
20024TIP3   OH281562   2.972   2.068   4.143  0.3596  0.4102  0.4989
20024TIP3    H181563   2.926   2.068   4.227 -1.2580  2.0660 -0.3204
20024TIP3    H281564   2.953   1.981   4.106 -1.2437  0.6570  0.6625
20025TIP3   OH281565   5.454   6.735  14.912  0.0663  0.9624  0.0583
20025TIP3    H181566   5.497   6.665  14.961 -0.2818  1.1292  0.5998
20025TIP3    H281567   5.506   6.742  14.831 -0.1547 -0.2206 -0.2076
20026TIP3   OH281568   1.815   1.217   5.295  0.0444  0.0772 -0.1529
20026TIP3    H181569   1.849   1.260   5.217 -0.6788 -0.5401 -0.8288
20026TIP3    H281570   1.874   1.143   5.309  0.7879  0.7843  0.5100
20027TIP3   OH281571   2.487   3.909  16.339  0.2845  0.1873 -0.6328
20027TIP3    H181572   2.422   3.884  16.405 -0.0950  1.8687 -0.3184
20027TIP3    H281573   2.515   3.826  16.300 -1.2188 -0.6632  0.0094
20028TIP3   OH281574   0.280   3.053   0.677 -0.2965  0.4344 -0.3448
20028TIP3    H181575   0.189   3.054   0.707 -0.6491 -0.1685 -1.3592
20028TIP3    H281576   0.276   3.081   0.586  0.2598 -1.7307 -1.0952
20029TIP3   OH281577   6.469   0.909  11.151 -0.0524  0.2124 -0.0669
20029TIP3    H181578   6.541   0.967  11.125  1.4029 -1.5323 -0.1148
20029TIP3    H281579   6.390   0.956  11.125  1.0739  2.0082 -0.4138
20030TIP3   OH281580   2.935   5.163   2.812  0.3440 -0.1036  0.7241
20030TIP3    H181581   2.953   5.093   2.749  0.5582  0.8487 -0.3130
20030TIP3    H281582   2.989   5.236   2.782  0.7560  0.2588  2.2596
20031TIP3   OH281583   2.178   0.086   0.240  0.2757 -0.6359  0.3880
20031TIP3    H181584   2.261   0.052   0.207  0.6535  0.0317  0.6507
20031TIP3    H281585   2.124   0.094   0.161  1.7272  2.5674 -0.4430
20032TIP3   OH281586   5.076   1.443   5.659 -0.2777 -0.2247 -0.1907
20032TIP3    H181587   5.020   1.521   5.667 -0.5255 -0.5300  1.1728
20032TIP3    H281588   5.107   1.446   5.568  0.0835  1.7078 -0.0424
20033TIP3   OH281589   2.261   4.881   0.870 -0.2396  0.3799  0.6317
20033TIP3    H181590   2.258   4.803   0.926  1.4052 -0.2789 -0.1006
20033TIP3    H281591   2.313   4.853   0.794  0.5569  2.2462  0.4440
20034TIP3   OH281592   0.369   6.701  14.786  0.4739  0.4311 -0.1083
20034TIP3    H181593   0.384   6.699  14.881 -0.2381  0.5911  0.0109
20034TIP3    H281594   0.334   6.789  14.770 -0.3343  0.0671 -0.3721
20035TIP3   OH281595   6.356   2.460  14.842 -0.0026  0.4221 -0.8700
20035TIP3    H181596   6.296   2.495  14.776 -0.0900 -0.4475 -1.2718
20035TIP3    H281597   6.436   2.440  14.794  0.5770  1.4444 -0.3621
20036TIP3   OH281598   4.064   3.034  16.361 -0.4758  0.1061 -0.2933
20036TIP3    H181599   4.032   3.106  16.415  0.0754  0.2249 -0.1181
20036TIP3    H281600   4.029   3.051  16.274 -0.4063  0.5507 -0.2372
20037TIP3   OH281601   3.100   3.644   6.225  0.1647  0.4332 -0.0782
20037TIP3    H181602   3.182   3.639   6.175 -0.8168  0.7397 -1.8051
20037TIP3    H281603   3.104   3.570   6.285  0.7248 -0.9364 -1.7258
20038TIP3   OH281604   3.498   4.682  13.454  0.3543  0.2443  0.0455
20038TIP3    H181605   3.462   4.680  13.366 -0.1889  0.9798  0.2411
20038TIP3    H281606   3.429   4.646  13.509 -0.1601  1.7478  0.4333
20039TIP3   OH281607   5.093   3.951  11.434 -0.0192  0.0475 -0.2956
20039TIP3    H181608   5.064   4.011  11.503 -0.9881 -1.5309  0.7382
20039TIP3    H281609   5.025   3.884  11.431  1.5358 -1.5939 -0.6487
20040TIP3   OH281610   4.436   3.922  16.722 -0.6124  0.2256  0.1524
20040TIP3    H181611   4.432   3.833  16.685 -0.0521 -0.4480  1.6175
20040TIP3    H281612   4.465   3.977  16.649 -0.3830 -0.8984 -0.6379
20041TIP3   OH281613   2.000   6.187  10.697 -0.2462 -0.7331 -0.8212
20041TIP3    H181614   2.053   6.176  10.775 -0.3044  1.0375 -0.5022
20041TIP3    H281615   2.056   6.157  10.625  1.5602  1.7646 -0.5862
20042TIP3   OH281616   2.164   4.988  15.035 -0.2729  0.7747 -0.3880
20042TIP3    H181617   2.184   4.895  15.037 -1.8381  0.4136  0.5806
20042TIP3    H281618   2.162   5.010  14.942  0.7578  0.0113 -0.6090
20043TIP3   OH281619   4.796   2.910   2.723 -0.0528 -0.1965 -0.1373
20043TIP3    H181620   4.823   2.852   2.651 -1.4469  2.5528 -3.1331
20043TIP3    H281621   4.703   2.892   2.735  0.0558 -0.2573  0.6857
20044TIP3   OH281622   1.385   3.495   5.861 -0.1413 -0.2471 -0.3399
20044TIP3    H181623   1.433   3.473   5.941  1.5742 -2.1247 -1.8161
20044TIP3    H281624   1.351   3.412   5.830  0.6772  0.1650 -2.4723
20045TIP3   OH281625   5.236   2.561  15.687 -0.1929 -0.4485 -0.1373
20045TIP3    H181626   5.199   2.649  15.676 -3.0609 -1.5949 -0.5722
20045TIP3    H281627   5.186   2.523  15.758 -0.0933 -2.2625 -0.9837
20046TIP3   OH281628   2.559   1.156  11.811 -0.2708  0.2662 -0.3857
20046TIP3    H181629   2.646   1.145  11.771 -0.3654 -0.1563 -0.4809
20046TIP3    H281630   2.577   1.174  11.903 -0.1016 -1.2042 -0.1050
20047TIP3   OH281631   6.824   2.855  14.092  0.9613  0.3942 -0.2735
20047TIP3    H181632   6.762   2.792  14.128  0.0708  1.1922 -0.3542
20047TIP3    H281633   6.827   2.926  14.157  1.0121  0.8346 -0.7487
20048TIP3   OH281634   1.644   4.196  13.054  0.1577  0.0039  0.6824
20048TIP3    H181635   1.690   4.257  12.997 -0.6494  0.7358  0.8016
20048TIP3    H281636   1.554   4.196  13.022  0.0015 -0.6303  1.0958
20049TIP3   OH281637   4.213   0.328  16.926 -0.0966  0.8070 -0.1639
20049TIP3    H181638   4.186   0.330  17.018 -0.6487  0.6341 -0.3194
20049TIP3    H281639   4.141   0.370  16.879 -0.4356 -0.2855 -0.6587
20050TIP3   OH281640   2.908   3.867  13.576 -0.3312 -0.4859  0.5072
20050TIP3    H181641   2.952   3.822  13.648 -0.7270 -1.4561  0.1701
20050TIP3    H281642   2.872   3.796  13.523  2.4887 -0.0254 -2.3314
20051TIP3   OH281643   1.173   6.028   5.378 -0.5469 -0.3342  0.0948
20051TIP3    H181644   1.131   5.964   5.436 -1.0264  1.3707  1.7271
20051TIP3    H281645   1.250   6.057   5.427  0.3874 -0.5740 -1.1909
20052TIP3   OH281646   5.923   3.886  11.809 -0.2261 -0.3725 -0.7383
20052TIP3    H181647   5.829   3.872  11.825 -0.6147  0.9405 -1.7316
20052TIP3    H281648   5.928   3.974  11.773  1.5965  0.2869  0.9436
20053TIP3   OH281649   3.526   5.630   1.554 -0.6651 -0.4812  0.0812
20053TIP3    H181650   3.525   5.661   1.464 -0.7642 -0.5529  0.0566
20053TIP3    H281651   3.495   5.539   1.548  0.5843 -0.9180  0.0293
20054TIP3   OH281652   0.791   0.557  12.272 -0.5061  0.4708  0.2949
20054TIP3    H181653   0.724   0.623  12.283 -0.7508  0.1316  0.8994
20054TIP3    H281654   0.844   0.588  12.198 -0.8423  1.1391  0.3292
20055TIP3   OH281655   4.936   1.981   5.380 -0.2617  0.1597 -0.5338
20055TIP3    H181656   5.027   1.995   5.355  0.5347 -0.5368  1.8325
20055TIP3    H281657   4.903   2.069   5.399  0.2470  0.2931 -0.2659
20056TIP3   OH281658   1.070   2.528   1.980 -0.2598  0.2946  0.1352
20056TIP3    H181659   1.002   2.490   1.924 -0.7426  0.3884  0.6428
20056TIP3    H281660   1.046   2.621   1.986 -0.2558  0.2699  0.5583
20057TIP3   OH281661   4.512   6.246  17.008 -0.3390 -0.5457 -0.0700
20057TIP3    H181662   4.570   6.231  16.933 -0.1721 -1.1809  0.1803
20057TIP3    H281663   4.501   6.341  17.012  0.8501 -0.4042  0.0017
20058TIP3   OH281664   0.328   2.106  15.919  0.2997 -0.2525 -0.2547
20058TIP3    H181665   0.295   2.195  15.908 -0.9012 -0.7668 -1.0951
20058TIP3    H281666   0.320   2.090  16.013  1.9589  1.0213  0.1459
20059TIP3   OH281667   0.235   4.492  16.708 -0.0335 -0.1472  0.0565
20059TIP3    H181668   0.265   4.543  16.783  0.6821 -0.0643 -0.2738
20059TIP3    H281669   0.212   4.407  16.743  0.8275 -0.2901  0.2902
20060TIP3   OH281670   5.909   3.571   2.082 -0.4178  0.1321  0.1313
20060TIP3    H181671   5.909   3.544   2.174  0.3538  1.2145  0.4654
20060TIP3    H281672   5.857   3.651   2.080  0.0862  0.4569 -0.2585
20061TIP3   OH281673   3.454   6.803  16.595  0.0337  0.2952 -0.3354
20061TIP3    H181674   3.361   6.798  16.615  0.2826  0.9606  1.1106
20061TIP3    H281675   3.481   6.712  16.584 -0.5027 -0.0077  0.6818
20062TIP3   OH281676   4.639   5.997  13.169 -0.3789  0.2228 -0.0992
20062TIP3    H181677   4.564   5.946  13.138 -0.3349  0.2810 -0.2960
20062TIP3    H281678   4.693   6.011  13.092  0.9974 -1.7764  0.4003
20063TIP3   OH281679   3.673   1.574  15.400  0.0433 -0.3874 -0.1709
20063TIP3    H181680   3.676   1.666  15.373 -0.5768 -0.0097  0.9970
20063TIP3    H281681   3.614   1.573  15.475 -1.3399 -2.0059 -1.1991
20064TIP3   OH281682   1.376   0.638   1.369  0.0420 -0.0717  0.2877
20064TIP3    H181683   1.284   0.664   1.373  0.1129  0.1387  0.5820
20064TIP3    H281684   1.414   0.671   1.450  0.3623 -0.2208  0.2011
20065TIP3   OH281685   2.628   2.748   6.906 -0.9649 -0.3890 -0.0021
20065TIP3    H181686   2.645   2.840   6.924  2.3738 -1.1810  1.5424
20065TIP3    H281687   2.588   2.715   6.987  0.9318 -0.9536  0.7377
20066TIP3   OH281688   1.227   0.974   0.912  0.1492  0.5831  0.3432
20066TIP3    H181689   1.231   0.886   0.950  0.6519  0.2517 -0.4484
20066TIP3    H281690   1.317   0.993   0.886 -0.0602  1.0983 -0.0323
20067TIP3   OH281691   0.867   2.437  15.616  0.6973 -0.1394  0.5293
20067TIP3    H181692   0.827   2.359  15.576  1.0144 -0.3365  0.5967
20067TIP3    H281693   0.794   2.499  15.625  0.3137 -0.6594  1.0556
20068TIP3   OH281694   0.732   1.019   5.353  0.6812 -0.4528 -0.5067
20068TIP3    H181695   0.766   1.106   5.375 -0.8455  0.0701 -0.0835
20068TIP3    H281696   0.699   1.029   5.264 -0.6046 -0.2224 -0.0280
20069TIP3   OH281697   2.777   1.754   4.642 -0.0536  0.3208  0.3501
20069TIP3    H181698   2.866   1.753   4.677 -0.2381  4.2410  1.3215
20069TIP3    H281699   2.789   1.754   4.547  0.7386 -2.2850  0.3613
20070TIP3   OH281700   0.574   2.533  16.863 -0.2227 -0.0243  0.0789
20070TIP3    H181701   0.651   2.591  16.865  0.6491 -1.1550 -0.0326
20070TIP3    H281702   0.543   2.537  16.772  0.5112 -0.5838 -0.2058
20071TIP3   OH281703   3.972   1.990   4.265  0.0439 -0.8616 -0.0220
20071TIP3    H181704   3.952   2.083   4.273  0.6680 -0.7828  0.7929
20071TIP3    H281705   3.888   1.946   4.278  0.0367 -0.4741  1.4264
20072TIP3   OH281706   4.880   0.641   5.278 -0.0863 -0.5002 -0.3937
20072TIP3    H181707   4.801   0.692   5.294 -0.8769 -2.0504  0.9421
20072TIP3    H281708   4.907   0.665   5.190 -0.9588  1.4689 -0.1722
20073TIP3   OH281709   4.854   5.419   4.434 -0.2141  0.0485  0.2313
20073TIP3    H181710   4.836   5.349   4.496  1.4834 -0.9794 -0.3607
20073TIP3    H281711   4.902   5.485   4.485 -0.7586  0.2332  0.5087
20074TIP3   OH281712   2.679   4.281   4.031 -0.0628 -0.1195  0.7292
20074TIP3    H181713   2.613   4.213   4.043 -0.3402  0.2406  1.2902
20074TIP3    H281714   2.635   4.350   3.982  0.4172 -0.6217 -0.4459
20075TIP3   OH281715   6.220   3.935   4.664  0.1534 -0.3292  0.1317
20075TIP3    H181716   6.315   3.924   4.668 -0.0285 -1.6089  1.4362
20075TIP3    H281717   6.189   3.915   4.752 -1.3970 -0.5633 -0.4304
20076TIP3   OH281718   3.891   3.956  14.052 -0.2044  0.3302 -0.5167
20076TIP3    H181719   3.841   3.903  14.115 -1.5142  0.7577 -1.1582
20076TIP3    H281720   3.936   3.892  13.997 -0.1850 -0.0696 -0.0435
20077TIP3   OH281721   3.392   5.309   2.781 -0.1183 -0.5094  0.2090
20077TIP3    H181722   3.468   5.329   2.726 -2.0106 -1.5352 -3.1047
20077TIP3    H281723   3.393   5.214   2.789 -1.1282 -0.5551 -0.0681
20078TIP3   OH281724   2.519   0.104   0.463  0.1131 -0.2128 -0.5776
20078TIP3    H181725   2.464   0.045   0.411  1.0669 -0.3671 -1.4342
20078TIP3    H281726   2.606   0.096   0.426  0.9168 -0.5602  1.2596
20079TIP3   OH281727   3.984   1.831   0.471  0.5291  0.2633  0.0040
20079TIP3    H181728   4.052   1.810   0.535 -0.0450 -1.4077  0.1073
20079TIP3    H281729   3.970   1.925   0.482  3.5944  0.9387 -0.8092
20080TIP3   OH281730   5.389   4.743  16.485  0.2008  0.3449 -0.9995
20080TIP3    H181731   5.440   4.663  16.495 -0.3544 -0.3792 -3.3133
20080TIP3    H281732   5.426   4.786  16.407  0.7147  2.5668  0.3766
20081TIP3   OH281733   6.256   2.217   1.430 -0.0475  0.7043 -0.2007
20081TIP3    H181734   6.292   2.302   1.407  1.1377  0.4812  0.7261
20081TIP3    H281735   6.276   2.207   1.523 -1.0618 -0.1547 -0.0600
20082TIP3   OH281736   4.602   5.684   2.466  0.1330  0.4128  0.3100
20082TIP3    H181737   4.539   5.729   2.522  1.9060  1.1219  1.8838
20082TIP3    H281738   4.637   5.614   2.521  0.4774 -0.1580 -0.6216
20083TIP3   OH281739   4.554   5.157   3.616  0.1781 -0.2740 -0.1490
20083TIP3    H181740   4.531   5.134   3.707 -0.7692  0.0544 -0.2898
20083TIP3    H281741   4.574   5.073   3.575  1.9097 -0.3177  0.6818
20084TIP3   OH281742   4.823   0.876   0.715 -0.1086 -0.1446  0.7178
20084TIP3    H181743   4.864   0.790   0.727  0.5957  0.1580  0.5565
20084TIP3    H281744   4.730   0.857   0.704  0.2473 -1.0611 -1.1587
20085TIP3   OH281745   2.676   3.520  14.760 -0.3213 -0.0606  0.2716
20085TIP3    H181746   2.698   3.466  14.836  0.2169  0.4283  0.4605
20085TIP3    H281747   2.713   3.472  14.686 -1.7420 -1.0789  0.1769
20086TIP3   OH281748   3.896   5.318  11.891  0.3035  0.5233  0.1665
20086TIP3    H181749   3.908   5.315  11.796  1.7795 -2.0677  0.3465
20086TIP3    H281750   3.816   5.267  11.906  0.8272 -0.2587  0.3705
20087TIP3   OH281751   0.879   5.099   2.325  0.1622  0.1586 -0.0631
20087TIP3    H181752   0.863   5.011   2.358  0.2560  0.4389  0.7304
20087TIP3    H281753   0.804   5.150   2.354  0.4032  0.4810  0.0038
20088TIP3   OH281754   2.703   6.772   5.524 -0.7510  0.5132  0.2772
20088TIP3    H181755   2.796   6.748   5.516 -0.4428  0.7629  2.4914
20088TIP3    H281756   2.682   6.815   5.441  0.4419 -1.6246 -1.2353
20089TIP3   OH281757   1.732   5.292   5.097 -0.2359  0.6676 -0.3481
20089TIP3    H181758   1.753   5.199   5.104  0.7518  0.9184  0.2013
20089TIP3    H281759   1.807   5.336   5.137 -1.0192  1.6721  0.0289
20090TIP3   OH281760   6.422   4.675  11.682 -0.0836  0.1691  0.5068
20090TIP3    H181761   6.425   4.605  11.748  0.8500 -0.4237 -0.1409
20090TIP3    H281762   6.461   4.636  11.604 -1.5234  0.7323 -0.5445
20091TIP3   OH281763   1.943   5.521   1.533  0.4480  0.1945  0.2059
20091TIP3    H181764   1.948   5.432   1.567  1.8498  0.5662  1.0469
20091TIP3    H281765   1.906   5.572   1.604 -0.1939  0.3191 -0.2138
20092TIP3   OH281766   6.299   0.433  14.852  0.3343  0.3391 -0.1589
20092TIP3    H181767   6.263   0.422  14.764 -0.7736 -2.3784  0.5287
20092TIP3    H281768   6.223   0.449  14.908  0.6457 -0.8391  0.6624
20093TIP3   OH281769   2.036   2.877   4.394  0.4635 -0.2232 -0.4144
20093TIP3    H181770   1.984   2.886   4.315  1.6730 -0.5795 -1.2784
20093TIP3    H281771   2.126   2.895   4.366  0.7451  1.0845  1.1806
20094TIP3   OH281772   2.046   4.777   0.620 -0.2838 -0.3921 -0.6029
20094TIP3    H181773   2.113   4.833   0.581 -0.0386 -1.2478 -1.4485
20094TIP3    H281774   1.968   4.793   0.566 -0.6968  0.3854  0.1995
20095TIP3   OH281775   0.048   3.103   2.727  0.1635  0.2547 -0.0160
20095TIP3    H181776   0.036   3.025   2.673 -0.0812  0.6149 -0.4825
20095TIP3    H281777   0.074   3.069   2.813  1.7802 -0.2786 -0.6829
20096TIP3   OH281778   0.638   1.706  13.726  0.1181 -0.3851  0.5965
20096TIP3    H181779   0.710   1.768  13.712 -0.2804  0.1499  0.8891
20096TIP3    H281780   0.605   1.726  13.813 -0.2087 -0.8192  0.5783
20097TIP3   OH281781   1.013   2.439   3.621  0.4907 -0.2834 -0.2474
20097TIP3    H181782   0.980   2.525   3.594  0.6413 -0.5222 -1.2329
20097TIP3    H281783   0.938   2.381   3.615  0.2825 -0.1538  0.8356
20098TIP3   OH281784   5.727   3.057  14.776 -0.2660  0.1273  0.4629
20098TIP3    H181785   5.750   3.038  14.685 -0.9816 -0.8578  0.4792
20098TIP3    H281786   5.660   3.125  14.770  0.3937  0.7758  0.3020
20099TIP3   OH281787   0.860   4.372  11.946  0.2516 -0.1769  0.4335
20099TIP3    H181788   0.812   4.305  11.994  1.8287 -1.6588  0.0605
20099TIP3    H281789   0.940   4.328  11.918  1.1285  1.7533 -0.2525
20100TIP3   OH281790   4.792   2.418  15.613  0.4290 -0.4881  0.0129
20100TIP3    H181791   4.872   2.379  15.578  1.1417  1.3436 -0.5366
20100TIP3    H281792   4.809   2.512  15.611 -1.8390 -0.0394 -0.3354
20101TIP3   OH281793   6.496   0.814  16.612 -0.2032  0.3676 -1.2110
20101TIP3    H181794   6.486   0.732  16.562 -2.3751 -0.3475  0.2364
20101TIP3    H281795   6.425   0.811  16.676 -0.2183  3.3291 -0.9746
20102TIP3   OH281796   5.202   4.245  13.908 -0.0849 -0.0883  0.3291
20102TIP3    H181797   5.133   4.300  13.872  0.3782 -1.2311 -2.6273
20102TIP3    H281798   5.275   4.304  13.923 -0.2136  0.4452 -0.9870
20103TIP3   OH281799   0.746   3.169  10.770  0.7720 -0.1171  0.0414
20103TIP3    H181800   0.658   3.203  10.785  0.7478  0.8288 -1.9251
20103TIP3    H281801   0.754   3.094  10.829 -1.6960 -0.8107 -0.4032
20104TIP3   OH281802   1.261   1.032  15.966 -0.1637  0.8296 -0.1797
20104TIP3    H181803   1.244   0.955  16.020  0.7629  0.0958 -0.8811
20104TIP3    H281804   1.259   0.999  15.876  1.6585  1.2822 -0.4429
20105TIP3   OH281805   4.061   3.892   1.820  0.3817 -0.3125 -0.0178
20105TIP3    H181806   4.137   3.855   1.774  1.0792  0.6145  0.3592
20105TIP3    H281807   4.079   3.876   1.913  1.1557  1.7242  0.2330
20106TIP3   OH281808   4.196   0.444   2.219  0.0285 -0.1207  0.1130
20106TIP3    H181809   4.169   0.395   2.141  0.2761  0.8216 -0.5785
20106TIP3    H281810   4.199   0.535   2.191  0.8147  0.1610  1.0390
20107TIP3   OH281811   1.167   0.630  12.260 -0.3123  0.6370  0.0923
20107TIP3    H181812   1.166   0.534  12.261 -0.1032  0.6413  1.0112
20107TIP3    H281813   1.201   0.652  12.173 -1.1935 -0.1107 -0.4574
20108TIP3   OH281814   6.604   4.977   4.485  0.3948 -0.0824 -0.2675
20108TIP3    H181815   6.626   4.974   4.392 -0.7245 -1.8452 -0.5208
20108TIP3    H281816   6.509   4.985   4.487  0.4108  0.0105  0.7384
20109TIP3   OH281817   1.924   5.686  12.271 -0.0197  0.2874 -0.3853
20109TIP3    H181818   1.954   5.638  12.194  0.0641 -0.6652  0.2234
20109TIP3    H281819   1.870   5.757  12.236 -0.9330 -0.8155 -1.2703
20110TIP3   OH281820   0.755   5.418  15.874 -0.1324  0.2530  0.6569
20110TIP3    H181821   0.677   5.394  15.924 -0.0219 -0.4147  0.5174
20110TIP3    H281822   0.744   5.375  15.789 -1.7111  3.6324 -1.0633
20111TIP3   OH281823   2.626   3.333  16.175  0.0844  0.3626  0.2563
20111TIP3    H181824   2.673   3.407  16.137 -0.1062  0.1262 -0.4619
20111TIP3    H281825   2.634   3.264  16.109 -2.2987  0.6835 -0.4644
20112TIP3   OH281826   6.461   1.747  13.961 -0.0953  0.0679  0.2649
20112TIP3    H181827   6.384   1.761  14.017  0.8589 -0.4747  1.7614
20112TIP3    H281828   6.496   1.663  13.990  1.2911  0.4931 -0.1344
20113TIP3   OH281829   2.083   3.025  14.585  0.0717 -0.2565 -0.3106
20113TIP3    H181830   2.108   3.116  14.571  0.3914 -0.1738  0.7439
20113TIP3    H281831   2.094   3.011  14.679  1.5406 -1.8373 -0.6709
20114TIP3   OH281832   5.553   5.770  11.373  0.1342  1.1474 -0.1948
20114TIP3    H181833   5.549   5.747  11.465 -0.5022 -0.7951 -0.6648
20114TIP3    H281834   5.461   5.779  11.346  0.3002  1.3038 -0.7266
20115TIP3   OH281835   3.293   3.313   3.049 -0.5879 -0.2068 -0.2366
20115TIP3    H181836   3.198   3.308   3.042 -0.5858  0.8803 -1.4885
20115TIP3    H281837   3.309   3.370   3.125 -0.8929 -1.1729  0.5763
20116TIP3   OH281838   2.547   5.186   4.601  0.0748 -0.0071 -0.1007
20116TIP3    H181839   2.558   5.091   4.599 -1.1010 -0.1582 -1.3686
20116TIP3    H281840   2.535   5.207   4.693  0.2471 -1.0987  0.1900
20117TIP3   OH281841   3.928   4.392  16.815 -0.2855  0.1983 -0.8111
20117TIP3    H181842   3.969   4.324  16.762 -0.8675  0.3235 -1.4339
20117TIP3    H281843   3.844   4.409  16.772 -0.5491  0.6569 -0.1358
20118TIP3   OH281844   6.073   3.933   2.995 -0.0427  0.0664 -0.8281
20118TIP3    H181845   6.016   3.893   3.060  0.1282  0.4957 -0.4084
20118TIP3    H281846   6.045   4.025   2.992  0.5561  0.2577 -0.6901
20119TIP3   OH281847   6.421   3.387  15.603 -0.0883  0.0678 -0.1310
20119TIP3    H181848   6.326   3.401  15.612  0.2378  2.2759  0.4311
20119TIP3    H281849   6.452   3.463  15.555  1.2285 -1.3752 -1.6712
20120TIP3   OH281850   4.136   0.332  16.170 -0.3725 -0.2203  0.2550
20120TIP3    H181851   4.171   0.344  16.258  0.2618  0.0300 -0.0210
20120TIP3    H281852   4.062   0.273  16.181 -2.0640  1.9421  1.3374
20121TIP3   OH281853   0.268   6.659   5.048 -0.4165 -0.7116  0.3144
20121TIP3    H181854   0.290   6.681   4.958  0.6299  0.8231  0.9065
20121TIP3    H281855   0.322   6.583   5.068  1.1478  0.3663  0.3536
20122TIP3   OH281856   3.120   6.158   4.891 -0.2347  0.3168  0.1071
20122TIP3    H181857   3.207   6.142   4.855 -0.6831 -0.3086 -0.7365
20122TIP3    H281858   3.136   6.186   4.981  0.8302  0.1135 -0.0066
20123TIP3   OH281859   1.133   0.736  15.600 -0.0256  0.0829 -0.3224
20123TIP3    H181860   1.069   0.802  15.627  0.6468  0.1211  1.2842
20123TIP3    H281861   1.093   0.652  15.622  0.1161  0.0712 -0.1015
20124TIP3   OH281862   2.205   6.321  14.665 -0.4604 -0.1540  0.1670
20124TIP3    H181863   2.120   6.335  14.622 -1.6022 -2.3938  1.5400
20124TIP3    H281864   2.262   6.388  14.626 -1.9843 -0.5212 -3.0919
20125TIP3   OH281865   1.504   4.512   1.056  0.9765  0.4758  0.0821
20125TIP3    H181866   1.597   4.528   1.076  0.8371  1.5078 -0.0472
20125TIP3    H281867   1.469   4.598   1.036  0.8820 -0.2711 -3.7375
20126TIP3   OH281868   1.668   4.917  12.270  0.2564 -1.0104  0.3209
20126TIP3    H181869   1.622   4.833  12.263  0.3626 -1.0129 -0.5102
20126TIP3    H281870   1.630   4.971  12.200 -2.0382  0.7527  2.7693
20127TIP3   OH281871   1.638   5.767  15.960  0.2229  0.1856 -0.1589
20127TIP3    H181872   1.644   5.699  15.893 -1.6933  1.9619 -2.3080
20127TIP3    H281873   1.724   5.810  15.959  0.0293  0.6179 -2.0655
20128TIP3   OH281874   2.055   1.121   3.083 -0.4424  0.1861  0.7287
20128TIP3    H181875   2.113   1.160   3.018 -0.8509 -1.5058 -0.7220
20128TIP3    H281876   1.987   1.187   3.097  0.0023  0.8339 -0.0771
20129TIP3   OH281877   4.273   4.111   2.616  0.7318  0.1670 -0.0346
20129TIP3    H181878   4.211   4.180   2.639  0.3221 -0.6000  1.2682
20129TIP3    H281879   4.241   4.034   2.662  0.6138 -1.1803 -2.2387
20130TIP3   OH281880   5.767   3.049  15.896  0.5525 -0.4450 -0.6264
20130TIP3    H181881   5.843   3.016  15.848  0.1012  1.1814 -2.5691
20130TIP3    H281882   5.693   3.037  15.836 -0.4944 -0.6390  0.6536
20131TIP3   OH281883   1.712   1.252   1.632 -0.3665  0.5053  0.1459
20131TIP3    H181884   1.755   1.199   1.565  2.3253  2.7328 -0.0720
20131TIP3    H281885   1.619   1.251   1.608  0.2388 -0.4082 -2.4444
20132TIP3   OH281886   5.665   1.030  16.946  0.1260  0.1263  1.0850
20132TIP3    H181887   5.682   1.096  17.013 -0.7009  0.3402  1.0886
20132TIP3    H281888   5.685   1.074  16.864 -0.4772  0.4027  1.0828
20133TIP3   OH281889   5.560   4.545   3.699  0.1144  0.6816 -0.1784
20133TIP3    H181890   5.594   4.457   3.684  0.9216  0.9009  0.3533
20133TIP3    H281891   5.635   4.596   3.728 -0.4728  1.4044  0.1048
20134TIP3   OH281892   1.576   0.325   4.477  0.0742 -0.4940  0.0887
20134TIP3    H181893   1.605   0.282   4.396  2.2554 -1.0101  1.0664
20134TIP3    H281894   1.655   0.367   4.511 -1.4765  2.4227  0.3668
20135TIP3   OH281895   3.121   4.065   4.335  0.0082 -0.3622 -0.2500
20135TIP3    H181896   3.126   3.969   4.327  3.0762 -0.3240 -0.2920
20135TIP3    H281897   3.139   4.082   4.428 -1.2231  0.1684 -0.0997
20136TIP3   OH281898   1.330   6.042  13.242 -0.0517  0.2472 -0.8893
20136TIP3    H181899   1.405   6.072  13.292  0.7043 -1.2026 -1.1072
20136TIP3    H281900   1.290   6.123  13.207  2.0119  0.9942 -1.6518
20137TIP3   OH281901   6.225   4.463   4.039  0.2611  0.2075 -0.0187
20137TIP3    H181902   6.252   4.396   4.103  0.0674 -1.0610 -1.2146
20137TIP3    H281903   6.279   4.539   4.060 -0.6089  0.2434  2.3924
20138TIP3   OH281904   5.379   1.686  16.393 -0.7313  0.0196  0.6324
20138TIP3    H181905   5.451   1.624  16.401  1.0652  1.8313 -0.6759
20138TIP3    H281906   5.380   1.734  16.476 -0.5212 -0.0326  0.6628
20139TIP3   OH281907   3.825   6.505   4.408  0.3273  0.3825 -0.2334
20139TIP3    H181908   3.891   6.436   4.417 -0.3267 -0.4613 -1.6252
20139TIP3    H281909   3.744   6.464   4.438  0.0957  0.8410 -0.2320
20140TIP3   OH281910   4.637   1.110  12.704  0.0469 -0.5978 -0.1965
20140TIP3    H181911   4.597   1.047  12.644  2.0289 -0.1470 -2.1450
20140TIP3    H281912   4.650   1.060  12.785 -3.2286 -1.0654  0.1890
20141TIP3   OH281913   0.827   4.610   3.662 -0.3547  0.4637  0.3299
20141TIP3    H181914   0.736   4.599   3.688 -0.1083  0.3698  1.1843
20141TIP3    H281915   0.838   4.704   3.648 -1.0966  0.2883 -1.7961
20142TIP3   OH281916   2.363   0.119   2.800 -0.0501 -0.3330  0.1988
20142TIP3    H181917   2.314   0.195   2.769 -1.3442 -0.5099  1.6394
20142TIP3    H281918   2.368   0.061   2.725  2.1489  1.6776 -1.3491
20143TIP3   OH281919   1.248   3.154  14.568 -0.0714 -0.3552  0.0298
20143TIP3    H181920   1.335   3.134  14.535  1.2653  1.9321  1.8772
20143TIP3    H281921   1.260   3.232  14.622 -3.2646 -0.0065  0.4255
20144TIP3   OH281922   0.608   0.047  16.150 -0.0770 -0.3076  0.1971
20144TIP3    H181923   0.540   0.093  16.101 -0.8513 -0.2658  1.2858
20144TIP3    H281924   0.676   0.114  16.164 -0.5794  0.1316  0.5769
20145TIP3   OH281925   4.025   2.563  16.710  0.2585 -0.5008 -0.1230
20145TIP3    H181926   3.930   2.561  16.697  0.1691 -0.2476  0.4753
20145TIP3    H281927   4.042   2.646  16.754  0.6390 -1.0003  0.6866
20146TIP3   OH281928   2.355   1.062  11.679 -0.1527  0.1782  0.1988
20146TIP3    H181929   2.404   1.043  11.599 -0.7518  1.4395 -0.5034
20146TIP3    H281930   2.423   1.084  11.743  0.2625  0.9823 -0.4962
20147TIP3   OH281931   0.489   2.424   5.459  0.2729  0.1631  0.0885
20147TIP3    H181932   0.410   2.452   5.412 -0.8312  1.8230  2.7279
20147TIP3    H281933   0.502   2.333   5.432 -1.3915  0.4238 -1.8605
20148TIP3   OH281934   0.429   6.254   1.528  0.3357  0.7021  0.0218
20148TIP3    H181935   0.499   6.190   1.511  1.2538  1.5614  0.4219
20148TIP3    H281936   0.361   6.203   1.571  0.6568 -0.1898 -0.4812
20149TIP3   OH281937   2.985   2.034   2.032 -0.6077  0.3449 -0.0771
20149TIP3    H181938   2.992   2.114   2.085  1.7146 -0.2620  0.6634
20149TIP3    H281939   3.052   2.044   1.965 -0.5718 -0.7967 -0.2342
20150TIP3   OH281940   4.583   5.587  17.202  0.1832 -0.1658  0.2065
20150TIP3    H181941   4.614   5.623  17.285  1.3143 -1.5295  0.4010
20150TIP3    H281942   4.575   5.493  17.217  0.5855 -0.4704 -1.2799
20151TIP3   OH281943   6.369   1.472  14.747  0.0125  0.0197 -0.4077
20151TIP3    H181944   6.373   1.377  14.754  0.6994  0.0737 -0.0765
20151TIP3    H281945   6.438   1.495  14.685  0.0085  0.3212 -0.3038
20152TIP3   OH281946   5.207   3.866   0.124 -0.2477 -0.7465 -0.3797
20152TIP3    H181947   5.259   3.826   0.054  0.3212 -1.0951  0.2386
20152TIP3    H281948   5.269   3.880   0.195 -0.2121  1.9931 -0.8355
20153TIP3   OH281949   4.407   5.109   1.926  0.1055 -0.0641 -0.2008
20153TIP3    H181950   4.494   5.093   1.891  1.0662  0.8429  1.5897
20153TIP3    H281951   4.418   5.187   1.981 -2.1368  0.8518 -0.9322
20154TIP3   OH281952   1.976   0.410  16.443  0.0481 -0.5851  0.0321
20154TIP3    H181953   2.032   0.488  16.444  1.2983 -1.4521  0.5807
20154TIP3    H281954   1.909   0.430  16.377  1.6098  0.0972 -1.4459
20155TIP3   OH281955   5.741   4.807  16.566 -0.3839  0.1431  0.0107
20155TIP3    H181956   5.718   4.731  16.618 -3.0377 -0.1722 -1.4579
20155TIP3    H281957   5.691   4.797  16.485  0.0121  2.9011 -0.6809
20156TIP3   OH281958   1.754   1.966   0.070 -0.4896 -0.2594  0.1597
20156TIP3    H181959   1.748   1.966   0.165  2.1877 -1.9868  0.4314
20156TIP3    H281960   1.771   2.057   0.046  0.7290 -0.0964  1.5397
20157TIP3   OH281961   1.279   4.561   0.546  0.3084  0.3542  0.0917
20157TIP3    H181962   1.356   4.522   0.587 -0.5777 -0.5051  1.0046
20157TIP3    H281963   1.209   4.498   0.561 -0.6234  1.2048 -0.5363
20158TIP3   OH281964   6.498   1.104   5.385 -0.3728  0.4509 -0.2390
20158TIP3    H181965   6.470   1.037   5.323  0.3105  0.4354 -0.5434
20158TIP3    H281966   6.559   1.059   5.443 -0.1723  0.7227 -0.2347
20159TIP3   OH281967   3.446   3.017   6.362 -1.0702 -0.1054  0.3527
20159TIP3    H181968   3.506   2.984   6.429 -1.3010 -0.1803  0.5269
20159TIP3    H281969   3.401   2.939   6.330 -1.1601 -0.0360  0.3091
20160TIP3   OH281970   5.828   4.634  13.729  0.5087 -0.1544  0.2537
20160TIP3    H181971   5.836   4.541  13.749  1.6169 -0.5702 -1.7948
20160TIP3    H281972   5.906   4.674  13.767  0.4882 -0.2111  0.3569
20161TIP3   OH281973   6.687   4.362  11.775  0.5676  0.0152 -0.5913
20161TIP3    H181974   6.645   4.430  11.829 -0.8305  1.1557 -2.9451
20161TIP3    H281975   6.617   4.298  11.759  1.4699 -1.2663  0.3599
20162TIP3   OH281976   2.565   3.904   2.283 -0.0941 -0.0956 -0.3359
20162TIP3    H181977   2.514   3.927   2.360  1.2707  1.0305  0.2781
20162TIP3    H281978   2.512   3.934   2.209 -0.3051  1.0987  0.2815
20163TIP3   OH281979   3.014   1.912  15.049  0.1568 -0.1597 -0.1065
20163TIP3    H181980   3.043   1.866  14.970 -1.0700 -1.6314  0.2385
20163TIP3    H281981   2.920   1.926  15.036  0.1261  0.4593  0.6779
20164TIP3   OH281982   4.492   6.455   4.970  0.6789 -0.2669 -0.2187
20164TIP3    H181983   4.422   6.511   5.003  1.7861  1.0992 -0.0759
20164TIP3    H281984   4.520   6.404   5.046  1.1634  0.6370  0.2196
20165TIP3   OH281985   6.029   6.597   0.158 -0.0947  0.1329  0.0217
20165TIP3    H181986   6.110   6.602   0.106 -0.4741  0.0235 -0.5944
20165TIP3    H281987   5.969   6.658   0.115 -1.0202 -1.2848 -0.7748
20166TIP3   OH281988   1.702   6.603   4.020 -0.0258 -0.5546 -0.7354
20166TIP3    H181989   1.647   6.606   3.941 -0.3663 -0.8125 -0.5112
20166TIP3    H281990   1.670   6.527   4.069  1.4648 -1.5748 -1.2688
20167TIP3   OH281991   0.484   2.668  15.444 -0.0425  0.2544  0.8402
20167TIP3    H181992   0.497   2.762  15.453  0.4386  0.1518  1.3304
20167TIP3    H281993   0.438   2.642  15.524 -2.5534  0.4524 -0.4508
20168TIP3   OH281994   5.755   2.727  15.167 -0.5187 -0.6304  0.0093
20168TIP3    H181995   5.772   2.652  15.110  2.0851  0.8114 -1.3107
20168TIP3    H281996   5.825   2.789  15.147 -3.0477  2.6377  0.2886
20169TIP3   OH281997   4.310   3.125  16.510  0.4056  0.1267  0.4340
20169TIP3    H181998   4.235   3.065  16.520  0.6850 -0.5616 -1.2916
20169TIP3    H281999   4.353   3.097  16.430 -0.7279  4.0133 -1.7901
20170TIP3   OH282000   2.154   5.537  15.710  0.5026 -0.5254 -0.2164
20170TIP3    H182001   2.155   5.560  15.617  2.4904 -4.4676 -1.3789
20170TIP3    H282002   2.242   5.558  15.740  0.6737 -1.5637  0.0493
20171TIP3   OH282003   5.332   6.195  15.602  0.5579 -0.1734  0.1932
20171TIP3    H182004   5.280   6.255  15.656  0.5457 -0.6436  0.7147
20171TIP3    H282005   5.423   6.221  15.620  0.5369  1.4183 -1.6004
20172TIP3   OH282006   0.792   1.319   0.293 -0.3008 -0.1305  0.2145
20172TIP3    H182007   0.747   1.236   0.309 -0.4322 -0.0060  0.5004
20172TIP3    H282008   0.832   1.341   0.376  0.1935 -0.1782 -0.0099
20173TIP3   OH282009   1.779   4.452  13.525 -0.1448  0.1331  0.3105
20173TIP3    H182010   1.840   4.514  13.564 -0.1801  0.6142 -0.3780
20173TIP3    H282011   1.730   4.416  13.599  1.5036 -0.8698  0.9599
20174TIP3   OH282012   6.496   1.358   6.120 -0.2046 -0.6715 -0.1769
20174TIP3    H182013   6.436   1.410   6.067 -1.3612 -0.8180  0.9357
20174TIP3    H282014   6.452   1.350   6.205  1.2464 -1.0650  0.5691
20175TIP3   OH282015   2.308   1.054  11.368 -0.1604  0.1008  0.0856
20175TIP3    H182016   2.392   1.083  11.405 -0.3538  0.0276  0.5908
20175TIP3    H282017   2.272   1.132  11.326  0.3455  0.0337 -0.4947
20176TIP3   OH282018   3.447   3.197  16.032  0.4827  0.1403 -0.5821
20176TIP3    H182019   3.509   3.136  16.072 -0.4360  0.1107  0.8393
20176TIP3    H282020   3.502   3.256  15.980  1.7160  0.1462  0.6812
20177TIP3   OH282021   4.952   1.539  14.684  0.1903 -0.4887 -0.2048
20177TIP3    H182022   5.033   1.488  14.695 -1.2225 -2.4520  2.2748
20177TIP3    H282023   4.981   1.630  14.688  2.3568 -1.1202  0.0203
20178TIP3   OH282024   4.944   2.591  15.427  0.3576  0.5966 -0.2940
20178TIP3    H182025   4.990   2.675  15.434 -0.0259  0.7520  0.4841
20178TIP3    H282026   4.900   2.595  15.343  2.1731  0.2252 -1.3102
20179TIP3   OH282027   4.681   0.267   3.836 -0.0417 -0.0008 -0.1922
20179TIP3    H182028   4.618   0.316   3.888  0.6810 -0.6880  1.3775
20179TIP3    H282029   4.720   0.204   3.897  1.6844 -0.0422 -1.2538
20180TIP3   OH282030   2.125   3.728  14.285  0.3891  0.3011 -0.2668
20180TIP3    H182031   2.030   3.739  14.283  0.0168 -2.2847  0.2143
20180TIP3    H282032   2.157   3.808  14.326 -1.7621  0.4092  1.3715
20181TIP3   OH282033   2.043   2.018  16.492  0.3533 -0.6722  0.1665
20181TIP3    H182034   2.044   1.924  16.473  0.2150 -0.7920  0.7369
20181TIP3    H282035   1.971   2.029  16.554 -0.8852  0.0978 -1.3286
20182TIP3   OH282036   3.505   4.567  12.128 -0.1656  0.5085 -0.1867
20182TIP3    H182037   3.527   4.479  12.096  0.9010  1.7309 -3.1722
20182TIP3    H282038   3.428   4.591  12.076 -1.6446  0.6695  1.9868
20183TIP3   OH282039   4.841   2.065  13.132 -0.1754  0.3965 -0.2426
20183TIP3    H182040   4.894   1.997  13.092 -0.5290  0.8080 -1.4373
20183TIP3    H282041   4.868   2.066  13.224  0.9586 -0.2650 -0.5605
20184TIP3   OH282042   1.128   2.612  14.888 -0.9913  0.0586 -0.3993
20184TIP3    H182043   1.080   2.591  14.968  1.5848  1.5488  1.7275
20184TIP3    H282044   1.149   2.528  14.849 -1.1310 -0.7958  1.2834
20185TIP3   OH282045   6.515   5.659   3.690 -0.0246  0.0763  0.4466
20185TIP3    H182046   6.467   5.576   3.689  0.6487 -0.3474 -1.3058
20185TIP3    H282047   6.450   5.724   3.718 -0.9116 -0.8659  0.6202
20186TIP3   OH282048   0.427   6.433  12.915 -0.3099  0.3475 -0.3878
20186TIP3    H182049   0.354   6.382  12.952  0.3700 -1.1203 -0.9882
20186TIP3    H282050   0.446   6.390  12.832  1.2129  0.7292 -0.2615
20187TIP3   OH282051   1.588   3.762   2.251  0.6261  0.4572  0.3076
20187TIP3    H182052   1.671   3.793   2.214 -0.7159  0.7375 -2.7106
20187TIP3    H282053   1.598   3.667   2.256  1.4156  0.5554  0.7805
20188TIP3   OH282054   0.877   4.999  13.633 -0.4805  0.4945  0.3444
20188TIP3    H182055   0.956   4.959  13.669 -0.6902  0.3941  0.7014
20188TIP3    H282056   0.897   5.092  13.629 -0.7087  0.6054  1.4213
20189TIP3   OH282057   1.466   1.331   0.868  0.3129  0.0014 -0.7328
20189TIP3    H182058   1.455   1.367   0.780 -1.1506  1.0515 -0.1718
20189TIP3    H282059   1.513   1.249   0.855  0.9052  0.5617 -2.3942
20190TIP3   OH282060   2.537   3.265   2.721  0.3808 -0.3184  0.6781
20190TIP3    H182061   2.514   3.185   2.768  0.8270 -1.2541 -0.6164
20190TIP3    H282062   2.524   3.243   2.629  1.2343  0.8597  0.2432
20191TIP3   OH282063   2.195   0.458   6.090 -0.7486  0.8044  0.3240
20191TIP3    H182064   2.224   0.413   6.170  1.8840  0.7099 -0.5706
20191TIP3    H282065   2.103   0.476   6.105 -1.3926 -2.7382  1.7429
20192TIP3   OH282066   4.645   1.148  16.933  0.2343 -0.0202 -0.1337
20192TIP3    H182067   4.635   1.224  16.989  0.3634  0.2589 -0.4863
20192TIP3    H282068   4.714   1.097  16.974  1.3558  0.9071 -0.8201
20193TIP3   OH282069   4.863   4.258  10.518 -0.3316 -0.2211 -0.4748
20193TIP3    H182070   4.879   4.165  10.536 -1.1588 -0.3711 -0.4878
20193TIP3    H282071   4.847   4.261  10.423 -1.5084 -0.2471 -0.2835
20194TIP3   OH282072   5.992   2.614   0.989  0.0744 -0.5479  0.2277
20194TIP3    H182073   5.917   2.578   1.036 -0.2120 -1.1148 -0.6410
20194TIP3    H282074   6.049   2.539   0.973  0.1032 -0.3848 -0.4400
20195TIP3   OH282075   6.534   5.753  16.988 -0.2498  0.0936  0.3303
20195TIP3    H182076   6.521   5.798  16.904  1.1310 -1.0741 -0.5756
20195TIP3    H282077   6.546   5.823  17.052  1.7302  1.0649 -1.0096
20196TIP3   OH282078   4.462   0.569   6.021  0.0889  0.0208 -0.2448
20196TIP3    H182079   4.425   0.482   6.003  1.8061 -1.0965  1.2012
20196TIP3    H282080   4.478   0.607   5.935  0.7849 -1.7851 -0.9649
20197TIP3   OH282081   4.316   4.538   2.686  0.2260  0.0406  0.1661
20197TIP3    H182082   4.246   4.489   2.728 -0.2834 -0.1207 -0.8403
20197TIP3    H282083   4.385   4.474   2.672  0.4491  0.1253  0.8639
20198TIP3   OH282084   5.643   5.624  16.065  0.1309 -0.0044  1.0193
20198TIP3    H182085   5.647   5.691  15.996  0.6158  0.0907  1.1351
20198TIP3    H282086   5.644   5.674  16.146  1.7089 -0.1799  1.1334
20199TIP3   OH282087   0.340   6.362  16.708  0.2241  0.2183  0.1279
20199TIP3    H182088   0.416   6.380  16.762  0.4658 -1.8192  0.5477
20199TIP3    H282089   0.322   6.269  16.722 -0.4674 -0.0934 -2.3381
20200TIP3   OH282090   6.595   3.472  16.875 -0.0935  0.5874  0.0666
20200TIP3    H182091   6.594   3.391  16.823 -1.8015  0.0570  0.8553
20200TIP3    H282092   6.515   3.518  16.848  0.5392  1.7267  0.0846
20201TIP3   OH282093   2.317   0.142   3.375  0.3275 -0.5167  0.2070
20201TIP3    H182094   2.379   0.069   3.370  0.0860 -0.8717  1.7538
20201TIP3    H282095   2.266   0.136   3.294  2.1066 -0.3724 -0.9784
20202TIP3   OH282096   6.608   6.488   1.643  0.4080 -0.2575 -0.2442
20202TIP3    H182097   6.568   6.570   1.672  0.9790  0.4747 -1.4555
20202TIP3    H282098   6.556   6.461   1.567  2.1110  0.7042 -1.8381
20203TIP3   OH282099   1.126   2.906  16.491  0.2361 -0.2510  0.2092
20203TIP3    H182100   1.154   2.901  16.400 -0.1319 -0.4370  0.1046
20203TIP3    H282101   1.036   2.875  16.491 -0.8306  2.5285  0.1448
20204TIP3   OH282102   2.120   2.536   6.101 -0.1154  0.1694  0.2312
20204TIP3    H182103   2.154   2.618   6.067 -0.9501 -0.3873 -2.1085
20204TIP3    H282104   2.025   2.542   6.090 -0.1008 -1.6452 -1.3945
20205TIP3   OH282105   2.356   2.538   2.842 -0.2223  0.6776  0.3775
20205TIP3    H182106   2.379   2.601   2.774 -0.0409  1.1892  0.9080
20205TIP3    H282107   2.436   2.488   2.856  0.0589  1.2718  0.9527
20206TIP3   OH282108   3.494   2.621   3.943  0.6223  0.1420  0.5986
20206TIP3    H182109   3.536   2.593   4.024 -0.0727 -0.0660  0.8853
20206TIP3    H282110   3.401   2.606   3.956  0.3042  1.7998  0.4342
20207TIP3   OH282111   5.816   1.013   1.747 -0.0510  0.3917  0.6212
20207TIP3    H182112   5.728   1.043   1.723 -0.6543 -0.9824  1.0542
20207TIP3    H282113   5.836   1.062   1.827  0.4913  2.2970 -0.6121
20208TIP3   OH282114   5.727   2.059   0.750 -0.1401 -0.6185  0.3283
20208TIP3    H182115   5.774   2.141   0.769 -1.2889 -0.0509  0.8057
20208TIP3    H282116   5.797   1.996   0.731  0.8192  0.1915  1.0278
20209TIP3   OH282117   5.011   3.335  15.289 -0.3451  0.0682 -0.1014
20209TIP3    H182118   5.057   3.254  15.310 -1.6723 -0.8994 -0.7793
20209TIP3    H282119   4.955   3.312  15.215 -3.5213  0.5398  1.9458
20210TIP3   OH282120   5.524   1.197   0.868  0.0184  0.1740 -0.6997
20210TIP3    H182121   5.456   1.227   0.808  1.2583 -0.4426 -2.4877
20210TIP3    H282122   5.581   1.141   0.815  1.8881  0.5980  0.7297
20211TIP3   OH282123   2.292   5.989  10.248  0.8337 -0.2550 -0.1297
20211TIP3    H182124   2.323   6.071  10.286  0.1910 -0.2761  0.4488
20211TIP3    H282125   2.366   5.929  10.257  1.0997  0.0884 -0.0096
20212TIP3   OH282126   5.752   5.296  12.336  0.2389 -0.2630  0.8105
20212TIP3    H182127   5.768   5.387  12.312  0.5918 -0.5242  0.0200
20212TIP3    H282128   5.721   5.255  12.256 -1.0992 -0.5766  1.4671
20213TIP3   OH282129   6.084   6.815   4.075 -0.4138 -0.1482 -0.1281
20213TIP3    H182130   6.132   6.882   4.124  0.5578 -0.9316  0.0175
20213TIP3    H282131   6.115   6.823   3.985  0.5163 -1.0972  0.0925
20214TIP3   OH282132   2.202   3.479  14.339 -0.5453 -0.6416 -0.2717
20214TIP3    H182133   2.118   3.434  14.331 -0.8109 -0.5069  1.4512
20214TIP3    H282134   2.180   3.572  14.328 -0.6572 -0.5948  0.3089
20215TIP3   OH282135   2.149   6.059  16.850 -0.2807  0.7444  0.4909
20215TIP3    H182136   2.241   6.081  16.835 -0.4172  1.0146  0.0650
20215TIP3    H282137   2.100   6.112  16.788 -0.6682 -0.0789  0.0658
20216TIP3   OH282138   2.701   1.474  15.476 -0.3617  0.4248  0.1999
20216TIP3    H182139   2.742   1.558  15.458  0.1751  0.3499  1.0084
20216TIP3    H282140   2.742   1.413  15.415  0.3347  0.4616  0.6218
20217TIP3   OH282141   3.006   5.667  13.121 -0.5739 -0.5529 -0.6985
20217TIP3    H182142   3.013   5.754  13.083  1.3474 -1.2109 -1.9882
20217TIP3    H282143   3.052   5.673  13.205 -0.1036 -0.4013 -0.9630
20218TIP3   OH282144   0.457   0.337  13.221  0.7881  0.2740 -0.0102
20218TIP3    H182145   0.378   0.331  13.169  0.0096 -2.2040  1.2666
20218TIP3    H282146   0.467   0.430  13.240 -0.8499  0.8305 -1.5678
20219TIP3   OH282147   0.679   6.359  11.759 -0.4250 -0.0071  0.4823
20219TIP3    H182148   0.722   6.422  11.702  1.1073 -1.2761  0.1751
20219TIP3    H282149   0.630   6.302  11.700  1.2673 -1.4015  0.3628
20220TIP3   OH282150   1.374   2.963   3.729 -0.0882  0.5746  0.3154
20220TIP3    H182151   1.433   3.002   3.664  1.1684  0.7791  1.5331
20220TIP3    H282152   1.383   3.019   3.806 -0.6755 -0.3127  1.0427
20221TIP3   OH282153   4.273   1.293  13.088  0.5798  0.1647  0.3902
20221TIP3    H182154   4.341   1.359  13.100  1.5076 -0.8939  1.2074
20221TIP3    H282155   4.264   1.284  12.993  0.7041  1.1729  0.2690
20222TIP3   OH282156   0.040   4.445   0.393  0.3556 -0.3283  0.2952
20222TIP3    H182157   0.012   4.536   0.393  1.5291  0.0448 -0.3528
20222TIP3    H282158   0.110   4.440   0.329 -0.2084 -1.8684 -0.2659
20223TIP3   OH282159   3.645   1.761  11.487 -0.2479  0.2325 -0.0308
20223TIP3    H182160   3.645   1.851  11.454 -1.5924  0.0987 -0.4817
20223TIP3    H282161   3.727   1.723  11.456  0.2532  1.2436  0.0248
20224TIP3   OH282162   0.113   1.989   2.500 -0.0865 -0.1165  0.0059
20224TIP3    H182163   0.145   2.060   2.445  1.2082 -0.3797  0.3947
20224TIP3    H282164   0.023   2.015   2.523  0.2931  1.2783 -0.0377
20225TIP3   OH282165   2.448   3.165   3.520 -0.1630 -0.1237  0.3515
20225TIP3    H182166   2.525   3.108   3.531  0.9004  1.0231 -0.7679
20225TIP3    H282167   2.404   3.132   3.442 -0.9214 -0.8745  1.0795
20226TIP3   OH282168   2.735   0.876   1.931 -0.3486 -0.2805  0.2757
20226TIP3    H182169   2.641   0.888   1.925 -0.2325  0.4058 -0.2384
20226TIP3    H282170   2.763   0.856   1.841  0.2468  1.4506  0.0420
20227TIP3   OH282171   4.457   5.647   5.867  0.0704 -0.1252 -0.0549
20227TIP3    H182172   4.521   5.672   5.933  1.7342 -1.7479 -0.9575
20227TIP3    H282173   4.399   5.585   5.912  0.4887 -0.3411  0.1965
20228TIP3   OH282174   5.253   1.578  11.722  0.1044  0.3273  0.3011
20228TIP3    H182175   5.298   1.509  11.771  1.3880  0.8842 -0.0480
20228TIP3    H282176   5.167   1.584  11.763  1.3634  1.3295  3.1052
20229TIP3   OH282177   1.338   2.503  13.459 -0.6058  0.2816 -0.3628
20229TIP3    H182178   1.419   2.512  13.410 -0.3550  0.3043  0.0524
20229TIP3    H282179   1.281   2.451  13.403  1.1334 -3.4559  1.0066
20230TIP3   OH282180   4.142   0.996  16.183 -0.5841  0.0144  0.5512
20230TIP3    H182181   4.105   1.083  16.197  0.6713  0.5679  0.5483
20230TIP3    H282182   4.130   0.952  16.267  1.3140  1.1919  1.5050
20231TIP3   OH282183   6.359   6.609  13.098  0.2105 -0.0399  0.2914
20231TIP3    H182184   6.363   6.520  13.134 -2.4794 -0.8161 -1.0714
20231TIP3    H282185   6.445   6.622  13.057  1.1296 -1.4753  1.6613
20232TIP3   OH282186   5.236   0.572  13.615 -0.0543  0.1060  0.0160
20232TIP3    H182187   5.278   0.643  13.568  0.0697  0.3035  0.4172
20232TIP3    H282188   5.237   0.498  13.554  0.1990  0.3261 -0.2474
20233TIP3   OH282189   3.605   1.533   1.742 -0.5075 -0.8414  0.2528
20233TIP3    H182190   3.586   1.554   1.833 -0.6752 -0.1165  0.0523
20233TIP3    H282191   3.581   1.611   1.693 -0.2484 -1.1581 -0.3965
20234TIP3   OH282192   3.115   1.929  16.667  0.0227 -0.3574 -0.2539
20234TIP3    H182193   3.063   1.942  16.746  2.3874  0.2878  1.3072
20234TIP3    H282194   3.123   2.016  16.629  0.4674 -0.3511 -0.1476
20235TIP3   OH282195   6.810   5.438  11.404 -0.1198 -0.2451 -0.3653
20235TIP3    H182196   6.800   5.509  11.340 -0.0215  0.4122  0.3412
20235TIP3    H282197   6.724   5.394  11.404  0.2031 -0.9552 -1.7444
20236TIP3   OH282198   6.022   3.551   2.582 -0.0248 -0.5247 -0.4353
20236TIP3    H182199   6.025   3.603   2.662 -0.3807  0.7593 -1.2331
20236TIP3    H282200   6.102   3.498   2.584  0.5560  0.3609  0.1988
20237TIP3   OH282201   5.011   1.334   3.688 -0.3758  0.6770 -0.1638
20237TIP3    H182202   4.966   1.328   3.772  0.8414  0.2558  0.4817
20237TIP3    H282203   5.096   1.373   3.709  0.2090 -0.0549 -1.0929
20238TIP3   OH282204   1.107   1.282  12.817  0.1630  0.3698  0.1383
20238TIP3    H182205   1.120   1.364  12.768  0.5631 -0.1690 -0.6762
20238TIP3    H282206   1.169   1.221  12.778 -0.6333 -0.5352  0.2556
20239TIP3   OH282207   3.232   2.096   0.121 -0.1464  0.3794 -0.6466
20239TIP3    H182208   3.250   2.178   0.075  0.3860 -0.1814 -1.4728
20239TIP3    H282209   3.139   2.101   0.144 -0.8315  0.1011 -3.0645
20240TIP3   OH282210   2.154   2.888   0.524  0.3421  0.2724 -0.2001
20240TIP3    H182211   2.131   2.891   0.617 -0.2981  1.6066 -0.3803
20240TIP3    H282212   2.130   2.974   0.491  0.3573 -0.2633 -1.6616
20241TIP3   OH282213   0.958   4.976   0.397  0.0825 -0.7557  0.5521
20241TIP3    H182214   1.053   4.982   0.406 -0.0312  1.2575  0.7463
20241TIP3    H282215   0.927   4.957   0.486  0.2844 -1.4106  0.4898
20242TIP3   OH282216   2.224   5.646  17.007  0.5937  0.2967 -0.0921
20242TIP3    H182217   2.203   5.614  16.919  0.0064  0.4007  0.0052
20242TIP3    H282218   2.233   5.566  17.059  4.0072  0.0256 -0.8465
20243TIP3   OH282219   5.634   5.042   0.841 -0.3109  0.7113 -0.5250
20243TIP3    H182220   5.629   5.036   0.936 -0.5963 -1.2056 -0.6268
20243TIP3    H282221   5.543   5.034   0.811 -0.1264  0.3640 -1.0009
20244TIP3   OH282222   3.390   4.319   5.266 -0.0973  0.1220  0.3065
20244TIP3    H182223   3.397   4.304   5.360 -0.3817  1.6615  0.5968
20244TIP3    H282224   3.451   4.390   5.248 -1.0225  0.7624 -0.4232
20245TIP3   OH282225   5.158   4.317   3.317 -0.2782 -1.1219 -0.4755
20245TIP3    H182226   5.241   4.355   3.289 -1.2309  1.2386 -0.3443
20245TIP3    H282227   5.181   4.229   3.348  2.0882 -0.6932 -0.8006
20246TIP3   OH282228   1.643   3.117  12.259 -0.3700  0.1711 -0.4722
20246TIP3    H182229   1.620   3.146  12.348 -2.3959 -1.0102 -0.5580
20246TIP3    H282230   1.688   3.034  12.272  2.8946  1.8046 -0.3983
20247TIP3   OH282231   3.588   4.485   4.294 -0.0701  0.8845  0.0229
20247TIP3    H182232   3.675   4.523   4.297 -0.6981  2.3372  0.8999
20247TIP3    H282233   3.553   4.511   4.209  0.2752  0.4370 -0.2620
20248TIP3   OH282234   0.380   1.795   0.293  0.2808  0.2966  0.0734
20248TIP3    H182235   0.402   1.769   0.383 -0.6056 -1.7295 -0.2490
20248TIP3    H282236   0.311   1.861   0.304 -0.5816 -0.7078  0.8823
20249TIP3   OH282237   6.029   3.227   6.553 -0.1732  0.2928  0.0647
20249TIP3    H182238   6.010   3.133   6.541  1.0911 -0.2087  1.6125
20249TIP3    H282239   6.106   3.228   6.609  1.3977  2.2781 -1.9697
20250TIP3   OH282240   6.343   4.441  12.703 -0.2267 -0.3926  0.3155
20250TIP3    H182241   6.387   4.406  12.781 -0.7823  0.3697  0.9881
20250TIP3    H282242   6.357   4.535  12.707  1.2929 -0.4865 -1.5055
20251TIP3   OH282243   3.855   6.618   1.127 -0.0411 -0.3566 -0.1535
20251TIP3    H182244   3.787   6.663   1.178  0.5704  0.4362 -0.0192
20251TIP3    H282245   3.857   6.530   1.164 -0.2873 -0.0802  0.5479
20252TIP3   OH282246   0.562   5.735   5.672 -0.2257 -0.1663 -0.2837
20252TIP3    H182247   0.620   5.702   5.604 -2.3913 -1.1358 -1.7655
20252TIP3    H282248   0.537   5.822   5.643  0.5169  0.3014  0.4164
20253TIP3   OH282249   1.338   0.748   2.307 -0.1403 -0.4514  0.6073
20253TIP3    H182250   1.421   0.717   2.272  0.8479  1.4494  1.1750
20253TIP3    H282251   1.309   0.815   2.246 -0.0814  0.5306  1.6257
20254TIP3   OH282252   3.133   3.218   0.357  0.1081  0.2544 -0.3791
20254TIP3    H182253   3.139   3.218   0.262  1.2660 -2.3160 -0.3871
20254TIP3    H282254   3.040   3.205   0.375 -0.0367  0.1230 -1.1755
20255TIP3   OH282255   0.697   3.096   2.124 -0.1264 -0.1553  0.2161
20255TIP3    H182256   0.653   3.040   2.189  0.1584 -0.1231  0.4369
20255TIP3    H282257   0.640   3.172   2.115  0.1566  0.1439  0.9117
20256TIP3   OH282258   5.808   2.722   3.885 -0.2525 -0.3096  1.1428
20256TIP3    H182259   5.900   2.729   3.911 -0.1009  0.5231  0.4503
20256TIP3    H282260   5.769   2.662   3.948  0.2453  1.1205  2.8983
20257TIP3   OH282261   0.179   1.779   3.354  0.4813 -0.4715 -0.3657
20257TIP3    H182262   0.212   1.850   3.298 -0.5808 -0.6655 -1.2764
20257TIP3    H282263   0.252   1.717   3.360  0.5355 -0.5797 -1.7939
20258TIP3   OH282264   6.520   1.623   1.814 -0.0161  0.0415 -0.2638
20258TIP3    H182265   6.566   1.557   1.763 -0.5353  0.0609 -0.7584
20258TIP3    H282266   6.590   1.674   1.856  0.4548  0.7380 -1.8297
20259TIP3   OH282267   3.227   6.713   4.981 -0.2299  0.4284 -0.5355
20259TIP3    H182268   3.295   6.646   4.975  0.1769  0.9426 -1.8625
20259TIP3    H282269   3.264   6.779   5.040 -1.2334 -1.1475  2.0364
20260TIP3   OH282270   2.606   1.416   0.994  0.0970  0.6030 -0.5933
20260TIP3    H182271   2.558   1.350   0.944  0.2004 -1.4345  1.7932
20260TIP3    H282272   2.538   1.472   1.033 -0.4184 -1.3804  1.5832
20261TIP3   OH282273   6.245   4.938   2.156  0.0314 -0.3550  0.3577
20261TIP3    H182274   6.300   4.889   2.217  1.7118  0.5806 -0.3415
20261TIP3    H282275   6.155   4.917   2.182  0.6391 -3.7375  0.1286
20262TIP3   OH282276   0.557   4.559   3.719 -0.2689  0.4543 -0.0169
20262TIP3    H182277   0.469   4.560   3.682 -0.9650 -0.4374  1.5366
20262TIP3    H282278   0.565   4.474   3.762  1.4995  0.3572 -0.4269
20263TIP3   OH282279   4.072   6.600  10.660 -0.0968 -0.5282  0.2684
20263TIP3    H182280   4.128   6.645  10.597 -0.8107 -0.2765 -0.1932
20263TIP3    H282281   3.985   6.636  10.645 -0.2507 -0.3402  1.5142
20264TIP3   OH282282   2.547   1.146  14.860  0.2933  0.1328 -0.0272
20264TIP3    H182283   2.515   1.170  14.773  1.6174 -1.2898 -0.9552
20264TIP3    H282284   2.559   1.229  14.905  0.0943  0.9283 -1.3834
20265TIP3   OH282285   0.795   2.088  13.271  0.1425  0.1509  0.2115
20265TIP3    H182286   0.747   2.158  13.315  0.0569  0.2787 -0.0884
20265TIP3    H282287   0.825   2.032  13.343  1.6533  1.3927  0.6139
20266TIP3   OH282288   5.171   4.631   2.786  0.4315  0.0101 -0.7025
20266TIP3    H182289   5.220   4.664   2.711  1.7669 -0.7325 -0.1934
20266TIP3    H282290   5.190   4.694   2.856 -0.1512  0.2593 -0.7670
20267TIP3   OH282291   0.592   3.443   0.810  0.2535  0.0219 -0.5438
20267TIP3    H182292   0.625   3.496   0.738  1.1455 -0.8690 -0.7959
20267TIP3    H282293   0.613   3.494   0.889 -0.6758  0.9697 -0.8773
20268TIP3   OH282294   4.701   0.833  16.294  0.0486  0.0154  0.7715
20268TIP3    H182295   4.726   0.742  16.311  1.5300  0.2847  0.1508
20268TIP3    H282296   4.693   0.872  16.381  0.3025 -0.4714  1.0206
20269TIP3   OH282297   3.199   6.189   2.110  0.1479 -0.2990 -0.4955
20269TIP3    H182298   3.216   6.174   2.203 -0.1714  0.3282 -0.3261
20269TIP3    H282299   3.105   6.170   2.099  0.7359 -3.2851 -1.3262
20270TIP3   OH282300   3.097   1.820  15.558  0.0110  0.1892 -0.2001
20270TIP3    H182301   3.154   1.767  15.614  2.7140  0.4544 -2.4507
20270TIP3    H282302   3.089   1.904  15.604 -3.0837 -1.4470  2.6634
20271TIP3   OH282303   6.489   3.979  12.664  0.0560 -0.7632  0.2593
20271TIP3    H182304   6.568   3.976  12.611  0.6012 -3.5251  1.0640
20271TIP3    H282305   6.420   3.945  12.606 -0.4894  1.1109 -0.2606
20272TIP3   OH282306   1.877   4.319   6.622  0.1079  0.2473 -0.1672
20272TIP3    H182307   1.865   4.376   6.546  0.0468 -0.2062 -0.5027
20272TIP3    H282308   1.882   4.230   6.585 -1.8751 -0.1909  0.4880
20273TIP3   OH282309   5.606   4.122  14.638 -0.2048  0.0641 -0.3221
20273TIP3    H182310   5.516   4.123  14.670  0.7123 -0.8426  2.6721
20273TIP3    H282311   5.658   4.103  14.716  2.5857  0.4450 -1.9700
20274TIP3   OH282312   6.328   6.605  16.924  0.6519  0.0863  0.3566
20274TIP3    H182313   6.417   6.568  16.925 -0.0057 -1.5872  0.1321
20274TIP3    H282314   6.330   6.669  16.853  1.4156 -0.6883 -0.3521
20275TIP3   OH282315   2.577   0.209  14.333  0.2941 -0.0325 -0.2249
20275TIP3    H182316   2.542   0.122  14.316  2.6742 -1.1129  0.0741
20275TIP3    H282317   2.510   0.268  14.297 -0.3801 -1.9920 -2.5236
20276TIP3   OH282318   4.594   4.081  13.858  0.1451  0.8804  0.0621
20276TIP3    H182319   4.515   4.044  13.818  0.4408 -0.1544  0.4125
20276TIP3    H282320   4.567   4.108  13.945  0.6538 -1.5793  1.0666
20277TIP3   OH282321   1.035   0.415   6.708  0.8332  0.5382 -0.0336
20277TIP3    H182322   1.082   0.356   6.650 -0.2265  0.4179 -0.7961
20277TIP3    H282323   1.103   0.469   6.748  1.6634 -0.0909 -0.5804
20278TIP3   OH282324   5.383   0.933  12.872 -0.7357 -0.0098  0.0201
20278TIP3    H182325   5.419   1.022  12.861 -0.7712 -0.1336 -1.3377
20278TIP3    H282326   5.289   0.946  12.877 -0.9203 -0.0690 -2.2195
20279TIP3   OH282327   1.395   4.007  12.982 -0.0147 -0.2722  0.0890
20279TIP3    H182328   1.323   3.985  13.041  1.1395 -3.0607  0.6120
20279TIP3    H282329   1.474   3.982  13.031  1.2150  0.8821 -1.2147
20280LIG      O82330   3.292   3.540  14.268  0.1369  0.6425 -0.0359
20280LIG     C182331   3.212   3.449  14.195  0.2018 -0.0056 -0.4436
20280LIG     C282332   3.303   3.331  14.148 -0.0115  0.4190  0.4451
20280LIG     C382333   3.099   3.389  14.278 -0.0090 -0.4536 -0.1842
20280LIG     H182334   3.162   3.513  14.119  0.7018 -1.5355 -2.1181
20280LIG     H282335   3.256   3.259  14.077  1.9325 -2.7107  2.0722
20280LIG     H382336   3.352   3.277  14.232  1.6131  1.1488  0.0105
20280LIG     H482337   3.390   3.370  14.091 -1.1515  0.4439 -1.3479
20280LIG     H582338   3.061   3.310  14.211 -0.9049 -0.3622  0.1955
20280LIG     H682339   3.011   3.457  14.289 -0.0593 -0.3661 -1.0537
20280LIG     H782340   3.131   3.330  14.366 -2.1279 -2.0968 -0.4216
20280LIG     H882341   3.316   3.495  14.349  1.7601  1.5639  0.0467
   6.83120   6.83120  17.20549
